LAMMPS (11 Nov 2013)
# created by fftool

units real
boundary p p p

atom_style full
bond_style harmonic
angle_style harmonic
special_bonds lj/coul 0.0 0.0 0.5

read_data data.0.lmp
  1 = max bonds/atom
  28 = max angles/atom
  orthogonal box = (-13.4438 -13.4438 -13.4438) to (13.4438 13.4438 13.4438)
  2 by 2 by 2 MPI processor grid
  1089 atoms
  728 bonds
  388 angles
  8 = max # of 1-2 neighbors
  7 = max # of 1-3 neighbors
  7 = max # of 1-4 neighbors
  8 = max # of special neighbors
# read_restart restart.*.lmp
# reset_timestep 0

pair_style hybrid lj/cut/coul/long 10.0 10.0 lj/cut/coul/long/soft 1 0.5 10.0 10.0 10.0
pair_modify tail yes
kspace_style pppm 1.0e-4

pair_coeff    1    1  none  # C-CF C-CF
pair_coeff    1    2  none  # C-CF H-D
pair_coeff    1    3  none  # C-CF FD-
pair_coeff    1    4  lj/cut/coul/long    0.0000   1.8708  # C-CF Hw
pair_coeff    1    5  lj/cut/coul/long    0.1013   3.3286  # C-CF Ow
pair_coeff    2    2  none  # H-D H-D
pair_coeff    2    3  none  # H-D FD-
pair_coeff    2    4  lj/cut/coul/long/soft    0.0000   1.5811  1.0  # H-D Hw
pair_coeff    2    5  lj/cut/coul/long/soft    0.0683   2.8131  1.0  # H-D Ow
pair_coeff    3    3  none  # FD- FD-
pair_coeff    3    4  lj/cut/coul/long/soft    0.0000   1.7176  0.0  # FD- Hw
pair_coeff    3    5  lj/cut/coul/long/soft    0.0908   3.0559  0.0  # FD- Ow
pair_coeff    4    4  lj/cut/coul/long    0.0000   1.0000  # Hw Hw
pair_coeff    4    5  lj/cut/coul/long    0.0000   1.7792  # Hw Ow
pair_coeff    5    5  lj/cut/coul/long    0.1554   3.1655  # Ow Ow

variable nsteps equal 500000
variable nprint equal ${nsteps}/500
variable nprint equal 500000/500
variable ndump equal ${nsteps}/100
variable ndump equal 500000/100
# variable nrestart equal ${nsteps}/10

variable temp equal 300.0
variable press equal 1.0

neighbor 2.0 bin

timestep 2.0

velocity all create ${temp} 12345
velocity all create 300 12345

thermo_style multi
thermo ${nprint}
thermo 1000

fix fSHAKE all shake 0.0001 20 ${nprint} b 3 a 4
fix fSHAKE all shake 0.0001 20 1000 b 3 a 4
  0 = # of size 2 clusters
  0 = # of size 3 clusters
  0 = # of size 4 clusters
  360 = # of frozen angles

fix fNPT all npt temp ${temp} ${temp} 100 iso ${press} ${press} 500
fix fNPT all npt temp 300 ${temp} 100 iso ${press} ${press} 500
fix fNPT all npt temp 300 300 100 iso ${press} ${press} 500
fix fNPT all npt temp 300 300 100 iso 1 ${press} 500
fix fNPT all npt temp 300 300 100 iso 1 1 500

run 200000
PPPM initialization ...
  G vector (1/distance) = 0.270213
  grid = 15 15 15
  stencil order = 5
  estimated absolute RMS force accuracy = 0.0169104
  estimated relative force accuracy = 5.09251e-05
  using double precision FFTs
  3d grid and FFT values/proc = 2744 512
SHAKE stats (type/ave/delta) on step 0
  3 1 1.80042e-05
  4 109.47 0.00132295
Memory usage per processor = 9.96558 Mbytes
---------------- Step        0 ----- CPU =      0.0000 (sec) ----------------
TotEng   =       794.3599 KinEng   =       972.9364 Temp     =       448.3516 
PotEng   =      -178.5765 E_bond   =         0.0000 E_angle  =         0.1880 
E_dihed  =         0.0000 E_impro  =         0.0000 E_vdwl   =      -201.7235 
E_coul   =     19446.1190 E_long   =    -19423.1600 Press    =      1320.4120 
Volume   =     19438.0383 
SHAKE stats (type/ave/delta) on step 1000
  3 0.99992 8.39761e-06
  4 109.47 0.000690524
---------------- Step     1000 ----- CPU =      2.4168 (sec) ----------------
TotEng   =     -3173.4610 KinEng   =       671.9705 Temp     =       309.6596 
PotEng   =     -3845.4315 E_bond   =         0.1341 E_angle  =         0.4297 
E_dihed  =         0.0000 E_impro  =         0.0000 E_vdwl   =       705.8097 
E_coul   =     15096.0159 E_long   =    -19647.8208 Press    =      -306.0005 
Volume   =     11532.0427 
SHAKE stats (type/ave/delta) on step 2000
  3 1.00004 5.86753e-06
  4 109.47 0.000507613
---------------- Step     2000 ----- CPU =      5.0955 (sec) ----------------
TotEng   =     -3383.4101 KinEng   =       640.9076 Temp     =       295.3451 
PotEng   =     -4024.3177 E_bond   =         0.2997 E_angle  =         0.5443 
E_dihed  =         0.0000 E_impro  =         0.0000 E_vdwl   =       692.7141 
E_coul   =     14930.0516 E_long   =    -19647.9274 Press    =     -1716.6583 
Volume   =     11151.8732 
SHAKE stats (type/ave/delta) on step 3000
  3 1.00004 4.2172e-06
  4 109.47 0.000372413
---------------- Step     3000 ----- CPU =      7.8085 (sec) ----------------
TotEng   =     -3373.2327 KinEng   =       618.1199 Temp     =       284.8440 
PotEng   =     -3991.3526 E_bond   =         0.3981 E_angle  =         0.6602 
E_dihed  =         0.0000 E_impro  =         0.0000 E_vdwl   =       729.7125 
E_coul   =     14928.1913 E_long   =    -19650.3147 Press    =      -198.3928 
Volume   =     10752.3327 
SHAKE stats (type/ave/delta) on step 4000
  3 1 6.91034e-06
  4 109.47 0.000560054
---------------- Step     4000 ----- CPU =     10.5733 (sec) ----------------
TotEng   =     -3314.5882 KinEng   =       688.2950 Temp     =       317.1823 
PotEng   =     -4002.8832 E_bond   =         0.3510 E_angle  =         0.5464 
E_dihed  =         0.0000 E_impro  =         0.0000 E_vdwl   =       765.0465 
E_coul   =     14881.3370 E_long   =    -19650.1641 Press    =       284.1459 
Volume   =     10935.2627 
SHAKE stats (type/ave/delta) on step 5000
  3 1.00002 9.40274e-06
  4 109.47 0.00115559
---------------- Step     5000 ----- CPU =     13.3394 (sec) ----------------
TotEng   =     -3310.0976 KinEng   =       661.0995 Temp     =       304.6500 
PotEng   =     -3971.1970 E_bond   =         0.1894 E_angle  =         1.0053 
E_dihed  =         0.0000 E_impro  =         0.0000 E_vdwl   =       667.0390 
E_coul   =     15010.5175 E_long   =    -19649.9482 Press    =     -1127.8596 
Volume   =     10764.6954 
SHAKE stats (type/ave/delta) on step 6000
  3 0.999887 7.3016e-06
  4 109.47 0.000761811
---------------- Step     6000 ----- CPU =     16.0613 (sec) ----------------
TotEng   =     -3312.9643 KinEng   =       647.4924 Temp     =       298.3795 
PotEng   =     -3960.4567 E_bond   =         0.4837 E_angle  =         1.5029 
E_dihed  =         0.0000 E_impro  =         0.0000 E_vdwl   =       721.4571 
E_coul   =     14967.1006 E_long   =    -19651.0009 Press    =      -164.4202 
Volume   =     10974.1502 
SHAKE stats (type/ave/delta) on step 7000
  3 1.00002 1.06079e-05
  4 109.47 0.000928222
---------------- Step     7000 ----- CPU =     18.8314 (sec) ----------------
TotEng   =     -3371.3044 KinEng   =       653.6852 Temp     =       301.2333 
PotEng   =     -4024.9896 E_bond   =         0.9485 E_angle  =         0.6075 
E_dihed  =         0.0000 E_impro  =         0.0000 E_vdwl   =       782.5871 
E_coul   =     14839.5343 E_long   =    -19648.6670 Press    =       408.8103 
Volume   =     10854.1202 
SHAKE stats (type/ave/delta) on step 8000
  3 1.00002 3.83259e-06
  4 109.47 0.000359604
---------------- Step     8000 ----- CPU =     21.6238 (sec) ----------------
TotEng   =     -3379.1628 KinEng   =       655.7737 Temp     =       302.1957 
PotEng   =     -4034.9366 E_bond   =         0.3241 E_angle  =         0.9763 
E_dihed  =         0.0000 E_impro  =         0.0000 E_vdwl   =       739.4555 
E_coul   =     14874.3560 E_long   =    -19650.0486 Press    =      -273.9466 
Volume   =     10682.3825 
SHAKE stats (type/ave/delta) on step 9000
  3 1.00003 6.28969e-06
  4 109.47 0.000500906
---------------- Step     9000 ----- CPU =     24.4408 (sec) ----------------
TotEng   =     -3370.2033 KinEng   =       659.5221 Temp     =       303.9231 
PotEng   =     -4029.7254 E_bond   =         0.9146 E_angle  =         0.8382 
E_dihed  =         0.0000 E_impro  =         0.0000 E_vdwl   =       781.8931 
E_coul   =     14833.9288 E_long   =    -19647.3001 Press    =       153.6914 
Volume   =     10968.1971 
SHAKE stats (type/ave/delta) on step 10000
  3 1.00009 6.67383e-06
  4 109.47 0.000465216
---------------- Step    10000 ----- CPU =     27.2003 (sec) ----------------
TotEng   =     -3367.2729 KinEng   =       663.1267 Temp     =       305.5842 
PotEng   =     -4030.3997 E_bond   =         0.8680 E_angle  =         0.7494 
E_dihed  =         0.0000 E_impro  =         0.0000 E_vdwl   =       722.6937 
E_coul   =     14897.7184 E_long   =    -19652.4292 Press    =      -684.6370 
Volume   =     10829.3019 
SHAKE stats (type/ave/delta) on step 11000
  3 1.00014 5.97169e-06
  4 109.47 0.00057949
---------------- Step    11000 ----- CPU =     30.0357 (sec) ----------------
TotEng   =     -3346.8358 KinEng   =       639.4945 Temp     =       294.6939 
PotEng   =     -3986.3303 E_bond   =         0.5421 E_angle  =         1.6896 
E_dihed  =         0.0000 E_impro  =         0.0000 E_vdwl   =       740.8715 
E_coul   =     14920.6744 E_long   =    -19650.1078 Press    =       215.5195 
Volume   =     10715.2716 
SHAKE stats (type/ave/delta) on step 12000
  3 0.99998 5.81321e-06
  4 109.47 0.000447755
---------------- Step    12000 ----- CPU =     32.8830 (sec) ----------------
TotEng   =     -3367.4938 KinEng   =       662.4792 Temp     =       305.2858 
PotEng   =     -4029.9731 E_bond   =         0.2354 E_angle  =         2.2818 
E_dihed  =         0.0000 E_impro  =         0.0000 E_vdwl   =       765.2973 
E_coul   =     14850.8719 E_long   =    -19648.6595 Press    =        84.3965 
Volume   =     10780.2885 
SHAKE stats (type/ave/delta) on step 13000
  3 0.99994 7.67732e-06
  4 109.47 0.000693151
---------------- Step    13000 ----- CPU =     35.7128 (sec) ----------------
TotEng   =     -3378.7454 KinEng   =       647.4192 Temp     =       298.3458 
PotEng   =     -4026.1647 E_bond   =         0.4236 E_angle  =         1.3929 
E_dihed  =         0.0000 E_impro  =         0.0000 E_vdwl   =       772.6188 
E_coul   =     14849.4088 E_long   =    -19650.0088 Press    =      -199.5021 
Volume   =     11074.4701 
SHAKE stats (type/ave/delta) on step 14000
  3 1.00009 4.09448e-06
  4 109.47 0.000392145
---------------- Step    14000 ----- CPU =     38.4863 (sec) ----------------
TotEng   =     -3325.9679 KinEng   =       670.1345 Temp     =       308.8135 
PotEng   =     -3996.1023 E_bond   =         0.1410 E_angle  =         0.8862 
E_dihed  =         0.0000 E_impro  =         0.0000 E_vdwl   =       676.4532 
E_coul   =     14976.8383 E_long   =    -19650.4210 Press    =     -1721.9002 
Volume   =     11112.7476 
SHAKE stats (type/ave/delta) on step 15000
  3 0.99993 3.38071e-06
  4 109.47 0.000368627
---------------- Step    15000 ----- CPU =     41.2530 (sec) ----------------
TotEng   =     -3347.3564 KinEng   =       644.0366 Temp     =       296.7870 
PotEng   =     -3991.3930 E_bond   =         0.1660 E_angle  =         2.2324 
E_dihed  =         0.0000 E_impro  =         0.0000 E_vdwl   =       737.3886 
E_coul   =     14916.6863 E_long   =    -19647.8663 Press    =      -166.5033 
Volume   =     10803.1706 
SHAKE stats (type/ave/delta) on step 16000
  3 0.999949 8.03825e-06
  4 109.47 0.000910732
---------------- Step    16000 ----- CPU =     43.9875 (sec) ----------------
TotEng   =     -3384.4808 KinEng   =       640.3449 Temp     =       295.0858 
PotEng   =     -4024.8257 E_bond   =         0.5841 E_angle  =         1.8837 
E_dihed  =         0.0000 E_impro  =         0.0000 E_vdwl   =       774.2073 
E_coul   =     14847.8471 E_long   =    -19649.3479 Press    =       311.7078 
Volume   =     10871.4451 
SHAKE stats (type/ave/delta) on step 17000
  3 0.999811 3.57189e-06
  4 109.47 0.000384467
---------------- Step    17000 ----- CPU =     46.7149 (sec) ----------------
TotEng   =     -3385.6088 KinEng   =       660.3065 Temp     =       304.2845 
PotEng   =     -4045.9153 E_bond   =         0.6913 E_angle  =         1.3177 
E_dihed  =         0.0000 E_impro  =         0.0000 E_vdwl   =       775.9917 
E_coul   =     14828.4658 E_long   =    -19652.3818 Press    =      -280.3319 
Volume   =     11108.7517 
SHAKE stats (type/ave/delta) on step 18000
  3 0.999963 4.79985e-06
  4 109.47 0.000415286
---------------- Step    18000 ----- CPU =     49.4727 (sec) ----------------
TotEng   =     -3367.8361 KinEng   =       636.9236 Temp     =       293.5092 
PotEng   =     -4004.7596 E_bond   =         0.3748 E_angle  =         2.5246 
E_dihed  =         0.0000 E_impro  =         0.0000 E_vdwl   =       785.2079 
E_coul   =     14855.9718 E_long   =    -19648.8388 Press    =       652.1486 
Volume   =     10704.1233 
SHAKE stats (type/ave/delta) on step 19000
  3 1.00016 1.35601e-05
  4 109.47 0.000919537
---------------- Step    19000 ----- CPU =     52.2667 (sec) ----------------
TotEng   =     -3344.3781 KinEng   =       700.1136 Temp     =       322.6286 
PotEng   =     -4044.4918 E_bond   =         0.4489 E_angle  =         1.1290 
E_dihed  =         0.0000 E_impro  =         0.0000 E_vdwl   =       799.6782 
E_coul   =     14804.9382 E_long   =    -19650.6860 Press    =      1180.9807 
Volume   =     10579.1349 
SHAKE stats (type/ave/delta) on step 20000
  3 0.999949 3.67546e-06
  4 109.47 0.000370007
---------------- Step    20000 ----- CPU =     55.0577 (sec) ----------------
TotEng   =     -3403.7356 KinEng   =       641.5924 Temp     =       295.6607 
PotEng   =     -4045.3281 E_bond   =         0.8364 E_angle  =         2.3529 
E_dihed  =         0.0000 E_impro  =         0.0000 E_vdwl   =       783.5902 
E_coul   =     14815.7992 E_long   =    -19647.9068 Press    =       399.2747 
Volume   =     10664.7277 
SHAKE stats (type/ave/delta) on step 21000
  3 1.00004 1.55599e-05
  4 109.47 0.00163708
---------------- Step    21000 ----- CPU =     57.8260 (sec) ----------------
TotEng   =     -3383.7667 KinEng   =       679.0848 Temp     =       312.9380 
PotEng   =     -4062.8515 E_bond   =         1.2191 E_angle  =         1.1038 
E_dihed  =         0.0000 E_impro  =         0.0000 E_vdwl   =       794.7192 
E_coul   =     14789.6859 E_long   =    -19649.5796 Press    =       493.7127 
Volume   =     10905.0488 
SHAKE stats (type/ave/delta) on step 22000
  3 0.999991 5.06802e-06
  4 109.47 0.000477234
---------------- Step    22000 ----- CPU =     60.7001 (sec) ----------------
TotEng   =     -3369.1960 KinEng   =       640.1332 Temp     =       294.9882 
PotEng   =     -4009.3293 E_bond   =         1.2372 E_angle  =         2.9675 
E_dihed  =         0.0000 E_impro  =         0.0000 E_vdwl   =       772.8635 
E_coul   =     14864.7386 E_long   =    -19651.1360 Press    =       432.7832 
Volume   =     10801.8593 
SHAKE stats (type/ave/delta) on step 23000
  3 0.999892 3.56016e-06
  4 109.47 0.000372063
---------------- Step    23000 ----- CPU =     63.4824 (sec) ----------------
TotEng   =     -3328.0471 KinEng   =       663.2047 Temp     =       305.6201 
PotEng   =     -3991.2518 E_bond   =         0.9703 E_angle  =         2.6020 
E_dihed  =         0.0000 E_impro  =         0.0000 E_vdwl   =       763.9611 
E_coul   =     14889.9201 E_long   =    -19648.7054 Press    =       402.7994 
Volume   =     10936.4721 
SHAKE stats (type/ave/delta) on step 24000
  3 0.999875 9.93111e-06
  4 109.47 0.000756403
---------------- Step    24000 ----- CPU =     66.1934 (sec) ----------------
TotEng   =     -3404.6500 KinEng   =       610.9833 Temp     =       281.5553 
PotEng   =     -4015.6333 E_bond   =         1.2991 E_angle  =         2.2083 
E_dihed  =         0.0000 E_impro  =         0.0000 E_vdwl   =       769.7884 
E_coul   =     14859.9229 E_long   =    -19648.8520 Press    =      -149.6261 
Volume   =     10998.4432 
SHAKE stats (type/ave/delta) on step 25000
  3 0.999978 7.85233e-06
  4 109.47 0.000599151
---------------- Step    25000 ----- CPU =     68.9597 (sec) ----------------
TotEng   =     -3401.2798 KinEng   =       650.1059 Temp     =       299.5839 
PotEng   =     -4051.3857 E_bond   =         0.6169 E_angle  =         1.9154 
E_dihed  =         0.0000 E_impro  =         0.0000 E_vdwl   =       761.5706 
E_coul   =     14831.3633 E_long   =    -19646.8519 Press    =      -201.5235 
Volume   =     10944.0340 
SHAKE stats (type/ave/delta) on step 26000
  3 0.999947 4.058e-06
  4 109.47 0.000358875
---------------- Step    26000 ----- CPU =     71.6483 (sec) ----------------
TotEng   =     -3346.1212 KinEng   =       646.7948 Temp     =       298.0580 
PotEng   =     -3992.9159 E_bond   =         0.7782 E_angle  =         1.9610 
E_dihed  =         0.0000 E_impro  =         0.0000 E_vdwl   =       706.8481 
E_coul   =     14946.7729 E_long   =    -19649.2762 Press    =     -1149.5862 
Volume   =     11104.8054 
SHAKE stats (type/ave/delta) on step 27000
  3 1.00002 5.4874e-06
  4 109.47 0.000445182
---------------- Step    27000 ----- CPU =     74.3133 (sec) ----------------
TotEng   =     -3360.3144 KinEng   =       682.5656 Temp     =       314.5421 
PotEng   =     -4042.8800 E_bond   =         1.0094 E_angle  =         2.3488 
E_dihed  =         0.0000 E_impro  =         0.0000 E_vdwl   =       770.4086 
E_coul   =     14833.6536 E_long   =    -19650.3004 Press    =      -360.4000 
Volume   =     11149.5056 
SHAKE stats (type/ave/delta) on step 28000
  3 1.00002 4.19584e-06
  4 109.47 0.000399011
---------------- Step    28000 ----- CPU =     77.0043 (sec) ----------------
TotEng   =     -3343.0219 KinEng   =       629.9224 Temp     =       290.2829 
PotEng   =     -3972.9443 E_bond   =         1.0915 E_angle  =         3.1758 
E_dihed  =         0.0000 E_impro  =         0.0000 E_vdwl   =       753.2637 
E_coul   =     14917.6381 E_long   =    -19648.1134 Press    =       257.1357 
Volume   =     10881.2305 
SHAKE stats (type/ave/delta) on step 29000
  3 1.00007 6.75139e-06
  4 109.47 0.000831988
---------------- Step    29000 ----- CPU =     79.6720 (sec) ----------------
TotEng   =     -3389.2242 KinEng   =       632.8318 Temp     =       291.6235 
PotEng   =     -4022.0560 E_bond   =         1.8125 E_angle  =         3.1409 
E_dihed  =         0.0000 E_impro  =         0.0000 E_vdwl   =       770.2595 
E_coul   =     14851.7747 E_long   =    -19649.0436 Press    =       244.0048 
Volume   =     10829.9822 
SHAKE stats (type/ave/delta) on step 30000
  3 0.999955 1.08607e-05
  4 109.47 0.000948592
---------------- Step    30000 ----- CPU =     82.3543 (sec) ----------------
TotEng   =     -3328.6399 KinEng   =       665.9400 Temp     =       306.8806 
PotEng   =     -3994.5799 E_bond   =         1.2565 E_angle  =         3.1171 
E_dihed  =         0.0000 E_impro  =         0.0000 E_vdwl   =       728.1385 
E_coul   =     14922.2145 E_long   =    -19649.3065 Press    =      -400.7144 
Volume   =     10935.9126 
SHAKE stats (type/ave/delta) on step 31000
  3 1.00007 3.98945e-06
  4 109.47 0.000346927
---------------- Step    31000 ----- CPU =     85.0522 (sec) ----------------
TotEng   =     -3457.2720 KinEng   =       606.3702 Temp     =       279.4294 
PotEng   =     -4063.6422 E_bond   =         1.7237 E_angle  =         1.9359 
E_dihed  =         0.0000 E_impro  =         0.0000 E_vdwl   =       773.9102 
E_coul   =     14810.6225 E_long   =    -19651.8345 Press    =      -530.3692 
Volume   =     10968.0595 
SHAKE stats (type/ave/delta) on step 32000
  3 0.999891 1.03401e-05
  4 109.47 0.000910353
---------------- Step    32000 ----- CPU =     87.7271 (sec) ----------------
TotEng   =     -3372.7012 KinEng   =       638.9879 Temp     =       294.4604 
PotEng   =     -4011.6891 E_bond   =         1.2119 E_angle  =         2.3380 
E_dihed  =         0.0000 E_impro  =         0.0000 E_vdwl   =       747.5781 
E_coul   =     14885.1272 E_long   =    -19647.9442 Press    =        44.7476 
Volume   =     10784.9924 
SHAKE stats (type/ave/delta) on step 33000
  3 0.999949 4.01676e-06
  4 109.47 0.000430043
---------------- Step    33000 ----- CPU =     90.5422 (sec) ----------------
TotEng   =     -3380.9680 KinEng   =       636.2593 Temp     =       293.2030 
PotEng   =     -4017.2273 E_bond   =         0.3389 E_angle  =         2.9324 
E_dihed  =         0.0000 E_impro  =         0.0000 E_vdwl   =       761.6887 
E_coul   =     14867.4551 E_long   =    -19649.6425 Press    =       -18.3932 
Volume   =     10983.9409 
SHAKE stats (type/ave/delta) on step 34000
  3 1.00009 5.03196e-06
  4 109.47 0.000430814
---------------- Step    34000 ----- CPU =     93.3792 (sec) ----------------
TotEng   =     -3325.0458 KinEng   =       646.7386 Temp     =       298.0322 
PotEng   =     -3971.7844 E_bond   =         0.6454 E_angle  =         3.2591 
E_dihed  =         0.0000 E_impro  =         0.0000 E_vdwl   =       697.6284 
E_coul   =     14976.3446 E_long   =    -19649.6619 Press    =      -811.2501 
Volume   =     10774.1621 
SHAKE stats (type/ave/delta) on step 35000
  3 0.99997 9.18233e-06
  4 109.47 0.000953649
---------------- Step    35000 ----- CPU =     96.1776 (sec) ----------------
TotEng   =     -3352.0274 KinEng   =       654.6466 Temp     =       301.6764 
PotEng   =     -4006.6740 E_bond   =         2.3241 E_angle  =         1.4591 
E_dihed  =         0.0000 E_impro  =         0.0000 E_vdwl   =       752.4347 
E_coul   =     14887.9727 E_long   =    -19650.8646 Press    =       396.3767 
Volume   =     10711.5670 
SHAKE stats (type/ave/delta) on step 36000
  3 0.999942 5.37537e-06
  4 109.47 0.000548448
---------------- Step    36000 ----- CPU =     98.9900 (sec) ----------------
TotEng   =     -3399.6184 KinEng   =       635.2486 Temp     =       292.7373 
PotEng   =     -4034.8670 E_bond   =         1.6551 E_angle  =         2.4635 
E_dihed  =         0.0000 E_impro  =         0.0000 E_vdwl   =       775.7423 
E_coul   =     14834.3543 E_long   =    -19649.0823 Press    =       495.6994 
Volume   =     10550.8222 
SHAKE stats (type/ave/delta) on step 37000
  3 0.999948 9.08136e-06
  4 109.47 0.000838074
---------------- Step    37000 ----- CPU =    101.7280 (sec) ----------------
TotEng   =     -3362.2709 KinEng   =       649.1326 Temp     =       299.1353 
PotEng   =     -4011.4035 E_bond   =         0.5302 E_angle  =         2.3864 
E_dihed  =         0.0000 E_impro  =         0.0000 E_vdwl   =       757.2142 
E_coul   =     14877.8217 E_long   =    -19649.3560 Press    =       -96.9902 
Volume   =     11012.8557 
SHAKE stats (type/ave/delta) on step 38000
  3 1.00001 1.76636e-05
  4 109.47 0.0012825
---------------- Step    38000 ----- CPU =    104.4576 (sec) ----------------
TotEng   =     -3341.3536 KinEng   =       660.3653 Temp     =       304.3116 
PotEng   =     -4001.7189 E_bond   =         0.4282 E_angle  =         1.6435 
E_dihed  =         0.0000 E_impro  =         0.0000 E_vdwl   =       766.1118 
E_coul   =     14877.8591 E_long   =    -19647.7615 Press    =       -67.1179 
Volume   =     10863.6938 
SHAKE stats (type/ave/delta) on step 39000
  3 1.00002 3.93493e-06
  4 109.47 0.000395962
---------------- Step    39000 ----- CPU =    107.2260 (sec) ----------------
TotEng   =     -3378.4892 KinEng   =       655.4168 Temp     =       302.0313 
PotEng   =     -4033.9060 E_bond   =         0.6898 E_angle  =         1.6754 
E_dihed  =         0.0000 E_impro  =         0.0000 E_vdwl   =       693.6857 
E_coul   =     14921.1039 E_long   =    -19651.0609 Press    =     -1389.7187 
Volume   =     10836.4474 
SHAKE stats (type/ave/delta) on step 40000
  3 0.999944 1.12205e-05
  4 109.47 0.000766062
---------------- Step    40000 ----- CPU =    109.9824 (sec) ----------------
TotEng   =     -3363.0972 KinEng   =       629.1753 Temp     =       289.9386 
PotEng   =     -3992.2725 E_bond   =         0.8955 E_angle  =         2.6122 
E_dihed  =         0.0000 E_impro  =         0.0000 E_vdwl   =       703.3932 
E_coul   =     14950.6016 E_long   =    -19649.7750 Press    =     -1005.1010 
Volume   =     10972.3492 
SHAKE stats (type/ave/delta) on step 41000
  3 1.00007 4.17357e-06
  4 109.47 0.000389426
---------------- Step    41000 ----- CPU =    112.7292 (sec) ----------------
TotEng   =     -3314.9782 KinEng   =       649.9645 Temp     =       299.5187 
PotEng   =     -3964.9426 E_bond   =         1.1671 E_angle  =         1.3853 
E_dihed  =         0.0000 E_impro  =         0.0000 E_vdwl   =       760.3636 
E_coul   =     14923.5347 E_long   =    -19651.3934 Press    =       -55.6925 
Volume   =     11363.9498 
SHAKE stats (type/ave/delta) on step 42000
  3 1.00008 6.19551e-06
  4 109.47 0.000676985
---------------- Step    42000 ----- CPU =    115.4394 (sec) ----------------
TotEng   =     -3321.3781 KinEng   =       695.5401 Temp     =       320.5210 
PotEng   =     -4016.9182 E_bond   =         0.4987 E_angle  =         1.1118 
E_dihed  =         0.0000 E_impro  =         0.0000 E_vdwl   =       759.8696 
E_coul   =     14870.4010 E_long   =    -19648.7993 Press    =       -43.5313 
Volume   =     10976.0618 
SHAKE stats (type/ave/delta) on step 43000
  3 1.00004 6.46558e-06
  4 109.47 0.000638551
---------------- Step    43000 ----- CPU =    118.1796 (sec) ----------------
TotEng   =     -3366.6496 KinEng   =       619.1090 Temp     =       285.2998 
PotEng   =     -3985.7586 E_bond   =         0.4857 E_angle  =         2.1756 
E_dihed  =         0.0000 E_impro  =         0.0000 E_vdwl   =       700.6704 
E_coul   =     14962.4339 E_long   =    -19651.5242 Press    =      -819.9458 
Volume   =     10843.9142 
SHAKE stats (type/ave/delta) on step 44000
  3 1.00001 4.07317e-06
  4 109.47 0.00038668
---------------- Step    44000 ----- CPU =    121.1850 (sec) ----------------
TotEng   =     -3302.0413 KinEng   =       634.0113 Temp     =       292.1671 
PotEng   =     -3936.0526 E_bond   =         1.6622 E_angle  =         1.6069 
E_dihed  =         0.0000 E_impro  =         0.0000 E_vdwl   =       729.8946 
E_coul   =     14977.2853 E_long   =    -19646.5016 Press    =       293.4498 
Volume   =     10896.8323 
SHAKE stats (type/ave/delta) on step 45000
  3 0.999961 8.08727e-06
  4 109.47 0.0006673
---------------- Step    45000 ----- CPU =    124.0923 (sec) ----------------
TotEng   =     -3277.7954 KinEng   =       698.6080 Temp     =       321.9348 
PotEng   =     -3976.4034 E_bond   =         1.5372 E_angle  =         3.6368 
E_dihed  =         0.0000 E_impro  =         0.0000 E_vdwl   =       787.4451 
E_coul   =     14881.2894 E_long   =    -19650.3119 Press    =      1071.8354 
Volume   =     10805.7229 
SHAKE stats (type/ave/delta) on step 46000
  3 0.999857 4.50142e-06
  4 109.47 0.00039853
---------------- Step    46000 ----- CPU =    126.9986 (sec) ----------------
TotEng   =     -3359.0996 KinEng   =       647.0639 Temp     =       298.1820 
PotEng   =     -4006.1634 E_bond   =         0.2772 E_angle  =         3.1468 
E_dihed  =         0.0000 E_impro  =         0.0000 E_vdwl   =       760.4289 
E_coul   =     14881.9000 E_long   =    -19651.9163 Press    =       619.4437 
Volume   =     10558.6068 
SHAKE stats (type/ave/delta) on step 47000
  3 0.999963 9.66719e-06
  4 109.47 0.000757561
---------------- Step    47000 ----- CPU =    129.8873 (sec) ----------------
TotEng   =     -3356.1999 KinEng   =       673.7485 Temp     =       310.4789 
PotEng   =     -4029.9484 E_bond   =         0.8089 E_angle  =         2.6166 
E_dihed  =         0.0000 E_impro  =         0.0000 E_vdwl   =       748.3485 
E_coul   =     14867.9580 E_long   =    -19649.6804 Press    =      -139.4333 
Volume   =     10855.1310 
SHAKE stats (type/ave/delta) on step 48000
  3 1.00004 7.60562e-06
  4 109.47 0.000977303
---------------- Step    48000 ----- CPU =    132.7770 (sec) ----------------
TotEng   =     -3396.2579 KinEng   =       641.2077 Temp     =       295.4834 
PotEng   =     -4037.4657 E_bond   =         1.5940 E_angle  =         2.2474 
E_dihed  =         0.0000 E_impro  =         0.0000 E_vdwl   =       782.8342 
E_coul   =     14825.3177 E_long   =    -19649.4589 Press    =       553.2234 
Volume   =     10775.0991 
SHAKE stats (type/ave/delta) on step 49000
  3 1.0001 4.62883e-06
  4 109.47 0.000404548
---------------- Step    49000 ----- CPU =    135.6261 (sec) ----------------
TotEng   =     -3319.9440 KinEng   =       676.0356 Temp     =       311.5329 
PotEng   =     -3995.9796 E_bond   =         1.0519 E_angle  =         0.6918 
E_dihed  =         0.0000 E_impro  =         0.0000 E_vdwl   =       757.7768 
E_coul   =     14894.8110 E_long   =    -19650.3110 Press    =       387.9636 
Volume   =     10921.0360 
SHAKE stats (type/ave/delta) on step 50000
  3 1.00001 6.17783e-06
  4 109.47 0.000586344
---------------- Step    50000 ----- CPU =    138.4711 (sec) ----------------
TotEng   =     -3435.9184 KinEng   =       633.9353 Temp     =       292.1321 
PotEng   =     -4069.8537 E_bond   =         1.8374 E_angle  =         1.7123 
E_dihed  =         0.0000 E_impro  =         0.0000 E_vdwl   =       761.5216 
E_coul   =     14813.0859 E_long   =    -19648.0109 Press    =      -579.3180 
Volume   =     10764.6909 
SHAKE stats (type/ave/delta) on step 51000
  3 0.999977 7.92438e-06
  4 109.47 0.000808251
---------------- Step    51000 ----- CPU =    141.3574 (sec) ----------------
TotEng   =     -3413.8915 KinEng   =       645.5097 Temp     =       297.4658 
PotEng   =     -4059.4013 E_bond   =         2.6563 E_angle  =         2.0352 
E_dihed  =         0.0000 E_impro  =         0.0000 E_vdwl   =       835.8212 
E_coul   =     14750.5410 E_long   =    -19650.4550 Press    =      1309.7353 
Volume   =     10760.7834 
SHAKE stats (type/ave/delta) on step 52000
  3 0.999867 6.05803e-06
  4 109.47 0.000486437
---------------- Step    52000 ----- CPU =    144.1738 (sec) ----------------
TotEng   =     -3334.4596 KinEng   =       679.3648 Temp     =       313.0671 
PotEng   =     -4013.8244 E_bond   =         1.2393 E_angle  =         1.3960 
E_dihed  =         0.0000 E_impro  =         0.0000 E_vdwl   =       751.7579 
E_coul   =     14879.7899 E_long   =    -19648.0074 Press    =      -501.4375 
Volume   =     11040.2653 
SHAKE stats (type/ave/delta) on step 53000
  3 0.99996 1.70716e-05
  4 109.47 0.00092046
---------------- Step    53000 ----- CPU =    147.0643 (sec) ----------------
TotEng   =     -3429.5493 KinEng   =       631.5624 Temp     =       291.0386 
PotEng   =     -4061.1117 E_bond   =         0.8827 E_angle  =         1.2080 
E_dihed  =         0.0000 E_impro  =         0.0000 E_vdwl   =       791.9728 
E_coul   =     14791.9882 E_long   =    -19647.1634 Press    =       321.4322 
Volume   =     10804.3359 
SHAKE stats (type/ave/delta) on step 54000
  3 1 4.07593e-06
  4 109.47 0.000355243
---------------- Step    54000 ----- CPU =    149.9829 (sec) ----------------
TotEng   =     -3386.6484 KinEng   =       670.2097 Temp     =       308.8482 
PotEng   =     -4056.8581 E_bond   =         0.8174 E_angle  =         1.7388 
E_dihed  =         0.0000 E_impro  =         0.0000 E_vdwl   =       757.5717 
E_coul   =     14834.4759 E_long   =    -19651.4618 Press    =      -297.6565 
Volume   =     10841.4686 
SHAKE stats (type/ave/delta) on step 55000
  3 1.00003 8.42934e-06
  4 109.47 0.000946109
---------------- Step    55000 ----- CPU =    152.8374 (sec) ----------------
TotEng   =     -3403.7826 KinEng   =       644.9823 Temp     =       297.2228 
PotEng   =     -4048.7649 E_bond   =         2.2307 E_angle  =         1.1697 
E_dihed  =         0.0000 E_impro  =         0.0000 E_vdwl   =       748.7216 
E_coul   =     14850.3193 E_long   =    -19651.2062 Press    =      -888.8877 
Volume   =     10990.1601 
SHAKE stats (type/ave/delta) on step 56000
  3 1.00006 7.79082e-06
  4 109.47 0.000707397
---------------- Step    56000 ----- CPU =    155.5640 (sec) ----------------
TotEng   =     -3359.9297 KinEng   =       640.9337 Temp     =       295.3571 
PotEng   =     -4000.8634 E_bond   =         1.7344 E_angle  =         1.1039 
E_dihed  =         0.0000 E_impro  =         0.0000 E_vdwl   =       735.4523 
E_coul   =     14910.7684 E_long   =    -19649.9225 Press    =      -151.1419 
Volume   =     10752.3379 
SHAKE stats (type/ave/delta) on step 57000
  3 0.999999 4.62584e-06
  4 109.47 0.000521351
---------------- Step    57000 ----- CPU =    158.2547 (sec) ----------------
TotEng   =     -3349.9479 KinEng   =       662.2341 Temp     =       305.1728 
PotEng   =     -4012.1820 E_bond   =         0.6810 E_angle  =         1.3930 
E_dihed  =         0.0000 E_impro  =         0.0000 E_vdwl   =       746.6681 
E_coul   =     14890.3943 E_long   =    -19651.3184 Press    =       171.5785 
Volume   =     10654.6972 
SHAKE stats (type/ave/delta) on step 58000
  3 1.00001 4.00894e-06
  4 109.47 0.000372555
---------------- Step    58000 ----- CPU =    160.9758 (sec) ----------------
TotEng   =     -3369.3870 KinEng   =       659.3551 Temp     =       303.8461 
PotEng   =     -4028.7421 E_bond   =         0.8622 E_angle  =         3.0042 
E_dihed  =         0.0000 E_impro  =         0.0000 E_vdwl   =       759.6605 
E_coul   =     14856.8401 E_long   =    -19649.1091 Press    =       130.7458 
Volume   =     10815.2697 
SHAKE stats (type/ave/delta) on step 59000
  3 1.00002 7.23853e-06
  4 109.47 0.000604372
---------------- Step    59000 ----- CPU =    163.7205 (sec) ----------------
TotEng   =     -3404.4082 KinEng   =       651.0588 Temp     =       300.0230 
PotEng   =     -4055.4670 E_bond   =         1.3665 E_angle  =         1.1830 
E_dihed  =         0.0000 E_impro  =         0.0000 E_vdwl   =       780.1164 
E_coul   =     14813.6376 E_long   =    -19651.7706 Press    =       127.5496 
Volume   =     10903.8337 
SHAKE stats (type/ave/delta) on step 60000
  3 0.999888 4.19915e-06
  4 109.47 0.000436824
---------------- Step    60000 ----- CPU =    166.4542 (sec) ----------------
TotEng   =     -3382.7876 KinEng   =       654.1730 Temp     =       301.4581 
PotEng   =     -4036.9606 E_bond   =         0.7051 E_angle  =         1.7830 
E_dihed  =         0.0000 E_impro  =         0.0000 E_vdwl   =       773.9978 
E_coul   =     14836.6317 E_long   =    -19650.0782 Press    =       292.1945 
Volume   =     10806.5576 
SHAKE stats (type/ave/delta) on step 61000
  3 0.999982 1.07484e-05
  4 109.47 0.000854094
---------------- Step    61000 ----- CPU =    169.2088 (sec) ----------------
TotEng   =     -3381.2498 KinEng   =       659.6010 Temp     =       303.9594 
PotEng   =     -4040.8508 E_bond   =         1.6513 E_angle  =         2.0573 
E_dihed  =         0.0000 E_impro  =         0.0000 E_vdwl   =       791.5623 
E_coul   =     14809.6704 E_long   =    -19645.7921 Press    =       377.0800 
Volume   =     10930.4487 
SHAKE stats (type/ave/delta) on step 62000
  3 1.00007 4.30047e-06
  4 109.47 0.00036361
---------------- Step    62000 ----- CPU =    171.9894 (sec) ----------------
TotEng   =     -3320.1601 KinEng   =       632.6943 Temp     =       291.5602 
PotEng   =     -3952.8544 E_bond   =         2.0962 E_angle  =         2.1903 
E_dihed  =         0.0000 E_impro  =         0.0000 E_vdwl   =       724.5979 
E_coul   =     14962.2498 E_long   =    -19643.9885 Press    =      -369.0402 
Volume   =     11103.6941 
SHAKE stats (type/ave/delta) on step 63000
  3 0.999918 9.83593e-06
  4 109.47 0.000932602
---------------- Step    63000 ----- CPU =    174.7336 (sec) ----------------
TotEng   =     -3337.4269 KinEng   =       650.4637 Temp     =       299.7488 
PotEng   =     -3987.8907 E_bond   =         1.2610 E_angle  =         2.6496 
E_dihed  =         0.0000 E_impro  =         0.0000 E_vdwl   =       820.1966 
E_coul   =     14837.1748 E_long   =    -19649.1727 Press    =      1658.5461 
Volume   =     10722.6517 
SHAKE stats (type/ave/delta) on step 64000
  3 0.99999 7.74085e-06
  4 109.47 0.000768463
---------------- Step    64000 ----- CPU =    177.5173 (sec) ----------------
TotEng   =     -3358.6724 KinEng   =       705.1228 Temp     =       324.9369 
PotEng   =     -4063.7952 E_bond   =         1.3879 E_angle  =         2.8676 
E_dihed  =         0.0000 E_impro  =         0.0000 E_vdwl   =       771.9038 
E_coul   =     14809.0216 E_long   =    -19648.9761 Press    =       406.7476 
Volume   =     10616.5291 
SHAKE stats (type/ave/delta) on step 65000
  3 0.999948 6.89366e-06
  4 109.47 0.000789255
---------------- Step    65000 ----- CPU =    180.2964 (sec) ----------------
TotEng   =     -3391.0488 KinEng   =       627.7760 Temp     =       289.2937 
PotEng   =     -4018.8248 E_bond   =         1.3366 E_angle  =         2.9929 
E_dihed  =         0.0000 E_impro  =         0.0000 E_vdwl   =       730.0671 
E_coul   =     14898.1784 E_long   =    -19651.3998 Press    =      -258.0552 
Volume   =     10850.6808 
SHAKE stats (type/ave/delta) on step 66000
  3 0.999956 6.3685e-06
  4 109.47 0.000606102
---------------- Step    66000 ----- CPU =    183.0500 (sec) ----------------
TotEng   =     -3383.0999 KinEng   =       679.8995 Temp     =       313.3135 
PotEng   =     -4062.9994 E_bond   =         0.3633 E_angle  =         2.6342 
E_dihed  =         0.0000 E_impro  =         0.0000 E_vdwl   =       735.0725 
E_coul   =     14846.7785 E_long   =    -19647.8479 Press    =     -1005.8343 
Volume   =     10972.3527 
SHAKE stats (type/ave/delta) on step 67000
  3 1.00017 6.57787e-06
  4 109.47 0.000613258
---------------- Step    67000 ----- CPU =    185.8954 (sec) ----------------
TotEng   =     -3353.8947 KinEng   =       658.2153 Temp     =       303.3209 
PotEng   =     -4012.1100 E_bond   =         2.6712 E_angle  =         3.1294 
E_dihed  =         0.0000 E_impro  =         0.0000 E_vdwl   =       796.7957 
E_coul   =     14833.1073 E_long   =    -19647.8137 Press    =       545.8774 
Volume   =     10989.0101 
SHAKE stats (type/ave/delta) on step 68000
  3 1.00001 4.514e-06
  4 109.47 0.000359488
---------------- Step    68000 ----- CPU =    188.6798 (sec) ----------------
TotEng   =     -3350.8984 KinEng   =       639.4627 Temp     =       294.6793 
PotEng   =     -3990.3612 E_bond   =         2.8544 E_angle  =         1.7903 
E_dihed  =         0.0000 E_impro  =         0.0000 E_vdwl   =       751.8208 
E_coul   =     14901.2511 E_long   =    -19648.0777 Press    =       -83.8077 
Volume   =     10893.5459 
SHAKE stats (type/ave/delta) on step 69000
  3 1.00002 1.12917e-05
  4 109.47 0.000705476
---------------- Step    69000 ----- CPU =    191.4314 (sec) ----------------
TotEng   =     -3246.2647 KinEng   =       702.6268 Temp     =       323.7867 
PotEng   =     -3948.8915 E_bond   =         1.6825 E_angle  =         4.0544 
E_dihed  =         0.0000 E_impro  =         0.0000 E_vdwl   =       730.3689 
E_coul   =     14963.7093 E_long   =    -19648.7066 Press    =      -400.8890 
Volume   =     11083.5460 
SHAKE stats (type/ave/delta) on step 70000
  3 1.00003 9.35205e-06
  4 109.47 0.000707895
---------------- Step    70000 ----- CPU =    194.1885 (sec) ----------------
TotEng   =     -3386.7428 KinEng   =       631.9511 Temp     =       291.2177 
PotEng   =     -4018.6938 E_bond   =         1.5313 E_angle  =         1.0243 
E_dihed  =         0.0000 E_impro  =         0.0000 E_vdwl   =       672.9092 
E_coul   =     14957.9149 E_long   =    -19652.0736 Press    =     -1789.2683 
Volume   =     10902.9677 
SHAKE stats (type/ave/delta) on step 71000
  3 0.999971 5.55138e-06
  4 109.47 0.000561395
---------------- Step    71000 ----- CPU =    196.9283 (sec) ----------------
TotEng   =     -3336.4513 KinEng   =       632.9846 Temp     =       291.6940 
PotEng   =     -3969.4359 E_bond   =         3.2303 E_angle  =         2.3894 
E_dihed  =         0.0000 E_impro  =         0.0000 E_vdwl   =       736.7047 
E_coul   =     14936.6202 E_long   =    -19648.3805 Press    =      -156.3203 
Volume   =     10973.3467 
SHAKE stats (type/ave/delta) on step 72000
  3 0.9999 3.7283e-06
  4 109.47 0.000368366
---------------- Step    72000 ----- CPU =    199.5996 (sec) ----------------
TotEng   =     -3296.3727 KinEng   =       667.4197 Temp     =       307.5625 
PotEng   =     -3963.7924 E_bond   =         1.9499 E_angle  =         3.0013 
E_dihed  =         0.0000 E_impro  =         0.0000 E_vdwl   =       757.0168 
E_coul   =     14924.1918 E_long   =    -19649.9521 Press    =       430.9302 
Volume   =     10842.6963 
SHAKE stats (type/ave/delta) on step 73000
  3 1.00004 5.9219e-06
  4 109.47 0.000518428
---------------- Step    73000 ----- CPU =    202.3277 (sec) ----------------
TotEng   =     -3337.1473 KinEng   =       641.4126 Temp     =       295.5778 
PotEng   =     -3978.5599 E_bond   =         1.5541 E_angle  =         3.1952 
E_dihed  =         0.0000 E_impro  =         0.0000 E_vdwl   =       765.9325 
E_coul   =     14897.6700 E_long   =    -19646.9117 Press    =       444.6736 
Volume   =     10777.6221 
SHAKE stats (type/ave/delta) on step 74000
  3 0.999985 3.82509e-06
  4 109.47 0.000370819
---------------- Step    74000 ----- CPU =    205.0699 (sec) ----------------
TotEng   =     -3309.3549 KinEng   =       648.8001 Temp     =       298.9821 
PotEng   =     -3958.1550 E_bond   =         4.7925 E_angle  =         1.3190 
E_dihed  =         0.0000 E_impro  =         0.0000 E_vdwl   =       730.6233 
E_coul   =     14954.6990 E_long   =    -19649.5888 Press    =      -139.4960 
Volume   =     10853.9607 
SHAKE stats (type/ave/delta) on step 75000
  3 0.999992 6.67303e-06
  4 109.47 0.000506785
---------------- Step    75000 ----- CPU =    207.8355 (sec) ----------------
TotEng   =     -3341.7735 KinEng   =       644.8015 Temp     =       297.1395 
PotEng   =     -3986.5750 E_bond   =         0.3758 E_angle  =         4.5230 
E_dihed  =         0.0000 E_impro  =         0.0000 E_vdwl   =       723.7155 
E_coul   =     14935.4853 E_long   =    -19650.6746 Press    =      -519.4890 
Volume   =     10928.7043 
SHAKE stats (type/ave/delta) on step 76000
  3 0.999933 4.77188e-06
  4 109.47 0.000479001
---------------- Step    76000 ----- CPU =    210.5895 (sec) ----------------
TotEng   =     -3354.5284 KinEng   =       631.2817 Temp     =       290.9092 
PotEng   =     -3985.8101 E_bond   =         3.5677 E_angle  =         2.2053 
E_dihed  =         0.0000 E_impro  =         0.0000 E_vdwl   =       707.2347 
E_coul   =     14948.4421 E_long   =    -19647.2600 Press    =      -680.0358 
Volume   =     10874.1492 
SHAKE stats (type/ave/delta) on step 77000
  3 1.00004 4.14106e-06
  4 109.47 0.00036022
---------------- Step    77000 ----- CPU =    213.3196 (sec) ----------------
TotEng   =     -3412.7564 KinEng   =       640.9659 Temp     =       295.3719 
PotEng   =     -4053.7223 E_bond   =         3.7378 E_angle  =         2.6335 
E_dihed  =         0.0000 E_impro  =         0.0000 E_vdwl   =       788.3268 
E_coul   =     14802.2239 E_long   =    -19650.6442 Press    =       277.2008 
Volume   =     10848.5689 
SHAKE stats (type/ave/delta) on step 78000
  3 0.999879 8.79255e-06
  4 109.47 0.000854441
---------------- Step    78000 ----- CPU =    216.2703 (sec) ----------------
TotEng   =     -3347.5528 KinEng   =       653.3922 Temp     =       301.0983 
PotEng   =     -4000.9450 E_bond   =         2.9820 E_angle  =         3.0379 
E_dihed  =         0.0000 E_impro  =         0.0000 E_vdwl   =       756.0105 
E_coul   =     14887.6877 E_long   =    -19650.6631 Press    =         7.4381 
Volume   =     10897.5476 
SHAKE stats (type/ave/delta) on step 79000
  3 0.999962 1.13109e-05
  4 109.47 0.000860452
---------------- Step    79000 ----- CPU =    219.1716 (sec) ----------------
TotEng   =     -3375.5592 KinEng   =       662.2232 Temp     =       305.1678 
PotEng   =     -4037.7824 E_bond   =         3.4385 E_angle  =         4.1121 
E_dihed  =         0.0000 E_impro  =         0.0000 E_vdwl   =       751.9480 
E_coul   =     14854.6416 E_long   =    -19651.9226 Press    =      -485.3622 
Volume   =     10912.8079 
SHAKE stats (type/ave/delta) on step 80000
  3 1.00004 6.00974e-06
  4 109.47 0.000491283
---------------- Step    80000 ----- CPU =    222.0568 (sec) ----------------
TotEng   =     -3376.0841 KinEng   =       635.4011 Temp     =       292.8075 
PotEng   =     -4011.4852 E_bond   =         1.3102 E_angle  =         5.5890 
E_dihed  =         0.0000 E_impro  =         0.0000 E_vdwl   =       763.4135 
E_coul   =     14867.0604 E_long   =    -19648.8583 Press    =      -244.3461 
Volume   =     10966.3639 
SHAKE stats (type/ave/delta) on step 81000
  3 1.00003 1.04864e-05
  4 109.47 0.00169411
---------------- Step    81000 ----- CPU =    224.9339 (sec) ----------------
TotEng   =     -3370.2976 KinEng   =       635.6023 Temp     =       292.9003 
PotEng   =     -4005.8999 E_bond   =         2.2819 E_angle  =         3.2535 
E_dihed  =         0.0000 E_impro  =         0.0000 E_vdwl   =       725.2046 
E_coul   =     14912.1910 E_long   =    -19648.8309 Press    =      -782.4998 
Volume   =     10989.4040 
SHAKE stats (type/ave/delta) on step 82000
  3 1.00007 5.59784e-06
  4 109.47 0.00061806
---------------- Step    82000 ----- CPU =    227.7844 (sec) ----------------
TotEng   =     -3357.3846 KinEng   =       643.1764 Temp     =       296.3906 
PotEng   =     -4000.5610 E_bond   =         2.6728 E_angle  =         4.2017 
E_dihed  =         0.0000 E_impro  =         0.0000 E_vdwl   =       747.4782 
E_coul   =     14895.1308 E_long   =    -19650.0446 Press    =       215.5723 
Volume   =     10711.2604 
SHAKE stats (type/ave/delta) on step 83000
  3 1.00008 5.36005e-06
  4 109.47 0.000539734
---------------- Step    83000 ----- CPU =    230.6684 (sec) ----------------
TotEng   =     -3363.1649 KinEng   =       654.9900 Temp     =       301.8346 
PotEng   =     -4018.1549 E_bond   =         1.5317 E_angle  =         2.0934 
E_dihed  =         0.0000 E_impro  =         0.0000 E_vdwl   =       802.1742 
E_coul   =     14822.7172 E_long   =    -19646.6714 Press    =      1193.3694 
Volume   =     10737.6474 
SHAKE stats (type/ave/delta) on step 84000
  3 0.999984 4.9772e-06
  4 109.47 0.000355905
---------------- Step    84000 ----- CPU =    233.5588 (sec) ----------------
TotEng   =     -3336.6346 KinEng   =       689.1313 Temp     =       317.5677 
PotEng   =     -4025.7659 E_bond   =         3.3958 E_angle  =         2.5252 
E_dihed  =         0.0000 E_impro  =         0.0000 E_vdwl   =       710.4602 
E_coul   =     14907.4221 E_long   =    -19649.5692 Press    =      -682.5146 
Volume   =     10850.9115 
SHAKE stats (type/ave/delta) on step 85000
  3 0.999985 3.82342e-06
  4 109.47 0.000342875
---------------- Step    85000 ----- CPU =    236.4664 (sec) ----------------
TotEng   =     -3411.3666 KinEng   =       613.7830 Temp     =       282.8454 
PotEng   =     -4025.1496 E_bond   =         1.1502 E_angle  =         3.6505 
E_dihed  =         0.0000 E_impro  =         0.0000 E_vdwl   =       717.3579 
E_coul   =     14903.4636 E_long   =    -19650.7719 Press    =      -815.6388 
Volume   =     10762.5431 
SHAKE stats (type/ave/delta) on step 86000
  3 0.999955 4.74437e-06
  4 109.47 0.000382532
---------------- Step    86000 ----- CPU =    239.4076 (sec) ----------------
TotEng   =     -3282.5722 KinEng   =       691.1919 Temp     =       318.5172 
PotEng   =     -3973.7641 E_bond   =         2.1555 E_angle  =         3.7664 
E_dihed  =         0.0000 E_impro  =         0.0000 E_vdwl   =       746.9124 
E_coul   =     14922.8825 E_long   =    -19649.4810 Press    =        54.9749 
Volume   =     10985.3709 
SHAKE stats (type/ave/delta) on step 87000
  3 0.999923 6.15209e-06
  4 109.47 0.00055769
---------------- Step    87000 ----- CPU =    242.3708 (sec) ----------------
TotEng   =     -3416.3129 KinEng   =       613.7221 Temp     =       282.8174 
PotEng   =     -4030.0350 E_bond   =         1.5398 E_angle  =         1.1978 
E_dihed  =         0.0000 E_impro  =         0.0000 E_vdwl   =       750.7162 
E_coul   =     14865.7806 E_long   =    -19649.2695 Press    =      -521.9586 
Volume   =     11000.4820 
SHAKE stats (type/ave/delta) on step 88000
  3 0.99999 1.22992e-05
  4 109.47 0.000671977
---------------- Step    88000 ----- CPU =    245.3352 (sec) ----------------
TotEng   =     -3331.2454 KinEng   =       645.1320 Temp     =       297.2918 
PotEng   =     -3976.3774 E_bond   =         2.9724 E_angle  =         2.4561 
E_dihed  =         0.0000 E_impro  =         0.0000 E_vdwl   =       749.2275 
E_coul   =     14918.2759 E_long   =    -19649.3092 Press    =       164.9132 
Volume   =     10807.6113 
SHAKE stats (type/ave/delta) on step 89000
  3 1.00005 1.2006e-05
  4 109.47 0.00101567
---------------- Step    89000 ----- CPU =    248.3460 (sec) ----------------
TotEng   =     -3387.5429 KinEng   =       639.3059 Temp     =       294.6070 
PotEng   =     -4026.8488 E_bond   =         3.6060 E_angle  =         2.4392 
E_dihed  =         0.0000 E_impro  =         0.0000 E_vdwl   =       738.4628 
E_coul   =     14878.7285 E_long   =    -19650.0853 Press    =      -421.6422 
Volume   =     10938.8491 
SHAKE stats (type/ave/delta) on step 90000
  3 0.999905 9.94658e-06
  4 109.47 0.00104416
---------------- Step    90000 ----- CPU =    251.4640 (sec) ----------------
TotEng   =     -3364.1194 KinEng   =       647.8038 Temp     =       298.5230 
PotEng   =     -4011.9232 E_bond   =         2.7988 E_angle  =         3.6832 
E_dihed  =         0.0000 E_impro  =         0.0000 E_vdwl   =       755.0797 
E_coul   =     14874.0736 E_long   =    -19647.5585 Press    =      -397.4327 
Volume   =     10944.2586 
SHAKE stats (type/ave/delta) on step 91000
  3 1.00007 4.31492e-06
  4 109.47 0.000374909
---------------- Step    91000 ----- CPU =    254.5535 (sec) ----------------
TotEng   =     -3330.5678 KinEng   =       662.4875 Temp     =       305.2896 
PotEng   =     -3993.0552 E_bond   =         1.5080 E_angle  =         4.8229 
E_dihed  =         0.0000 E_impro  =         0.0000 E_vdwl   =       771.9075 
E_coul   =     14875.9409 E_long   =    -19647.2346 Press    =       684.4127 
Volume   =     10858.6593 
SHAKE stats (type/ave/delta) on step 92000
  3 1.00003 9.04154e-06
  4 109.47 0.000707036
---------------- Step    92000 ----- CPU =    257.4905 (sec) ----------------
TotEng   =     -3380.4738 KinEng   =       633.0359 Temp     =       291.7176 
PotEng   =     -4013.5097 E_bond   =         3.1039 E_angle  =         2.3540 
E_dihed  =         0.0000 E_impro  =         0.0000 E_vdwl   =       725.6402 
E_coul   =     14905.4406 E_long   =    -19650.0484 Press    =      -542.0944 
Volume   =     10749.8900 
SHAKE stats (type/ave/delta) on step 93000
  3 1.00002 9.40362e-06
  4 109.47 0.000686355
---------------- Step    93000 ----- CPU =    260.5460 (sec) ----------------
TotEng   =     -3360.2516 KinEng   =       657.9073 Temp     =       303.1789 
PotEng   =     -4018.1589 E_bond   =         3.0310 E_angle  =         2.6817 
E_dihed  =         0.0000 E_impro  =         0.0000 E_vdwl   =       759.1445 
E_coul   =     14870.6026 E_long   =    -19653.6188 Press    =       162.0146 
Volume   =     10894.0725 
SHAKE stats (type/ave/delta) on step 94000
  3 1.00004 5.80928e-06
  4 109.47 0.00048295
---------------- Step    94000 ----- CPU =    263.4782 (sec) ----------------
TotEng   =     -3352.6329 KinEng   =       643.4160 Temp     =       296.5010 
PotEng   =     -3996.0489 E_bond   =         1.9616 E_angle  =         2.5210 
E_dihed  =         0.0000 E_impro  =         0.0000 E_vdwl   =       818.2916 
E_coul   =     14830.2524 E_long   =    -19649.0756 Press    =      1144.4590 
Volume   =     10949.2710 
SHAKE stats (type/ave/delta) on step 95000
  3 1 4.09883e-06
  4 109.47 0.000384042
---------------- Step    95000 ----- CPU =    266.3402 (sec) ----------------
TotEng   =     -3314.8833 KinEng   =       647.1200 Temp     =       298.2079 
PotEng   =     -3962.0033 E_bond   =         1.9567 E_angle  =         4.5405 
E_dihed  =         0.0000 E_impro  =         0.0000 E_vdwl   =       699.9078 
E_coul   =     14982.3274 E_long   =    -19650.7357 Press    =      -667.8640 
Volume   =     10975.1492 
SHAKE stats (type/ave/delta) on step 96000
  3 0.999919 6.39585e-06
  4 109.47 0.000572493
---------------- Step    96000 ----- CPU =    269.3079 (sec) ----------------
TotEng   =     -3357.9377 KinEng   =       661.6580 Temp     =       304.9074 
PotEng   =     -4019.5957 E_bond   =         2.9241 E_angle  =         2.8534 
E_dihed  =         0.0000 E_impro  =         0.0000 E_vdwl   =       777.5802 
E_coul   =     14846.0837 E_long   =    -19649.0371 Press    =       603.2871 
Volume   =     10718.9435 
SHAKE stats (type/ave/delta) on step 97000
  3 0.99997 6.59077e-06
  4 109.47 0.000506784
---------------- Step    97000 ----- CPU =    272.2561 (sec) ----------------
TotEng   =     -3412.0397 KinEng   =       647.9118 Temp     =       298.5728 
PotEng   =     -4059.9515 E_bond   =         1.2696 E_angle  =         3.0585 
E_dihed  =         0.0000 E_impro  =         0.0000 E_vdwl   =       712.0651 
E_coul   =     14875.7264 E_long   =    -19652.0711 Press    =     -1219.7350 
Volume   =     10776.1918 
SHAKE stats (type/ave/delta) on step 98000
  3 0.999974 5.19579e-06
  4 109.47 0.000518367
---------------- Step    98000 ----- CPU =    275.2128 (sec) ----------------
TotEng   =     -3337.5021 KinEng   =       687.0503 Temp     =       316.6087 
PotEng   =     -4024.5524 E_bond   =         1.0996 E_angle  =         4.3927 
E_dihed  =         0.0000 E_impro  =         0.0000 E_vdwl   =       737.7279 
E_coul   =     14878.0550 E_long   =    -19645.8276 Press    =        73.3589 
Volume   =     10676.8273 
SHAKE stats (type/ave/delta) on step 99000
  3 1.00003 6.32491e-06
  4 109.47 0.00063563
---------------- Step    99000 ----- CPU =    278.2059 (sec) ----------------
TotEng   =     -3328.0146 KinEng   =       649.9026 Temp     =       299.4902 
PotEng   =     -3977.9172 E_bond   =         2.0342 E_angle  =         3.1477 
E_dihed  =         0.0000 E_impro  =         0.0000 E_vdwl   =       742.0845 
E_coul   =     14922.6968 E_long   =    -19647.8804 Press    =      -539.3975 
Volume   =     11096.8854 
SHAKE stats (type/ave/delta) on step 100000
  3 1 9.75298e-06
  4 109.47 0.000815577
---------------- Step   100000 ----- CPU =    281.0617 (sec) ----------------
TotEng   =     -3372.9657 KinEng   =       640.7649 Temp     =       295.2793 
PotEng   =     -4013.7306 E_bond   =         1.9901 E_angle  =         1.4999 
E_dihed  =         0.0000 E_impro  =         0.0000 E_vdwl   =       778.6520 
E_coul   =     14854.1126 E_long   =    -19649.9852 Press    =       652.5221 
Volume   =     10762.5477 
SHAKE stats (type/ave/delta) on step 101000
  3 0.999957 9.4617e-06
  4 109.47 0.000826798
---------------- Step   101000 ----- CPU =    283.8633 (sec) ----------------
TotEng   =     -3428.8050 KinEng   =       646.8846 Temp     =       298.0994 
PotEng   =     -4075.6896 E_bond   =         2.0604 E_angle  =         1.0113 
E_dihed  =         0.0000 E_impro  =         0.0000 E_vdwl   =       787.2442 
E_coul   =     14780.8208 E_long   =    -19646.8263 Press    =       231.2274 
Volume   =     10791.2945 
SHAKE stats (type/ave/delta) on step 102000
  3 0.999975 8.10774e-06
  4 109.47 0.000620957
---------------- Step   102000 ----- CPU =    286.7278 (sec) ----------------
TotEng   =     -3376.2437 KinEng   =       648.1526 Temp     =       298.6837 
PotEng   =     -4024.3964 E_bond   =         1.8760 E_angle  =         3.3919 
E_dihed  =         0.0000 E_impro  =         0.0000 E_vdwl   =       729.1823 
E_coul   =     14890.4418 E_long   =    -19649.2884 Press    =      -657.4331 
Volume   =     10968.6098 
SHAKE stats (type/ave/delta) on step 103000
  3 1.00003 7.10198e-06
  4 109.47 0.000681074
---------------- Step   103000 ----- CPU =    289.5867 (sec) ----------------
TotEng   =     -3325.1214 KinEng   =       678.9594 Temp     =       312.8802 
PotEng   =     -4004.0808 E_bond   =         1.7797 E_angle  =         3.0403 
E_dihed  =         0.0000 E_impro  =         0.0000 E_vdwl   =       744.3388 
E_coul   =     14895.3586 E_long   =    -19648.5982 Press    =       156.7152 
Volume   =     10748.7610 
SHAKE stats (type/ave/delta) on step 104000
  3 1.00014 1.01374e-05
  4 109.47 0.000846056
---------------- Step   104000 ----- CPU =    292.4492 (sec) ----------------
TotEng   =     -3347.6427 KinEng   =       670.4071 Temp     =       308.9392 
PotEng   =     -4018.0499 E_bond   =         2.8129 E_angle  =         2.7450 
E_dihed  =         0.0000 E_impro  =         0.0000 E_vdwl   =       776.6453 
E_coul   =     14848.0800 E_long   =    -19648.3331 Press    =       603.9939 
Volume   =     10637.3459 
SHAKE stats (type/ave/delta) on step 105000
  3 0.999922 5.08099e-06
  4 109.47 0.000765992
---------------- Step   105000 ----- CPU =    295.2946 (sec) ----------------
TotEng   =     -3406.5541 KinEng   =       633.4420 Temp     =       291.9047 
PotEng   =     -4039.9961 E_bond   =         2.3626 E_angle  =         2.3578 
E_dihed  =         0.0000 E_impro  =         0.0000 E_vdwl   =       802.6806 
E_coul   =     14803.4188 E_long   =    -19650.8159 Press    =       731.7231 
Volume   =     10916.1667 
SHAKE stats (type/ave/delta) on step 106000
  3 1.00004 1.25529e-05
  4 109.47 0.00113512
---------------- Step   106000 ----- CPU =    298.1668 (sec) ----------------
TotEng   =     -3348.6269 KinEng   =       665.8581 Temp     =       306.8429 
PotEng   =     -4014.4851 E_bond   =         2.5254 E_angle  =         2.7949 
E_dihed  =         0.0000 E_impro  =         0.0000 E_vdwl   =       780.0030 
E_coul   =     14851.0461 E_long   =    -19650.8544 Press    =      1065.8139 
Volume   =     10433.3981 
SHAKE stats (type/ave/delta) on step 107000
  3 0.999986 5.12199e-06
  4 109.47 0.000498485
---------------- Step   107000 ----- CPU =    300.9961 (sec) ----------------
TotEng   =     -3296.0658 KinEng   =       655.5517 Temp     =       302.0934 
PotEng   =     -3951.6175 E_bond   =         1.9895 E_angle  =         3.8799 
E_dihed  =         0.0000 E_impro  =         0.0000 E_vdwl   =       735.4080 
E_coul   =     14953.9251 E_long   =    -19646.8200 Press    =       590.2177 
Volume   =     10782.1473 
SHAKE stats (type/ave/delta) on step 108000
  3 0.999919 3.81769e-06
  4 109.47 0.000350375
---------------- Step   108000 ----- CPU =    303.8893 (sec) ----------------
TotEng   =     -3339.0905 KinEng   =       636.8131 Temp     =       293.4582 
PotEng   =     -3975.9036 E_bond   =         2.6585 E_angle  =         2.1743 
E_dihed  =         0.0000 E_impro  =         0.0000 E_vdwl   =       750.8048 
E_coul   =     14917.1857 E_long   =    -19648.7268 Press    =       142.6356 
Volume   =     10700.2265 
SHAKE stats (type/ave/delta) on step 109000
  3 1.00006 7.36672e-06
  4 109.47 0.000720406
---------------- Step   109000 ----- CPU =    306.7383 (sec) ----------------
TotEng   =     -3354.7671 KinEng   =       645.3234 Temp     =       297.3800 
PotEng   =     -4000.0904 E_bond   =         1.7741 E_angle  =         1.3439 
E_dihed  =         0.0000 E_impro  =         0.0000 E_vdwl   =       786.0435 
E_coul   =     14860.5906 E_long   =    -19649.8426 Press    =      1033.0898 
Volume   =     10658.0672 
SHAKE stats (type/ave/delta) on step 110000
  3 1.00009 8.7851e-06
  4 109.47 0.000403342
---------------- Step   110000 ----- CPU =    309.5650 (sec) ----------------
TotEng   =     -3354.3889 KinEng   =       660.4018 Temp     =       304.3285 
PotEng   =     -4014.7907 E_bond   =         0.7675 E_angle  =         2.5278 
E_dihed  =         0.0000 E_impro  =         0.0000 E_vdwl   =       712.5768 
E_coul   =     14917.2851 E_long   =    -19647.9480 Press    =     -1029.1293 
Volume   =     10819.0167 
SHAKE stats (type/ave/delta) on step 111000
  3 1.00007 6.02659e-06
  4 109.47 0.000446882
---------------- Step   111000 ----- CPU =    312.5543 (sec) ----------------
TotEng   =     -3389.3768 KinEng   =       614.2951 Temp     =       283.0814 
PotEng   =     -4003.6719 E_bond   =         0.9468 E_angle  =         4.0070 
E_dihed  =         0.0000 E_impro  =         0.0000 E_vdwl   =       723.7441 
E_coul   =     14918.5610 E_long   =    -19650.9309 Press    =      -352.7793 
Volume   =     10735.6075 
SHAKE stats (type/ave/delta) on step 112000
  3 1.00002 7.13495e-06
  4 109.47 0.000657047
---------------- Step   112000 ----- CPU =    315.4121 (sec) ----------------
TotEng   =     -3335.8125 KinEng   =       650.3959 Temp     =       299.7175 
PotEng   =     -3986.2083 E_bond   =         1.2843 E_angle  =         2.4963 
E_dihed  =         0.0000 E_impro  =         0.0000 E_vdwl   =       747.1745 
E_coul   =     14908.6166 E_long   =    -19645.7800 Press    =       354.8442 
Volume   =     10742.8070 
SHAKE stats (type/ave/delta) on step 113000
  3 0.999895 3.58812e-06
  4 109.47 0.000392844
---------------- Step   113000 ----- CPU =    318.2444 (sec) ----------------
TotEng   =     -3351.5024 KinEng   =       667.7221 Temp     =       307.7018 
PotEng   =     -4019.2245 E_bond   =         2.3475 E_angle  =         2.1195 
E_dihed  =         0.0000 E_impro  =         0.0000 E_vdwl   =       723.7820 
E_coul   =     14903.5519 E_long   =    -19651.0254 Press    =     -1002.1213 
Volume   =     11011.3678 
SHAKE stats (type/ave/delta) on step 114000
  3 0.999968 4.11216e-06
  4 109.47 0.000358887
---------------- Step   114000 ----- CPU =    321.0509 (sec) ----------------
TotEng   =     -3287.5283 KinEng   =       670.4867 Temp     =       308.9758 
PotEng   =     -3958.0150 E_bond   =         1.8651 E_angle  =         2.8354 
E_dihed  =         0.0000 E_impro  =         0.0000 E_vdwl   =       758.7148 
E_coul   =     14927.3977 E_long   =    -19648.8280 Press    =       797.5779 
Volume   =     10680.0542 
SHAKE stats (type/ave/delta) on step 115000
  3 1.00008 4.89044e-06
  4 109.47 0.000416198
---------------- Step   115000 ----- CPU =    323.9390 (sec) ----------------
TotEng   =     -3379.3831 KinEng   =       663.0737 Temp     =       305.5597 
PotEng   =     -4042.4568 E_bond   =         2.0928 E_angle  =         2.0543 
E_dihed  =         0.0000 E_impro  =         0.0000 E_vdwl   =       763.2600 
E_coul   =     14843.0433 E_long   =    -19652.9073 Press    =      -109.5606 
Volume   =     10813.7567 
SHAKE stats (type/ave/delta) on step 116000
  3 0.999949 6.67338e-06
  4 109.47 0.000442962
---------------- Step   116000 ----- CPU =    326.7976 (sec) ----------------
TotEng   =     -3408.5080 KinEng   =       623.1313 Temp     =       287.1533 
PotEng   =     -4031.6393 E_bond   =         3.0068 E_angle  =         2.1078 
E_dihed  =         0.0000 E_impro  =         0.0000 E_vdwl   =       767.4326 
E_coul   =     14845.7238 E_long   =    -19649.9104 Press    =       -51.3049 
Volume   =     10937.1065 
SHAKE stats (type/ave/delta) on step 117000
  3 0.999984 9.78676e-06
  4 109.47 0.000761257
---------------- Step   117000 ----- CPU =    329.7154 (sec) ----------------
TotEng   =     -3283.5473 KinEng   =       661.3339 Temp     =       304.7580 
PotEng   =     -3944.8812 E_bond   =         2.1367 E_angle  =         3.0330 
E_dihed  =         0.0000 E_impro  =         0.0000 E_vdwl   =       687.8745 
E_coul   =     15010.0507 E_long   =    -19647.9762 Press    =      -933.9449 
Volume   =     10854.3014 
SHAKE stats (type/ave/delta) on step 118000
  3 1.00002 1.08563e-05
  4 109.47 0.000821757
---------------- Step   118000 ----- CPU =    332.5940 (sec) ----------------
TotEng   =     -3296.2547 KinEng   =       652.3693 Temp     =       300.6269 
PotEng   =     -3948.6240 E_bond   =         1.8071 E_angle  =         2.1744 
E_dihed  =         0.0000 E_impro  =         0.0000 E_vdwl   =       749.1554 
E_coul   =     14946.1368 E_long   =    -19647.8977 Press    =       488.5647 
Volume   =     10917.2500 
SHAKE stats (type/ave/delta) on step 119000
  3 1.00011 9.19604e-06
  4 109.47 0.00104005
---------------- Step   119000 ----- CPU =    335.4722 (sec) ----------------
TotEng   =     -3315.2194 KinEng   =       669.8728 Temp     =       308.6929 
PotEng   =     -3985.0922 E_bond   =         3.3797 E_angle  =         3.1031 
E_dihed  =         0.0000 E_impro  =         0.0000 E_vdwl   =       768.1216 
E_coul   =     14889.9364 E_long   =    -19649.6330 Press    =       135.2995 
Volume   =     11099.6605 
SHAKE stats (type/ave/delta) on step 120000
  3 0.999958 1.31838e-05
  4 109.47 0.00075364
---------------- Step   120000 ----- CPU =    338.4511 (sec) ----------------
TotEng   =     -3402.1577 KinEng   =       642.9026 Temp     =       296.2644 
PotEng   =     -4045.0603 E_bond   =         1.9016 E_angle  =         4.4790 
E_dihed  =         0.0000 E_impro  =         0.0000 E_vdwl   =       770.4532 
E_coul   =     14827.6826 E_long   =    -19649.5768 Press    =       253.0993 
Volume   =     10684.7272 
SHAKE stats (type/ave/delta) on step 121000
  3 1.00002 1.31206e-05
  4 109.47 0.00156765
---------------- Step   121000 ----- CPU =    341.3753 (sec) ----------------
TotEng   =     -3358.2161 KinEng   =       661.4761 Temp     =       304.8235 
PotEng   =     -4019.6922 E_bond   =         2.0425 E_angle  =         4.0841 
E_dihed  =         0.0000 E_impro  =         0.0000 E_vdwl   =       759.1553 
E_coul   =     14863.1493 E_long   =    -19648.1234 Press    =       133.5763 
Volume   =     10752.8225 
SHAKE stats (type/ave/delta) on step 122000
  3 0.999976 1.39821e-05
  4 109.47 0.00146379
---------------- Step   122000 ----- CPU =    344.3216 (sec) ----------------
TotEng   =     -3412.2848 KinEng   =       630.4846 Temp     =       290.5419 
PotEng   =     -4042.7694 E_bond   =         1.6751 E_angle  =         3.0828 
E_dihed  =         0.0000 E_impro  =         0.0000 E_vdwl   =       807.1837 
E_coul   =     14796.2420 E_long   =    -19650.9529 Press    =      1362.4039 
Volume   =     10521.9255 
SHAKE stats (type/ave/delta) on step 123000
  3 1.00003 5.01466e-06
  4 109.47 0.000477134
---------------- Step   123000 ----- CPU =    347.4180 (sec) ----------------
TotEng   =     -3298.1104 KinEng   =       659.8172 Temp     =       304.0591 
PotEng   =     -3957.9276 E_bond   =         1.1142 E_angle  =         2.0119 
E_dihed  =         0.0000 E_impro  =         0.0000 E_vdwl   =       798.7336 
E_coul   =     14887.2972 E_long   =    -19647.0845 Press    =      1568.8728 
Volume   =     10710.7699 
SHAKE stats (type/ave/delta) on step 124000
  3 0.999967 3.97737e-06
  4 109.47 0.000389807
---------------- Step   124000 ----- CPU =    350.3575 (sec) ----------------
TotEng   =     -3380.9106 KinEng   =       655.9856 Temp     =       302.2934 
PotEng   =     -4036.8962 E_bond   =         0.9641 E_angle  =         3.1990 
E_dihed  =         0.0000 E_impro  =         0.0000 E_vdwl   =       774.2674 
E_coul   =     14834.6126 E_long   =    -19649.9393 Press    =        91.6377 
Volume   =     10838.4261 
SHAKE stats (type/ave/delta) on step 125000
  3 1.00009 5.42587e-06
  4 109.47 0.000636644
---------------- Step   125000 ----- CPU =    353.2977 (sec) ----------------
TotEng   =     -3310.5518 KinEng   =       668.0750 Temp     =       307.8644 
PotEng   =     -3978.6268 E_bond   =         1.1085 E_angle  =         2.0047 
E_dihed  =         0.0000 E_impro  =         0.0000 E_vdwl   =       764.6991 
E_coul   =     14903.3071 E_long   =    -19649.7462 Press    =       921.0017 
Volume   =     10610.5443 
SHAKE stats (type/ave/delta) on step 126000
  3 0.99995 7.29462e-06
  4 109.47 0.000745187
---------------- Step   126000 ----- CPU =    356.1143 (sec) ----------------
TotEng   =     -3336.2063 KinEng   =       665.9103 Temp     =       306.8669 
PotEng   =     -4002.1165 E_bond   =         2.0266 E_angle  =         2.9695 
E_dihed  =         0.0000 E_impro  =         0.0000 E_vdwl   =       735.2295 
E_coul   =     14907.1441 E_long   =    -19649.4863 Press    =      -163.9683 
Volume   =     10951.0163 
SHAKE stats (type/ave/delta) on step 127000
  3 1.00007 4.30718e-06
  4 109.47 0.000404014
---------------- Step   127000 ----- CPU =    358.8681 (sec) ----------------
TotEng   =     -3311.0276 KinEng   =       691.2990 Temp     =       318.5666 
PotEng   =     -4002.3266 E_bond   =         2.8244 E_angle  =         2.9947 
E_dihed  =         0.0000 E_impro  =         0.0000 E_vdwl   =       773.5884 
E_coul   =     14866.7273 E_long   =    -19648.4614 Press    =       662.3098 
Volume   =     10807.4695 
SHAKE stats (type/ave/delta) on step 128000
  3 0.999982 7.13464e-06
  4 109.47 0.000597511
---------------- Step   128000 ----- CPU =    361.7496 (sec) ----------------
TotEng   =     -3352.7710 KinEng   =       644.6757 Temp     =       297.0815 
PotEng   =     -3997.4468 E_bond   =         2.2142 E_angle  =         2.2022 
E_dihed  =         0.0000 E_impro  =         0.0000 E_vdwl   =       764.0954 
E_coul   =     14882.7711 E_long   =    -19648.7296 Press    =       363.9664 
Volume   =     10888.0054 
SHAKE stats (type/ave/delta) on step 129000
  3 0.99993 4.0985e-06
  4 109.47 0.000372172
---------------- Step   129000 ----- CPU =    364.7123 (sec) ----------------
TotEng   =     -3351.8619 KinEng   =       641.2956 Temp     =       295.5239 
PotEng   =     -3993.1576 E_bond   =         1.6266 E_angle  =         2.8503 
E_dihed  =         0.0000 E_impro  =         0.0000 E_vdwl   =       818.7966 
E_coul   =     14834.6614 E_long   =    -19651.0925 Press    =      1127.5247 
Volume   =     10791.4772 
SHAKE stats (type/ave/delta) on step 130000
  3 1.00001 4.08038e-06
  4 109.47 0.000342904
---------------- Step   130000 ----- CPU =    367.5316 (sec) ----------------
TotEng   =     -3399.6920 KinEng   =       646.4035 Temp     =       297.8777 
PotEng   =     -4046.0955 E_bond   =         2.3509 E_angle  =         3.7676 
E_dihed  =         0.0000 E_impro  =         0.0000 E_vdwl   =       756.5704 
E_coul   =     14839.4612 E_long   =    -19648.2455 Press    =      -308.9786 
Volume   =     10853.7158 
SHAKE stats (type/ave/delta) on step 131000
  3 1.00008 4.33291e-06
  4 109.47 0.000410654
---------------- Step   131000 ----- CPU =    370.3582 (sec) ----------------
TotEng   =     -3344.2868 KinEng   =       634.1110 Temp     =       292.2131 
PotEng   =     -3978.3978 E_bond   =         1.8194 E_angle  =         2.3636 
E_dihed  =         0.0000 E_impro  =         0.0000 E_vdwl   =       790.8479 
E_coul   =     14872.6584 E_long   =    -19646.0873 Press    =       837.2342 
Volume   =     10872.9023 
SHAKE stats (type/ave/delta) on step 132000
  3 0.99995 6.33458e-06
  4 109.47 0.000485982
---------------- Step   132000 ----- CPU =    373.2135 (sec) ----------------
TotEng   =     -3372.7870 KinEng   =       640.2160 Temp     =       295.0264 
PotEng   =     -4013.0029 E_bond   =         1.3283 E_angle  =         1.9444 
E_dihed  =         0.0000 E_impro  =         0.0000 E_vdwl   =       816.2831 
E_coul   =     14817.0276 E_long   =    -19649.5864 Press    =      1729.0361 
Volume   =     10653.4629 
SHAKE stats (type/ave/delta) on step 133000
  3 0.999927 1.35528e-05
  4 109.47 0.00156091
---------------- Step   133000 ----- CPU =    376.0736 (sec) ----------------
TotEng   =     -3333.4193 KinEng   =       641.8132 Temp     =       295.7624 
PotEng   =     -3975.2325 E_bond   =         2.4822 E_angle  =         0.8728 
E_dihed  =         0.0000 E_impro  =         0.0000 E_vdwl   =       733.2895 
E_coul   =     14936.5572 E_long   =    -19648.4342 Press    =      -506.6968 
Volume   =     11052.3324 
SHAKE stats (type/ave/delta) on step 134000
  3 0.999845 7.44533e-06
  4 109.47 0.000984331
---------------- Step   134000 ----- CPU =    378.8744 (sec) ----------------
TotEng   =     -3428.9523 KinEng   =       627.1701 Temp     =       289.0145 
PotEng   =     -4056.1223 E_bond   =         1.3941 E_angle  =         2.1856 
E_dihed  =         0.0000 E_impro  =         0.0000 E_vdwl   =       755.7932 
E_coul   =     14832.3333 E_long   =    -19647.8285 Press    =      -105.2403 
Volume   =     10744.5576 
SHAKE stats (type/ave/delta) on step 135000
  3 1.00007 1.3242e-05
  4 109.47 0.00126451
---------------- Step   135000 ----- CPU =    381.8629 (sec) ----------------
TotEng   =     -3365.7241 KinEng   =       661.5519 Temp     =       304.8585 
PotEng   =     -4027.2760 E_bond   =         0.9509 E_angle  =         2.1174 
E_dihed  =         0.0000 E_impro  =         0.0000 E_vdwl   =       749.3858 
E_coul   =     14869.8016 E_long   =    -19649.5317 Press    =      -182.0388 
Volume   =     10836.7808 
SHAKE stats (type/ave/delta) on step 136000
  3 1.00003 6.33576e-06
  4 109.47 0.000487276
---------------- Step   136000 ----- CPU =    384.6866 (sec) ----------------
TotEng   =     -3316.3337 KinEng   =       645.5406 Temp     =       297.4801 
PotEng   =     -3961.8743 E_bond   =         1.7902 E_angle  =         1.6367 
E_dihed  =         0.0000 E_impro  =         0.0000 E_vdwl   =       755.6286 
E_coul   =     14928.9169 E_long   =    -19649.8467 Press    =       333.1572 
Volume   =     10888.0017 
SHAKE stats (type/ave/delta) on step 137000
  3 0.999912 1.05831e-05
  4 109.47 0.00118487
---------------- Step   137000 ----- CPU =    387.5048 (sec) ----------------
TotEng   =     -3415.6512 KinEng   =       608.8554 Temp     =       280.5747 
PotEng   =     -4024.5066 E_bond   =         1.1703 E_angle  =         3.0160 
E_dihed  =         0.0000 E_impro  =         0.0000 E_vdwl   =       739.1438 
E_coul   =     14880.5243 E_long   =    -19648.3611 Press    =      -477.4920 
Volume   =     10809.3650 
SHAKE stats (type/ave/delta) on step 138000
  3 1.00009 5.60874e-06
  4 109.47 0.000541721
---------------- Step   138000 ----- CPU =    390.2782 (sec) ----------------
TotEng   =     -3374.5214 KinEng   =       643.4511 Temp     =       296.5172 
PotEng   =     -4017.9725 E_bond   =         1.6446 E_angle  =         3.6487 
E_dihed  =         0.0000 E_impro  =         0.0000 E_vdwl   =       756.9833 
E_coul   =     14869.3790 E_long   =    -19649.6281 Press    =        75.3486 
Volume   =     10746.7869 
SHAKE stats (type/ave/delta) on step 139000
  3 0.99993 4.42581e-06
  4 109.47 0.000360954
---------------- Step   139000 ----- CPU =    393.0645 (sec) ----------------
TotEng   =     -3438.6783 KinEng   =       615.7623 Temp     =       283.7575 
PotEng   =     -4054.4406 E_bond   =         3.5905 E_angle  =         2.2099 
E_dihed  =         0.0000 E_impro  =         0.0000 E_vdwl   =       756.9253 
E_coul   =     14831.3563 E_long   =    -19648.5226 Press    =      -610.8051 
Volume   =     10800.6019 
SHAKE stats (type/ave/delta) on step 140000
  3 1.00004 9.11876e-06
  4 109.47 0.000732383
---------------- Step   140000 ----- CPU =    395.8889 (sec) ----------------
TotEng   =     -3317.1708 KinEng   =       660.0530 Temp     =       304.1677 
PotEng   =     -3977.2239 E_bond   =         1.7952 E_angle  =         3.1246 
E_dihed  =         0.0000 E_impro  =         0.0000 E_vdwl   =       791.5720 
E_coul   =     14875.9529 E_long   =    -19649.6686 Press    =       780.6966 
Volume   =     10879.1498 
SHAKE stats (type/ave/delta) on step 141000
  3 1.00014 3.76106e-06
  4 109.47 0.000401348
---------------- Step   141000 ----- CPU =    398.6401 (sec) ----------------
TotEng   =     -3395.2103 KinEng   =       633.6753 Temp     =       292.0123 
PotEng   =     -4028.8856 E_bond   =         1.2727 E_angle  =         2.0187 
E_dihed  =         0.0000 E_impro  =         0.0000 E_vdwl   =       735.7413 
E_coul   =     14882.9956 E_long   =    -19650.9139 Press    =      -698.7496 
Volume   =     10972.6122 
SHAKE stats (type/ave/delta) on step 142000
  3 1.00007 4.14381e-06
  4 109.47 0.000365239
---------------- Step   142000 ----- CPU =    401.4117 (sec) ----------------
TotEng   =     -3366.8351 KinEng   =       656.6461 Temp     =       302.5977 
PotEng   =     -4023.4812 E_bond   =         0.8123 E_angle  =         2.5082 
E_dihed  =         0.0000 E_impro  =         0.0000 E_vdwl   =       818.6978 
E_coul   =     14803.8860 E_long   =    -19649.3855 Press    =      1446.4985 
Volume   =     10760.7112 
SHAKE stats (type/ave/delta) on step 143000
  3 1.00001 5.39374e-06
  4 109.47 0.000559923
---------------- Step   143000 ----- CPU =    404.2265 (sec) ----------------
TotEng   =     -3318.0999 KinEng   =       661.2403 Temp     =       304.7149 
PotEng   =     -3979.3402 E_bond   =         1.7063 E_angle  =         2.8734 
E_dihed  =         0.0000 E_impro  =         0.0000 E_vdwl   =       772.3661 
E_coul   =     14893.1256 E_long   =    -19649.4115 Press    =       644.5618 
Volume   =     10847.7284 
SHAKE stats (type/ave/delta) on step 144000
  3 0.999926 8.96991e-06
  4 109.47 0.000826247
---------------- Step   144000 ----- CPU =    407.1079 (sec) ----------------
TotEng   =     -3367.6065 KinEng   =       663.7206 Temp     =       305.8579 
PotEng   =     -4031.3271 E_bond   =         2.5585 E_angle  =         2.9059 
E_dihed  =         0.0000 E_impro  =         0.0000 E_vdwl   =       796.4973 
E_coul   =     14819.5269 E_long   =    -19652.8157 Press    =       807.1259 
Volume   =     10844.6772 
SHAKE stats (type/ave/delta) on step 145000
  3 0.999966 4.72104e-06
  4 109.47 0.000406895
---------------- Step   145000 ----- CPU =    409.9807 (sec) ----------------
TotEng   =     -3363.1310 KinEng   =       647.4227 Temp     =       298.3474 
PotEng   =     -4010.5537 E_bond   =         4.2644 E_angle  =         1.7813 
E_dihed  =         0.0000 E_impro  =         0.0000 E_vdwl   =       767.8629 
E_coul   =     14865.3827 E_long   =    -19649.8449 Press    =      -228.6055 
Volume   =     10946.4158 
SHAKE stats (type/ave/delta) on step 146000
  3 0.999922 5.68648e-06
  4 109.47 0.000444461
---------------- Step   146000 ----- CPU =    412.9306 (sec) ----------------
TotEng   =     -3388.9402 KinEng   =       634.7987 Temp     =       292.5299 
PotEng   =     -4023.7389 E_bond   =         1.3428 E_angle  =         4.7655 
E_dihed  =         0.0000 E_impro  =         0.0000 E_vdwl   =       748.5848 
E_coul   =     14872.2345 E_long   =    -19650.6665 Press    =      -407.6983 
Volume   =     10897.8798 
SHAKE stats (type/ave/delta) on step 147000
  3 1.00006 9.06832e-06
  4 109.47 0.000782622
---------------- Step   147000 ----- CPU =    415.7935 (sec) ----------------
TotEng   =     -3372.5911 KinEng   =       648.2524 Temp     =       298.7298 
PotEng   =     -4020.8436 E_bond   =         2.3788 E_angle  =         2.8823 
E_dihed  =         0.0000 E_impro  =         0.0000 E_vdwl   =       729.3657 
E_coul   =     14894.5418 E_long   =    -19650.0122 Press    =      -641.1690 
Volume   =     10804.9997 
SHAKE stats (type/ave/delta) on step 148000
  3 1.00005 6.36185e-06
  4 109.47 0.000489756
---------------- Step   148000 ----- CPU =    418.6001 (sec) ----------------
TotEng   =     -3351.2945 KinEng   =       663.4155 Temp     =       305.7173 
PotEng   =     -4014.7101 E_bond   =         1.5541 E_angle  =         4.2408 
E_dihed  =         0.0000 E_impro  =         0.0000 E_vdwl   =       732.7845 
E_coul   =     14895.2332 E_long   =    -19648.5227 Press    =      -713.3418 
Volume   =     10820.7555 
SHAKE stats (type/ave/delta) on step 149000
  3 0.999979 3.95698e-06
  4 109.47 0.000376081
---------------- Step   149000 ----- CPU =    421.3873 (sec) ----------------
TotEng   =     -3346.1959 KinEng   =       664.8123 Temp     =       306.3609 
PotEng   =     -4011.0081 E_bond   =         3.2804 E_angle  =         2.1136 
E_dihed  =         0.0000 E_impro  =         0.0000 E_vdwl   =       773.5986 
E_coul   =     14861.5777 E_long   =    -19651.5784 Press    =       -11.5196 
Volume   =     10882.8894 
SHAKE stats (type/ave/delta) on step 150000
  3 1.00007 4.16847e-06
  4 109.47 0.000373606
---------------- Step   150000 ----- CPU =    424.2702 (sec) ----------------
TotEng   =     -3360.9602 KinEng   =       626.0637 Temp     =       288.5047 
PotEng   =     -3987.0239 E_bond   =         3.3454 E_angle  =         2.6133 
E_dihed  =         0.0000 E_impro  =         0.0000 E_vdwl   =       760.6336 
E_coul   =     14893.2132 E_long   =    -19646.8293 Press    =       116.7254 
Volume   =     10905.9003 
[...]
  3 1.00007 7.07098e-06
  4 109.47 0.000527199
---------------- Step   464000 ----- CPU =   1237.3605 (sec) ----------------
TotEng   =     -3395.2427 KinEng   =       655.3319 Temp     =       301.9921 
PotEng   =     -4050.5745 E_bond   =         3.1777 E_angle  =         2.4573 
E_dihed  =         0.0000 E_impro  =         0.0000 E_vdwl   =       698.0566 
E_coul   =     14755.3218 E_long   =    -19509.5880 Press    =     -1439.6288 
Volume   =     10750.3896 
SHAKE stats (type/ave/delta) on step 465000
  3 0.99989 7.7299e-06
  4 109.47 0.000551913
---------------- Step   465000 ----- CPU =   1240.0942 (sec) ----------------
TotEng   =     -3361.7230 KinEng   =       637.4354 Temp     =       293.7450 
PotEng   =     -3999.1584 E_bond   =         2.1525 E_angle  =         3.0461 
E_dihed  =         0.0000 E_impro  =         0.0000 E_vdwl   =       766.4091 
E_coul   =     14738.3947 E_long   =    -19509.1609 Press    =       625.9782 
Volume   =     10869.4590 
SHAKE stats (type/ave/delta) on step 466000
  3 0.999859 8.85421e-06
  4 109.47 0.000770175
---------------- Step   466000 ----- CPU =   1242.8535 (sec) ----------------
TotEng   =     -3343.1618 KinEng   =       639.2639 Temp     =       294.5876 
PotEng   =     -3982.4257 E_bond   =         1.5617 E_angle  =         3.2148 
E_dihed  =         0.0000 E_impro  =         0.0000 E_vdwl   =       722.0329 
E_coul   =     14797.9986 E_long   =    -19507.2337 Press    =      -349.7352 
Volume   =     10828.7585 
SHAKE stats (type/ave/delta) on step 467000
  3 1.00008 6.46263e-06
  4 109.47 0.00043607
---------------- Step   467000 ----- CPU =   1245.6493 (sec) ----------------
TotEng   =     -3375.8638 KinEng   =       652.6650 Temp     =       300.7632 
PotEng   =     -4028.5288 E_bond   =         0.3766 E_angle  =         1.8910 
E_dihed  =         0.0000 E_impro  =         0.0000 E_vdwl   =       750.9260 
E_coul   =     14725.2516 E_long   =    -19506.9740 Press    =      -253.0559 
Volume   =     10764.7019 
SHAKE stats (type/ave/delta) on step 468000
  3 1 9.17525e-06
  4 109.47 0.000845667
---------------- Step   468000 ----- CPU =   1248.4256 (sec) ----------------
TotEng   =     -3413.8814 KinEng   =       629.6704 Temp     =       290.1667 
PotEng   =     -4043.5518 E_bond   =         1.4342 E_angle  =         2.0823 
E_dihed  =         0.0000 E_impro  =         0.0000 E_vdwl   =       786.1127 
E_coul   =     14675.4006 E_long   =    -19508.5816 Press    =      1026.1219 
Volume   =     10450.3821 
SHAKE stats (type/ave/delta) on step 469000
  3 1.00006 3.73449e-06
  4 109.47 0.000378441
---------------- Step   469000 ----- CPU =   1251.1095 (sec) ----------------
TotEng   =     -3346.4561 KinEng   =       640.2900 Temp     =       295.0605 
PotEng   =     -3986.7461 E_bond   =         4.3528 E_angle  =         1.8256 
E_dihed  =         0.0000 E_impro  =         0.0000 E_vdwl   =       732.7005 
E_coul   =     14781.1597 E_long   =    -19506.7846 Press    =      -612.8162 
Volume   =     11040.0613 
SHAKE stats (type/ave/delta) on step 470000
  3 0.999989 4.26893e-06
  4 109.47 0.000414748
---------------- Step   470000 ----- CPU =   1253.8316 (sec) ----------------
TotEng   =     -3378.4802 KinEng   =       653.2857 Temp     =       301.0492 
PotEng   =     -4031.7659 E_bond   =         3.8725 E_angle  =         1.5066 
E_dihed  =         0.0000 E_impro  =         0.0000 E_vdwl   =       823.5041 
E_coul   =     14650.3097 E_long   =    -19510.9588 Press    =       897.3254 
Volume   =     10957.0386 
SHAKE stats (type/ave/delta) on step 471000
  3 0.999911 6.9755e-06
  4 109.47 0.000591737
---------------- Step   471000 ----- CPU =   1256.4898 (sec) ----------------
TotEng   =     -3402.7807 KinEng   =       653.3571 Temp     =       301.0821 
PotEng   =     -4056.1379 E_bond   =         1.4107 E_angle  =         0.8075 
E_dihed  =         0.0000 E_impro  =         0.0000 E_vdwl   =       808.4075 
E_coul   =     14642.0341 E_long   =    -19508.7977 Press    =       658.1447 
Volume   =     10855.1806 
SHAKE stats (type/ave/delta) on step 472000
  3 1.00001 5.81707e-06
  4 109.47 0.000669359
---------------- Step   472000 ----- CPU =   1259.1207 (sec) ----------------
TotEng   =     -3319.7128 KinEng   =       677.2642 Temp     =       312.0990 
PotEng   =     -3996.9770 E_bond   =         1.0323 E_angle  =         2.0982 
E_dihed  =         0.0000 E_impro  =         0.0000 E_vdwl   =       764.7345 
E_coul   =     14740.8888 E_long   =    -19505.7308 Press    =       698.8644 
Volume   =     10618.8627 
SHAKE stats (type/ave/delta) on step 473000
  3 1.00005 5.18578e-06
  4 109.47 0.000453936
---------------- Step   473000 ----- CPU =   1261.7641 (sec) ----------------
TotEng   =     -3358.7790 KinEng   =       642.0126 Temp     =       295.8543 
PotEng   =     -4000.7916 E_bond   =         1.4373 E_angle  =         3.4966 
E_dihed  =         0.0000 E_impro  =         0.0000 E_vdwl   =       767.2975 
E_coul   =     14735.2823 E_long   =    -19508.3053 Press    =       534.1771 
Volume   =     10799.8891 
SHAKE stats (type/ave/delta) on step 474000
  3 1.00003 9.56361e-06
  4 109.47 0.00125346
---------------- Step   474000 ----- CPU =   1264.4318 (sec) ----------------
TotEng   =     -3363.8778 KinEng   =       671.8790 Temp     =       309.6174 
PotEng   =     -4035.7567 E_bond   =         1.5562 E_angle  =         2.5741 
E_dihed  =         0.0000 E_impro  =         0.0000 E_vdwl   =       763.3196 
E_coul   =     14705.5824 E_long   =    -19508.7890 Press    =      -144.3206 
Volume   =     10836.9786 
SHAKE stats (type/ave/delta) on step 475000
  3 0.999985 4.23518e-06
  4 109.47 0.000368506
---------------- Step   475000 ----- CPU =   1267.0352 (sec) ----------------
TotEng   =     -3345.0395 KinEng   =       651.2919 Temp     =       300.1304 
PotEng   =     -3996.3314 E_bond   =         2.4562 E_angle  =         4.0054 
E_dihed  =         0.0000 E_impro  =         0.0000 E_vdwl   =       769.9947 
E_coul   =     14735.4128 E_long   =    -19508.2005 Press    =       950.5637 
Volume   =     10623.8600 
SHAKE stats (type/ave/delta) on step 476000
  3 1.00002 4.04419e-06
  4 109.47 0.000335699
---------------- Step   476000 ----- CPU =   1269.6706 (sec) ----------------
TotEng   =     -3373.4541 KinEng   =       645.9834 Temp     =       297.6841 
PotEng   =     -4019.4376 E_bond   =         3.1156 E_angle  =         2.5901 
E_dihed  =         0.0000 E_impro  =         0.0000 E_vdwl   =       694.8696 
E_coul   =     14789.0299 E_long   =    -19509.0428 Press    =     -1741.7621 
Volume   =     10898.3640 
SHAKE stats (type/ave/delta) on step 477000
  3 1.00001 8.66836e-06
  4 109.47 0.000693413
---------------- Step   477000 ----- CPU =   1272.2988 (sec) ----------------
TotEng   =     -3343.3770 KinEng   =       648.2510 Temp     =       298.7291 
PotEng   =     -3991.6280 E_bond   =         1.8311 E_angle  =         1.8599 
E_dihed  =         0.0000 E_impro  =         0.0000 E_vdwl   =       787.7114 
E_coul   =     14726.2757 E_long   =    -19509.3062 Press    =       937.7238 
Volume   =     10900.2369 
SHAKE stats (type/ave/delta) on step 478000
  3 1.00001 4.67618e-06
  4 109.47 0.000402284
---------------- Step   478000 ----- CPU =   1274.8823 (sec) ----------------
TotEng   =     -3334.7658 KinEng   =       671.7268 Temp     =       309.5473 
PotEng   =     -4006.4926 E_bond   =         2.5605 E_angle  =         1.7679 
E_dihed  =         0.0000 E_impro  =         0.0000 E_vdwl   =       758.8371 
E_coul   =     14736.6015 E_long   =    -19506.2595 Press    =       -44.3750 
Volume   =     10966.9545 
SHAKE stats (type/ave/delta) on step 479000
  3 1.00013 3.75561e-06
  4 109.47 0.000441039
---------------- Step   479000 ----- CPU =   1277.4761 (sec) ----------------
TotEng   =     -3392.2118 KinEng   =       623.8695 Temp     =       287.4935 
PotEng   =     -4016.0814 E_bond   =         0.9297 E_angle  =         1.7741 
E_dihed  =         0.0000 E_impro  =         0.0000 E_vdwl   =       797.9941 
E_coul   =     14692.4034 E_long   =    -19509.1827 Press    =       540.4259 
Volume   =     10946.0355 
SHAKE stats (type/ave/delta) on step 480000
  3 1.00007 5.52814e-06
  4 109.47 0.000755403
---------------- Step   480000 ----- CPU =   1280.1032 (sec) ----------------
TotEng   =     -3414.9482 KinEng   =       647.7608 Temp     =       298.5032 
PotEng   =     -4062.7090 E_bond   =         2.3673 E_angle  =         1.5515 
E_dihed  =         0.0000 E_impro  =         0.0000 E_vdwl   =       833.2564 
E_coul   =     14607.4948 E_long   =    -19507.3791 Press    =      1255.8861 
Volume   =     10820.9128 
SHAKE stats (type/ave/delta) on step 481000
  3 0.999867 5.46806e-06
  4 109.47 0.000422976
---------------- Step   481000 ----- CPU =   1282.7563 (sec) ----------------
TotEng   =     -3375.6133 KinEng   =       687.3551 Temp     =       316.7492 
PotEng   =     -4062.9684 E_bond   =         2.1354 E_angle  =         1.1559 
E_dihed  =         0.0000 E_impro  =         0.0000 E_vdwl   =       814.7229 
E_coul   =     14629.4075 E_long   =    -19510.3901 Press    =       889.4200 
Volume   =     10664.4427 
SHAKE stats (type/ave/delta) on step 482000
  3 0.999982 5.21906e-06
  4 109.47 0.000508526
---------------- Step   482000 ----- CPU =   1285.6318 (sec) ----------------
TotEng   =     -3374.8312 KinEng   =       637.8635 Temp     =       293.9423 
PotEng   =     -4012.6947 E_bond   =         3.4564 E_angle  =         1.6432 
E_dihed  =         0.0000 E_impro  =         0.0000 E_vdwl   =       731.7373 
E_coul   =     14759.1519 E_long   =    -19508.6835 Press    =      -179.2096 
Volume   =     10823.3301 
SHAKE stats (type/ave/delta) on step 483000
  3 0.999923 5.98223e-06
  4 109.47 0.000502979
---------------- Step   483000 ----- CPU =   1288.3279 (sec) ----------------
TotEng   =     -3380.3941 KinEng   =       621.7193 Temp     =       286.5027 
PotEng   =     -4002.1134 E_bond   =         1.9057 E_angle  =         3.2504 
E_dihed  =         0.0000 E_impro  =         0.0000 E_vdwl   =       771.1763 
E_coul   =     14728.7493 E_long   =    -19507.1952 Press    =       372.0558 
Volume   =     10759.0054 
SHAKE stats (type/ave/delta) on step 484000
  3 1.00007 3.58513e-06
  4 109.47 0.000345505
---------------- Step   484000 ----- CPU =   1291.0003 (sec) ----------------
TotEng   =     -3295.2411 KinEng   =       662.0469 Temp     =       305.0865 
PotEng   =     -3957.2880 E_bond   =         1.2205 E_angle  =         4.9766 
E_dihed  =         0.0000 E_impro  =         0.0000 E_vdwl   =       751.3684 
E_coul   =     14791.9767 E_long   =    -19506.8302 Press    =       826.9538 
Volume   =     10740.3922 
SHAKE stats (type/ave/delta) on step 485000
  3 0.999962 3.93799e-06
  4 109.47 0.000487322
---------------- Step   485000 ----- CPU =   1293.6302 (sec) ----------------
TotEng   =     -3311.1239 KinEng   =       644.6355 Temp     =       297.0630 
PotEng   =     -3955.7595 E_bond   =         2.1816 E_angle  =         1.8650 
E_dihed  =         0.0000 E_impro  =         0.0000 E_vdwl   =       749.1050 
E_coul   =     14798.0323 E_long   =    -19506.9433 Press    =       583.2343 
Volume   =     10762.3942 
SHAKE stats (type/ave/delta) on step 486000
  3 1.00014 7.45253e-06
  4 109.47 0.00072937
---------------- Step   486000 ----- CPU =   1296.2150 (sec) ----------------
TotEng   =     -3367.0381 KinEng   =       647.7141 Temp     =       298.4817 
PotEng   =     -4014.7522 E_bond   =         1.6801 E_angle  =         1.2327 
E_dihed  =         0.0000 E_impro  =         0.0000 E_vdwl   =       753.4425 
E_coul   =     14739.6642 E_long   =    -19510.7717 Press    =        69.4931 
Volume   =     10727.2254 
SHAKE stats (type/ave/delta) on step 487000
  3 1.00006 6.46858e-06
  4 109.47 0.000494385
---------------- Step   487000 ----- CPU =   1298.8490 (sec) ----------------
TotEng   =     -3388.2873 KinEng   =       654.7893 Temp     =       301.7421 
PotEng   =     -4043.0766 E_bond   =         2.3919 E_angle  =         4.2372 
E_dihed  =         0.0000 E_impro  =         0.0000 E_vdwl   =       753.1671 
E_coul   =     14704.7256 E_long   =    -19507.5984 Press    =       196.6235 
Volume   =     10697.8102 
SHAKE stats (type/ave/delta) on step 488000
  3 1.00006 5.43162e-06
  4 109.47 0.00038311
---------------- Step   488000 ----- CPU =   1301.4873 (sec) ----------------
TotEng   =     -3359.8061 KinEng   =       659.6721 Temp     =       303.9922 
PotEng   =     -4019.4782 E_bond   =         3.1919 E_angle  =         2.4161 
E_dihed  =         0.0000 E_impro  =         0.0000 E_vdwl   =       729.0547 
E_coul   =     14752.7890 E_long   =    -19506.9298 Press    =     -1324.3408 
Volume   =     11219.4587 
SHAKE stats (type/ave/delta) on step 489000
  3 1.00008 9.20158e-06
  4 109.47 0.000879242
---------------- Step   489000 ----- CPU =   1304.1340 (sec) ----------------
TotEng   =     -3381.0865 KinEng   =       632.4413 Temp     =       291.4436 
PotEng   =     -4013.5278 E_bond   =         2.2370 E_angle  =         4.1291 
E_dihed  =         0.0000 E_impro  =         0.0000 E_vdwl   =       813.7543 
E_coul   =     14675.3019 E_long   =    -19508.9503 Press    =      1509.8333 
Volume   =     10725.6752 
SHAKE stats (type/ave/delta) on step 490000
  3 1.00005 5.10425e-06
  4 109.47 0.000437634
---------------- Step   490000 ----- CPU =   1306.8573 (sec) ----------------
TotEng   =     -3370.3938 KinEng   =       643.4971 Temp     =       296.5384 
PotEng   =     -4013.8909 E_bond   =         2.3699 E_angle  =         2.9338 
E_dihed  =         0.0000 E_impro  =         0.0000 E_vdwl   =       778.6265 
E_coul   =     14710.2682 E_long   =    -19508.0892 Press    =       482.5451 
Volume   =     10702.8257 
SHAKE stats (type/ave/delta) on step 491000
  3 0.99997 4.30135e-06
  4 109.47 0.00037697
---------------- Step   491000 ----- CPU =   1309.5016 (sec) ----------------
TotEng   =     -3372.0519 KinEng   =       677.0602 Temp     =       312.0050 
PotEng   =     -4049.1121 E_bond   =         1.5503 E_angle  =         3.4376 
E_dihed  =         0.0000 E_impro  =         0.0000 E_vdwl   =       806.9129 
E_coul   =     14647.9931 E_long   =    -19509.0061 Press    =      1069.5367 
Volume   =     10793.8765 
SHAKE stats (type/ave/delta) on step 492000
  3 1.00011 5.57952e-06
  4 109.47 0.000608385
---------------- Step   492000 ----- CPU =   1312.2672 (sec) ----------------
TotEng   =     -3365.8665 KinEng   =       661.9837 Temp     =       305.0574 
PotEng   =     -4027.8502 E_bond   =         1.7709 E_angle  =         2.1074 
E_dihed  =         0.0000 E_impro  =         0.0000 E_vdwl   =       762.0700 
E_coul   =     14716.2718 E_long   =    -19510.0702 Press    =       181.7627 
Volume   =     10887.7964 
SHAKE stats (type/ave/delta) on step 493000
  3 1.00007 4.61082e-06
  4 109.47 0.000415076
---------------- Step   493000 ----- CPU =   1315.1978 (sec) ----------------
TotEng   =     -3356.6379 KinEng   =       655.3085 Temp     =       301.9813 
PotEng   =     -4011.9464 E_bond   =         1.7004 E_angle  =         3.5120 
E_dihed  =         0.0000 E_impro  =         0.0000 E_vdwl   =       749.5807 
E_coul   =     14742.0308 E_long   =    -19508.7703 Press    =        24.8731 
Volume   =     10554.9920 
SHAKE stats (type/ave/delta) on step 494000
  3 0.999963 4.90845e-06
  4 109.47 0.000538861
---------------- Step   494000 ----- CPU =   1317.9261 (sec) ----------------
TotEng   =     -3296.2267 KinEng   =       676.5411 Temp     =       311.7658 
PotEng   =     -3972.7678 E_bond   =         3.9098 E_angle  =         4.2806 
E_dihed  =         0.0000 E_impro  =         0.0000 E_vdwl   =       770.2417 
E_coul   =     14755.9160 E_long   =    -19507.1159 Press    =       389.6731 
Volume   =     11061.0903 
SHAKE stats (type/ave/delta) on step 495000
  3 0.999997 7.30312e-06
  4 109.47 0.000779665
---------------- Step   495000 ----- CPU =   1320.5873 (sec) ----------------
TotEng   =     -3315.5962 KinEng   =       681.4130 Temp     =       314.0109 
PotEng   =     -3997.0092 E_bond   =         2.6008 E_angle  =         3.5767 
E_dihed  =         0.0000 E_impro  =         0.0000 E_vdwl   =       769.0021 
E_coul   =     14736.0284 E_long   =    -19508.2172 Press    =       227.8413 
Volume   =     10745.4395 
SHAKE stats (type/ave/delta) on step 496000
  3 0.999985 8.30712e-06
  4 109.47 0.00103333
---------------- Step   496000 ----- CPU =   1323.2803 (sec) ----------------
TotEng   =     -3364.4190 KinEng   =       613.7506 Temp     =       282.8305 
PotEng   =     -3978.1695 E_bond   =         2.2102 E_angle  =         3.9427 
E_dihed  =         0.0000 E_impro  =         0.0000 E_vdwl   =       768.1605 
E_coul   =     14756.2192 E_long   =    -19508.7022 Press    =       708.3676 
Volume   =     10914.2568 
SHAKE stats (type/ave/delta) on step 497000
  3 0.999968 9.24329e-06
  4 109.47 0.000642667
---------------- Step   497000 ----- CPU =   1325.9359 (sec) ----------------
TotEng   =     -3386.9680 KinEng   =       665.2350 Temp     =       306.5557 
PotEng   =     -4052.2030 E_bond   =         4.6416 E_angle  =         2.8739 
E_dihed  =         0.0000 E_impro  =         0.0000 E_vdwl   =       742.8871 
E_coul   =     14704.7967 E_long   =    -19507.4023 Press    =      -586.9761 
Volume   =     10739.9465 
SHAKE stats (type/ave/delta) on step 498000
  3 0.999904 4.29072e-06
  4 109.47 0.00040301
---------------- Step   498000 ----- CPU =   1328.6273 (sec) ----------------
TotEng   =     -3423.3438 KinEng   =       642.8458 Temp     =       296.2382 
PotEng   =     -4066.1896 E_bond   =         2.4942 E_angle  =         3.3720 
E_dihed  =         0.0000 E_impro  =         0.0000 E_vdwl   =       797.7712 
E_coul   =     14640.0844 E_long   =    -19509.9114 Press    =       673.5165 
Volume   =     10739.5149 
SHAKE stats (type/ave/delta) on step 499000
  3 0.999967 4.22152e-06
  4 109.47 0.00037146
---------------- Step   499000 ----- CPU =   1331.3241 (sec) ----------------
TotEng   =     -3354.0124 KinEng   =       686.7781 Temp     =       316.4833 
PotEng   =     -4040.7905 E_bond   =         2.5613 E_angle  =         1.6782 
E_dihed  =         0.0000 E_impro  =         0.0000 E_vdwl   =       777.7890 
E_coul   =     14684.7244 E_long   =    -19507.5434 Press    =       282.6207 
Volume   =     10950.2103 
SHAKE stats (type/ave/delta) on step 500000
  3 1.00001 5.86271e-06
  4 109.47 0.000449757
---------------- Step   500000 ----- CPU =   1333.9975 (sec) ----------------
TotEng   =     -3352.3431 KinEng   =       641.7304 Temp     =       295.7243 
PotEng   =     -3994.0736 E_bond   =         3.3371 E_angle  =         3.3992 
E_dihed  =         0.0000 E_impro  =         0.0000 E_vdwl   =       745.9602 
E_coul   =     14759.8313 E_long   =    -19506.6014 Press    =      -330.4834 
Volume   =     10796.7099 
Loop time of 1334 on 8 procs for 500000 steps with 1089 atoms

Pair  time (%) = 689.742 (51.7049)
Bond  time (%) = 0.54065 (0.0405286)
Kspce time (%) = 241.033 (18.0684)
Neigh time (%) = 97.2736 (7.29189)
Comm  time (%) = 133.147 (9.98104)
Outpt time (%) = 0.243532 (0.0182558)
Other time (%) = 172.019 (12.895)

FFT time (% of Kspce) = 31.4709 (13.0567)
FFT Gflps 3d (1d only) = 4.09323 53.1566

Nlocal:    136.125 ave 144 max 126 min
Histogram: 1 0 0 2 0 1 2 0 0 2
Nghost:    4189.5 ave 4223 max 4158 min
Histogram: 2 1 0 0 2 0 0 0 1 2
Neighs:    49605.1 ave 56794 max 44488 min
Histogram: 1 1 1 2 0 1 1 0 0 1

Total # of neighbors = 396841
Ave neighs/atom = 364.409
Ave special neighs/atom = 2.04959
Neighbor list builds = 41222
Dangerous builds = 6588

# write_restart restart.*.lmp
write_data data.*.lmp
PPPM initialization ...
  G vector (1/distance) = 0.267944
  grid = 12 12 12
  stencil order = 5
  estimated absolute RMS force accuracy = 0.0256392
  estimated relative force accuracy = 7.72117e-05
  using double precision FFTs
  3d grid and FFT values/proc = 2197 288
