LAMMPS (30 Oct 2019)
variable number	equal 4
variable ofreq	equal 1000
variable efreq	equal 1000
variable T      equal 0.1

units lj

dimension 3

newton off

boundary  p p p

atom_style hybrid bond ellipsoid
atom_modify sort 0 1.0

# Pair interactions require lists of neighbours to be calculated
neighbor 1.0 bin
neigh_modify every 1 delay 0 check yes

read_data data.duplex4
  orthogonal box = (-20 -20 -20) to (20 20 20)
  1 by 1 by 1 MPI processor grid
  reading atoms ...
  16 atoms
  reading velocities ...
  16 velocities
  16 ellipsoids
  scanning bonds ...
  2 = max bonds/atom
  reading bonds ...
  13 bonds
  2 = max # of 1-2 neighbors
  2 = max # of 1-3 neighbors
  4 = max # of 1-4 neighbors
  6 = max # of special neighbors
  special bonds CPU = 5.9e-05 secs
  read_data CPU = 0.038375 secs

set atom * mass 3.1575
  16 settings made for mass

group all type 1 4
16 atoms in group all

# oxRNA2 bond interactions - FENE backbone
bond_style oxrna2/fene
bond_coeff * 2.0 0.25 0.761070781051

# oxRNA2 pair interactions
pair_style hybrid/overlay oxrna2/excv oxrna2/stk oxrna2/hbond oxrna2/xstk oxrna2/coaxstk oxrna2/dh

pair_coeff * * oxrna2/excv    2.0 0.7 0.675 2.0 0.515 0.5 2.0 0.33 0.32
pair_coeff * * oxrna2/stk     seqdep ${T} 1.40206 2.77 6.0 0.43 0.93 0.35 0.78 0.9 0 0.95 0.9 0 0.95 1.3 0 0.8 1.3 0 0.8 2.0 0.65 2.0 0.65
pair_coeff * * oxrna2/stk     seqdep 0.1 1.40206 2.77 6.0 0.43 0.93 0.35 0.78 0.9 0 0.95 0.9 0 0.95 1.3 0 0.8 1.3 0 0.8 2.0 0.65 2.0 0.65
pair_coeff * * oxrna2/hbond   seqdep 0.0 8.0 0.4 0.75 0.34 0.7 1.5 0 0.7 1.5 0 0.7 1.5 0 0.7 0.46 3.141592653589793 0.7 4.0 1.5707963267948966 0.45 4.0 1.5707963267948966 0.45
pair_coeff 1 4 oxrna2/hbond   seqdep 0.870439 8.0 0.4 0.75 0.34 0.7 1.5 0 0.7 1.5 0 0.7 1.5 0 0.7 0.46 3.141592653589793 0.7 4.0 1.5707963267948966 0.45 4.0 1.5707963267948966 0.45
pair_coeff 2 3 oxrna2/hbond   seqdep 0.870439 8.0 0.4 0.75 0.34 0.7 1.5 0 0.7 1.5 0 0.7 1.5 0 0.7 0.46 3.141592653589793 0.7 4.0 1.5707963267948966 0.45 4.0 1.5707963267948966 0.45
pair_coeff 3 4 oxrna2/hbond   seqdep 0.870439 8.0 0.4 0.75 0.34 0.7 1.5 0 0.7 1.5 0 0.7 1.5 0 0.7 0.46 3.141592653589793 0.7 4.0 1.5707963267948966 0.45 4.0 1.5707963267948966 0.45
pair_coeff * * oxrna2/xstk    59.9626 0.5 0.6 0.42 0.58 2.25 0.505 0.58 1.7 1.266 0.68 1.7 1.266 0.68 1.7 0.309 0.68 1.7 0.309 0.68
pair_coeff * * oxrna2/coaxstk 80 0.5 0.6 0.42 0.58 2.0 2.592 0.65 1.3 0.151 0.8 0.9 0.685 0.95 0.9 0.685 0.95 2.0 -0.65 2.0 -0.65
pair_coeff * * oxrna2/dh      ${T} 0.5 1.02455
pair_coeff * * oxrna2/dh      0.1 0.5 1.02455

# NVE ensemble
#fix 1 all   nve/dotc/langevin 0.1 0.1 0.03 457145 angmom 10
#fix 1 all   nve/dot
fix 1 all nve/asphere

timestep 1e-5

#comm_style tiled
#fix 3 all balance 10000 1.1 rcb

#compute mol all chunk/atom molecule
#compute mychunk all vcm/chunk mol
#fix 4 all ave/time 10000 1 10000 c_mychunk[1] c_mychunk[2] c_mychunk[3] file vcm.txt mode vector

#dump pos all xyz ${ofreq} traj.${number}.xyz

#compute quat all property/atom quatw quati quatj quatk
#dump quat all custom ${ofreq} quat.${number}.txt id c_quat[1] c_quat[2] c_quat[3] c_quat[4]
#dump_modify quat sort id
#dump_modify quat format line "%d  %13.6le  %13.6le  %13.6le  %13.6le"

compute erot all erotate/asphere
compute ekin all ke
compute epot all pe
variable erot equal c_erot
variable ekin equal c_ekin
variable epot equal c_epot
variable etot equal c_erot+c_ekin+c_epot
fix 5 all print ${efreq} "$(step)  ekin = ${ekin} |  erot = ${erot} | epot = ${epot} | etot = ${etot}" screen yes
fix 5 all print 1000 "$(step)  ekin = ${ekin} |  erot = ${erot} | epot = ${epot} | etot = ${etot}" screen yes

#dump out all custom ${ofreq} out.${number}.txt id x y z vx vy vz fx fy fz tqx tqy tqz
#dump_modify out sort id
#dump_modify out format line "%d  %13.9f %13.9f %13.9f  %13.9f %13.9f %13.9f  %13.9f %13.9f %13.9f  %13.9f %13.9f %13.9f"

run 1000000
Neighbor list info ...
  update every 1 steps, delay 0 steps, check yes
  max neighbors/atom: 2000, page size: 100000
  master list distance cutoff = 3.3015
  ghost atom cutoff = 3.3015
  binsize = 1.65075, bins = 25 25 25
  6 neighbor lists, perpetual/occasional/extra = 6 0 0
  (1) pair oxrna2/excv, perpetual
      attributes: half, newton off
      pair build: half/bin/newtoff
      stencil: half/bin/3d/newtoff
      bin: standard
  (2) pair oxrna2/stk, perpetual, copy from (1)
      attributes: half, newton off
      pair build: copy
      stencil: none
      bin: none
  (3) pair oxrna2/hbond, perpetual, copy from (1)
      attributes: half, newton off
      pair build: copy
      stencil: none
      bin: none
  (4) pair oxrna2/xstk, perpetual, copy from (1)
      attributes: half, newton off
      pair build: copy
      stencil: none
      bin: none
  (5) pair oxrna2/coaxstk, perpetual, copy from (1)
      attributes: half, newton off
      pair build: copy
      stencil: none
      bin: none
  (6) pair oxrna2/dh, perpetual, copy from (1)
      attributes: half, newton off
      pair build: copy
      stencil: none
      bin: none
0  ekin = 0 |  erot = 0 | epot = -13.282537590974 | etot = -13.282537590974
Per MPI rank memory allocation (min/avg/max) = 2.951 | 2.951 | 2.951 Mbytes
Step Temp E_pair E_mol TotEng Press 
       0            0  -0.84341458  0.013255977   -0.8301586 -2.0169485e-05 
1000  ekin = 0.00448503054656468 |  erot = 0.00825381229611384 | epot = -13.2952764343122 | etot = -13.2825375914695
2000  ekin = 0.0179027901180511 |  erot = 0.0327684151335467 | epot = -13.3332087967732 | etot = -13.2825375915216
3000  ekin = 0.0401478317723584 |  erot = 0.0728240143066062 | epot = -13.3955094376815 | etot = -13.2825375916026
4000  ekin = 0.0710654348932282 |  erot = 0.127292706283096 | epot = -13.4808957328808 | etot = -13.2825375917044
5000  ekin = 0.110480309743662 |  erot = 0.194739074279834 | epot = -13.5877569758405 | etot = -13.282537591817
6000  ekin = 0.158231230694432 |  erot = 0.273546913858903 | epot = -13.7143157364827 | etot = -13.2825375919294
7000  ekin = 0.214206450831754 |  erot = 0.362058396901232 | epot = -13.8588024397642 | etot = -13.2825375920312
8000  ekin = 0.278374111850069 |  erot = 0.458709556672181 | epot = -14.0196212606361 | etot = -13.2825375921138
9000  ekin = 0.35080209403022 |  erot = 0.562145629088178 | epot = -14.1954853152903 | etot = -13.2825375921719
10000  ekin = 0.431663021447766 |  erot = 0.671302139462136 | epot = -14.385502753114 | etot = -13.2825375922041
11000  ekin = 0.521222365620265 |  erot = 0.78544264622411 | epot = -14.5892026040572 | etot = -13.2825375922128
12000  ekin = 0.61981039873542 |  erot = 0.904150888366026 | epot = -14.8064988793055 | etot = -13.2825375922041
13000  ekin = 0.72778153179885 |  erot = 1.02728222251243 | epot = -15.0376013464974 | etot = -13.2825375921861
14000  ekin = 0.845466747659446 |  erot = 1.154885201864 | epot = -15.2828895416915 | etot = -13.2825375921681
15000  ekin = 0.973515286429446 |  erot = 1.28640002432487 | epot = -15.5424529041413 | etot = -13.2825375933869
16000  ekin = 1.12323013751098 |  erot = 1.40387495398598 | epot = -15.8096426839256 | etot = -13.2825375924286
17000  ekin = 1.2976927283263 |  erot = 1.51347784068661 | epot = -16.0937081607397 | etot = -13.2825375917268
18000  ekin = 1.48565191084531 |  erot = 1.63592970999661 | epot = -16.4041192134347 | etot = -13.2825375925928
19000  ekin = 1.66750911163348 |  erot = 1.77940241938721 | epot = -16.7294491246368 | etot = -13.2825375936161
20000  ekin = 1.84148924290423 |  erot = 1.93695511183687 | epot = -17.0609819484057 | etot = -13.2825375936646
21000  ekin = 2.02307741366163 |  erot = 2.09844265792961 | epot = -17.4040576653939 | etot = -13.2825375938027
22000  ekin = 2.21183606977224 |  erot = 2.26260708947302 | epot = -17.7569807531587 | etot = -13.2825375939134
23000  ekin = 2.40735468792977 |  erot = 2.42817202047308 | epot = -18.1180643024997 | etot = -13.2825375940968
24000  ekin = 2.60896890448861 |  erot = 2.59357882573853 | epot = -18.485085324508 | etot = -13.2825375942809
25000  ekin = 2.81580135477345 |  erot = 2.75706655667055 | epot = -18.855405505957 | etot = -13.282537594513
26000  ekin = 3.02680083558485 |  erot = 2.91667946897257 | epot = -19.2260178993271 | etot = -13.2825375947697
27000  ekin = 3.24067707260308 |  erot = 3.07027299756498 | epot = -19.5934876652175 | etot = -13.2825375950495
28000  ekin = 3.45601412953572 |  erot = 3.21560615188039 | epot = -19.9541578767293 | etot = -13.2825375953132
29000  ekin = 3.6713683081319 |  erot = 3.35037905822946 | epot = -20.304284961999 | etot = -13.2825375956376
30000  ekin = 3.88476027224393 |  erot = 3.47208481891837 | epot = -20.639382687185 | etot = -13.2825375960227
31000  ekin = 4.09387957878895 |  erot = 3.57821385032035 | epot = -20.9546310254509 | etot = -13.2825375963416
32000  ekin = 4.29662185345806 |  erot = 3.66648606531138 | epot = -21.2456455154186 | etot = -13.2825375966492
33000  ekin = 4.49089153394062 |  erot = 3.73482555362569 | epot = -21.5082546845018 | etot = -13.2825375969355
34000  ekin = 4.67464118182276 |  erot = 3.78142516888995 | epot = -21.738603947901 | etot = -13.2825375971883
35000  ekin = 4.84586411782047 |  erot = 3.80480460777895 | epot = -21.9332063229962 | etot = -13.2825375973967
36000  ekin = 5.00270940487365 |  erot = 3.8039453503275 | epot = -22.0891923527593 | etot = -13.2825375975582
37000  ekin = 5.14355281474259 |  erot = 3.7783370953036 | epot = -22.204427507712 | etot = -13.2825375976658
38000  ekin = 5.26699752588855 |  erot = 3.72801268545693 | epot = -22.2775478090594 | etot = -13.2825375977139
39000  ekin = 5.37191151713863 |  erot = 3.65359747923659 | epot = -22.3080465940736 | etot = -13.2825375976984
40000  ekin = 5.45746010972423 |  erot = 3.55633701588595 | epot = -22.2963347232305 | etot = -13.2825375976203
41000  ekin = 5.52312188621308 |  erot = 3.43809872369854 | epot = -22.2437582073842 | etot = -13.2825375974726
42000  ekin = 5.56872044211992 |  erot = 3.30135279333163 | epot = -22.1526108327155 | etot = -13.2825375972639
43000  ekin = 5.59443660082917 |  erot = 3.14910305123731 | epot = -22.0260772490691 | etot = -13.2825375970026
44000  ekin = 5.60078634437692 |  erot = 2.98477133565124 | epot = -21.8680952767294 | etot = -13.2825375967012
45000  ekin = 5.58859564323333 |  erot = 2.81204277265316 | epot = -21.6831760122617 | etot = -13.2825375963752
46000  ekin = 5.55896198288794 |  erot = 2.63469562167501 | epot = -21.4761952006007 | etot = -13.2825375960378
47000  ekin = 5.51320424221946 |  erot = 2.45646420183046 | epot = -21.2522060397483 | etot = -13.2825375956984
48000  ekin = 5.45280176988517 |  erot = 2.28095947573118 | epot = -21.0162988409769 | etot = -13.2825375953605
49000  ekin = 5.37933239946638 |  erot = 2.11161440403257 | epot = -20.7734843985446 | etot = -13.2825375950457
50000  ekin = 5.29440598595185 |  erot = 1.95156309993188 | epot = -20.5285066806346 | etot = -13.2825375947508
51000  ekin = 5.19960275040233 |  erot = 1.8036634398305 | epot = -20.2858037847152 | etot = -13.2825375944824
52000  ekin = 5.09244091535756 |  erot = 1.66034071449473 | epot = -20.0353192196127 | etot = -13.2825375897604
53000  ekin = 5.00219098599272 |  erot = 1.54003539006211 | epot = -19.8247639698981 | etot = -13.2825375938433
54000  ekin = 4.90058329526777 |  erot = 1.45132465506075 | epot = -19.6344455614683 | etot = -13.2825376111398
55000  ekin = 4.70838087935139 |  erot = 1.38368494594893 | epot = -19.3746034336678 | etot = -13.2825376083675
56000  ekin = 4.44064498303545 |  erot = 1.42525549496303 | epot = -19.1484380668508 | etot = -13.2825375888523
57000  ekin = 4.28012764787285 |  erot = 1.59067222265512 | epot = -19.1533374833604 | etot = -13.2825376128325
58000  ekin = 4.17606446205098 |  erot = 1.6926959141941 | epot = -19.1512979674148 | etot = -13.2825375911697
59000  ekin = 4.0674801293444 |  erot = 1.75788112721294 | epot = -19.1078988477137 | etot = -13.2825375911564
60000  ekin = 3.9544882347638 |  erot = 1.84391663061768 | epot = -19.0809424565336 | etot = -13.2825375911521
61000  ekin = 3.83840387031284 |  erot = 1.95003019237208 | epot = -19.0709716537088 | etot = -13.2825375910239
62000  ekin = 3.72130809963045 |  erot = 2.07501703895377 | epot = -19.0788627296237 | etot = -13.2825375910394
63000  ekin = 3.60440089032981 |  erot = 2.21773397929798 | epot = -19.1046724606768 | etot = -13.282537591049
64000  ekin = 3.48898621429844 |  erot = 2.37695650761985 | epot = -19.1484803129713 | etot = -13.282537591053
65000  ekin = 3.37647880025293 |  erot = 2.55140907448467 | epot = -19.2104254657961 | etot = -13.2825375910585
66000  ekin = 3.26833067403372 |  erot = 2.73974236805088 | epot = -19.2906106331593 | etot = -13.2825375910747
67000  ekin = 3.16594788215578 |  erot = 2.94047174698236 | epot = -19.3889572202528 | etot = -13.2825375911146
68000  ekin = 3.07060531612276 |  erot = 3.15188029478627 | epot = -19.5050232021015 | etot = -13.2825375911924
69000  ekin = 2.98334905059819 |  erot = 3.37190853325577 | epot = -19.6377951751758 | etot = -13.2825375913219
70000  ekin = 2.90492955397884 |  erot = 3.59802295152975 | epot = -19.7854900970223 | etot = -13.2825375915137
71000  ekin = 2.83572376329218 |  erot = 3.8271560839742 | epot = -19.9454174390314 | etot = -13.282537591765
72000  ekin = 2.77568510798997 |  erot = 4.05569348668259 | epot = -20.1139161867768 | etot = -13.2825375921043
73000  ekin = 2.72437405649527 |  erot = 4.27929863267978 | epot = -20.2862102816556 | etot = -13.2825375924805
74000  ekin = 2.6809894320095 |  erot = 4.4934031024691 | epot = -20.4569301273605 | etot = -13.2825375928819
75000  ekin = 2.6444530940616 |  erot = 4.69339307186043 | epot = -20.6203837591939 | etot = -13.2825375932719
76000  ekin = 2.61355415206022 |  erot = 4.87501053156087 | epot = -20.7711022772329 | etot = -13.2825375936118
77000  ekin = 2.58710084062323 |  erot = 5.03478939172066 | epot = -20.9044278262183 | etot = -13.2825375938744
78000  ekin = 2.56403853914049 |  erot = 5.17029283961051 | epot = -21.0168689727798 | etot = -13.2825375940288
79000  ekin = 2.54361120788211 |  erot = 5.28037161018751 | epot = -21.1065204121487 | etot = -13.2825375940791
80000  ekin = 2.52540527324247 |  erot = 5.36512720853065 | epot = -21.173070075803 | etot = -13.2825375940298
81000  ekin = 2.50929384303298 |  erot = 5.42576598242971 | epot = -21.2175974194025 | etot = -13.2825375939398
82000  ekin = 2.49524917644589 |  erot = 5.46414530531067 | epot = -21.2419320755728 | etot = -13.2825375938163
83000  ekin = 2.4833426959312 |  erot = 5.48242032921998 | epot = -21.248300618845 | etot = -13.2825375936939
84000  ekin = 2.47365997802594 |  erot = 5.48271691205541 | epot = -21.2389144836696 | etot = -13.2825375935882
85000  ekin = 2.46626808184772 |  erot = 5.46691083838924 | epot = -21.2157165137399 | etot = -13.2825375935029
86000  ekin = 2.46123154184243 |  erot = 5.43653398177485 | epot = -21.1803031170841 | etot = -13.2825375934668
87000  ekin = 2.45852093879055 |  erot = 5.39265692383446 | epot = -21.1337154560121 | etot = -13.2825375933871
88000  ekin = 2.45840646060175 |  erot = 5.33627030736198 | epot = -21.0772143612561 | etot = -13.2825375932924
89000  ekin = 2.46146480126887 |  erot = 5.26838646846783 | epot = -21.0123888631742 | etot = -13.2825375934375
90000  ekin = 2.4677317783594 |  erot = 5.18930366181446 | epot = -20.9395730335193 | etot = -13.2825375933455
91000  ekin = 2.47726011905719 |  erot = 5.09951749277777 | epot = -20.8593152050595 | etot = -13.2825375932246
92000  ekin = 2.49074261962909 |  erot = 5.00022791911595 | epot = -20.7735081318254 | etot = -13.2825375930803
93000  ekin = 2.50902833057362 |  erot = 4.89281259013106 | epot = -20.6843785136292 | etot = -13.2825375929245
94000  ekin = 2.53301288183075 |  erot = 4.77876912035546 | epot = -20.5943195949544 | etot = -13.2825375927682
95000  ekin = 2.56354598704907 |  erot = 4.6596420581626 | epot = -20.5057256378352 | etot = -13.2825375926235
96000  ekin = 2.60133194738611 |  erot = 4.53693642149354 | epot = -20.4208059613806 | etot = -13.2825375925009
97000  ekin = 2.64684712537105 |  erot = 4.41204173729005 | epot = -20.3414264550665 | etot = -13.2825375924053
98000  ekin = 2.70029551800324 |  erot = 4.28619503995162 | epot = -20.2690281502928 | etot = -13.2825375923379
99000  ekin = 2.76159183076381 |  erot = 4.16048163754163 | epot = -20.2046110606006 | etot = -13.2825375922951
100000  ekin = 2.83036874776579 |  erot = 4.03587523010376 | epot = -20.1487815701408 | etot = -13.2825375922712
101000  ekin = 2.90599845693996 |  erot = 3.91330077540588 | epot = -20.1018368246064 | etot = -13.2825375922606
102000  ekin = 2.98761606367604 |  erot = 3.79369343963812 | epot = -20.0638470955752 | etot = -13.2825375922611
103000  ekin = 3.07413620026802 |  erot = 3.67802597580043 | epot = -20.0346997683418 | etot = -13.2825375922734
104000  ekin = 3.16426099663645 |  erot = 3.56728973636564 | epot = -20.0140883253047 | etot = -13.2825375923026
105000  ekin = 3.25648344622793 |  erot = 3.46242766269272 | epot = -20.0014487012763 | etot = -13.2825375923557
106000  ekin = 3.34909407537355 |  erot = 3.36423261094161 | epot = -19.9958642787542 | etot = -13.282537592439
107000  ekin = 3.4401993069765 |  erot = 3.27323316283015 | epot = -19.9959700623645 | etot = -13.2825375925578
108000  ekin = 3.52775814523602 |  erot = 3.18959025645786 | epot = -19.999885994407 | etot = -13.2825375927131
109000  ekin = 3.60964009104214 |  erot = 3.11302339299888 | epot = -20.0052010769433 | etot = -13.2825375929023
110000  ekin = 3.68370388524509 |  erot = 3.04277828887564 | epot = -20.0090197672386 | etot = -13.2825375931179
111000  ekin = 3.74789440567183 |  erot = 2.97764201100029 | epot = -20.0080740100205 | etot = -13.2825375933484
112000  ekin = 3.80035415830428 |  erot = 2.91600823448521 | epot = -19.9988999863676 | etot = -13.2825375935781
113000  ekin = 3.839544891464 |  erot = 2.8559933088984 | epot = -19.9780757941506 | etot = -13.2825375937882
114000  ekin = 3.86437452036816 |  erot = 2.79560177874327 | epot = -19.9425138930678 | etot = -13.2825375939563
115000  ekin = 3.87432139555448 |  erot = 2.7329343736024 | epot = -19.8897933632161 | etot = -13.2825375940592
116000  ekin = 3.86954570193439 |  erot = 2.66642221950682 | epot = -19.8185055155168 | etot = -13.2825375940755
117000  ekin = 3.85097050791378 |  erot = 2.59505981730843 | epot = -19.7285679191997 | etot = -13.2825375939775
118000  ekin = 3.82031843896371 |  erot = 2.51866416069826 | epot = -19.6215201934448 | etot = -13.2825375937828
119000  ekin = 3.78008379969918 |  erot = 2.43788144963878 | epot = -19.5005028428254 | etot = -13.2825375934874
120000  ekin = 3.73339325084433 |  erot = 2.35417060362233 | epot = -19.3701014475786 | etot = -13.282537593112
121000  ekin = 3.68379362023519 |  erot = 2.26974086129527 | epot = -19.23607207422 | etot = -13.2825375926895
122000  ekin = 3.63497633455468 |  erot = 2.18733107351197 | epot = -19.1048450003258 | etot = -13.2825375922591
123000  ekin = 3.59047168903067 |  erot = 2.10992442969337 | epot = -18.9829337105841 | etot = -13.2825375918601
124000  ekin = 3.55336069064742 |  erot = 2.040449477976 | epot = -18.8763477601487 | etot = -13.2825375915253
125000  ekin = 3.526052756485 |  erot = 1.98151529341996 | epot = -18.7901056411805 | etot = -13.2825375912756
126000  ekin = 3.51088386083626 |  erot = 1.93492307727824 | epot = -18.728344529054 | etot = -13.2825375909395
127000  ekin = 3.51016542665131 |  erot = 1.90135594382336 | epot = -18.6940589614221 | etot = -13.2825375909474
128000  ekin = 3.52366007691459 |  erot = 1.88146923500262 | epot = -18.6876669021183 | etot = -13.2825375902011
129000  ekin = 3.52804447871109 |  erot = 1.87939379818812 | epot = -18.6899759099344 | etot = -13.2825376330352
130000  ekin = 3.39121727536937 |  erot = 1.95375354402963 | epot = -18.6275084102343 | etot = -13.2825375908353
131000  ekin = 3.51597185423296 |  erot = 2.06600773707502 | epot = -18.8645172230933 | etot = -13.2825376317853
132000  ekin = 3.65680948155273 |  erot = 2.09675964820427 | epot = -19.0361067214651 | etot = -13.2825375917081
133000  ekin = 3.78260898444153 |  erot = 2.11778864665409 | epot = -19.1829352240667 | etot = -13.2825375929711
134000  ekin = 3.90291219401782 |  erot = 2.13993246768634 | epot = -19.3253822549312 | etot = -13.282537593227
135000  ekin = 4.0130725329214 |  erot = 2.16317596346888 | epot = -19.4587860898102 | etot = -13.2825375934199
136000  ekin = 4.10942813981085 |  erot = 2.18779054238602 | epot = -19.579756275755 | etot = -13.2825375935581
137000  ekin = 4.18918244084739 |  erot = 2.21413018926373 | epot = -19.6858502237401 | etot = -13.282537593629
138000  ekin = 4.25055180725538 |  erot = 2.24252417705096 | epot = -19.7756135779486 | etot = -13.2825375936422
139000  ekin = 4.29264193993076 |  erot = 2.27334414892611 | epot = -19.8485236824514 | etot = -13.2825375935945
140000  ekin = 4.31542981069473 |  erot = 2.30704736065647 | epot = -19.9050147648392 | etot = -13.282537593488
141000  ekin = 4.31969657449582 |  erot = 2.34420108979785 | epot = -19.9464352576258 | etot = -13.2825375933322
142000  ekin = 4.30689625825181 |  erot = 2.38546661972145 | epot = -19.9749004711164 | etot = -13.2825375931432
143000  ekin = 4.27897643633865 |  erot = 2.43154322469962 | epot = -19.9930572539778 | etot = -13.2825375929395
144000  ekin = 4.23817759048809 |  erot = 2.4830525431645 | epot = -20.0037677263996 | etot = -13.282537592747
145000  ekin = 4.18683687366757 |  erot = 2.54040585524226 | epot = -20.0097803214924 | etot = -13.2825375925826
146000  ekin = 4.1272243777605 |  erot = 2.60369949546902 | epot = -20.0134614656897 | etot = -13.2825375924601
147000  ekin = 4.06142641942193 |  erot = 2.67262771534946 | epot = -20.0165917271588 | etot = -13.2825375923874
148000  ekin = 3.9912803569092 |  erot = 2.74643868481959 | epot = -20.0202566340943 | etot = -13.2825375923655
149000  ekin = 3.91835859675027 |  erot = 2.82393987441759 | epot = -20.0248360635575 | etot = -13.2825375923896
150000  ekin = 3.84399502540854 |  erot = 2.90355368904202 | epot = -20.0300863068999 | etot = -13.2825375924493
151000  ekin = 3.76934462696646 |  erot = 2.98342057410476 | epot = -20.0353027936018 | etot = -13.2825375925305
152000  ekin = 3.69546503896298 |  erot = 3.06154297168136 | epot = -20.0395456032602 | etot = -13.2825375926159
153000  ekin = 3.62340677772839 |  erot = 3.13595781467703 | epot = -20.0419021850935 | etot = -13.2825375926881
154000  ekin = 3.55429442921676 |  erot = 3.20491770297265 | epot = -20.0417497249216 | etot = -13.2825375927321
155000  ekin = 3.48935808553585 |  erot = 3.26703376494699 | epot = -20.0389294432276 | etot = -13.2825375927448
156000  ekin = 3.42995719397496 |  erot = 3.32146386703849 | epot = -20.0339586537003 | etot = -13.2825375926868
157000  ekin = 3.37758377439356 |  erot = 3.36807693572793 | epot = -20.0281983027502 | etot = -13.2825375926288
158000  ekin = 3.32977839475207 |  erot = 3.40502394976504 | epot = -20.0173399361875 | etot = -13.2825375916704
159000  ekin = 3.28790229188226 |  erot = 3.43232801110884 | epot = -20.0027678906268 | etot = -13.2825375876357
160000  ekin = 3.2827995172835 |  erot = 3.46457454882488 | epot = -20.0299116571487 | etot = -13.2825375910404
161000  ekin = 3.29006841785848 |  erot = 3.48756894666501 | epot = -20.0601749524886 | etot = -13.2825375879651
162000  ekin = 3.30320279765029 |  erot = 3.50064541816097 | epot = -20.0863858038423 | etot = -13.282537588031
163000  ekin = 3.32680445360257 |  erot = 3.50703979240478 | epot = -20.1163818341648 | etot = -13.2825375881575
164000  ekin = 3.35978204864574 |  erot = 3.50639799900046 | epot = -20.1487176359768 | etot = -13.2825375883306
165000  ekin = 3.40052448161995 |  erot = 3.49807859199014 | epot = -20.1811406621343 | etot = -13.2825375885243
166000  ekin = 3.44710440323596 |  erot = 3.48135096319306 | epot = -20.2109929551315 | etot = -13.2825375887025
167000  ekin = 3.4975648313672 |  erot = 3.45565303648312 | epot = -20.2357554566791 | etot = -13.2825375888288
168000  ekin = 3.55023572858497 |  erot = 3.42084325030349 | epot = -20.2536165677605 | etot = -13.282537588872
169000  ekin = 3.60406985696843 |  erot = 3.37750569995077 | epot = -20.2641131456975 | etot = -13.2825375887783
170000  ekin = 3.41798406778448 |  erot = 3.07782048145476 | epot = -19.7783420668553 | etot = -13.282537517616
171000  ekin = 3.24552871157827 |  erot = 2.73637390316214 | epot = -19.2644400103087 | etot = -13.2825373955683
172000  ekin = 3.78367855051371 |  erot = 3.0727453748938 | epot = -20.1389614956922 | etot = -13.2825375702847
173000  ekin = 4.03457273059443 |  erot = 3.1833646910841 | epot = -20.5004749222031 | etot = -13.2825375005245
174000  ekin = 4.14002439986023 |  erot = 3.16763893899922 | epot = -20.5902008391762 | etot = -13.2825375003167
175000  ekin = 4.24061478727573 |  erot = 3.15086312051219 | epot = -20.6740154078953 | etot = -13.2825375001074
176000  ekin = 4.33750550891641 |  erot = 3.1355261006119 | epot = -20.7555691095056 | etot = -13.2825374999773
177000  ekin = 4.43118634626255 |  erot = 3.12342668205083 | epot = -20.8371505282964 | etot = -13.282537499983
178000  ekin = 4.52112038535911 |  erot = 3.11516996838714 | epot = -20.9188278538863 | etot = -13.28253750014
179000  ekin = 4.60569122910559 |  erot = 3.10997891303161 | epot = -20.9982076425525 | etot = -13.2825375004153
180000  ekin = 4.68248742105205 |  erot = 3.10587534040976 | epot = -21.0709002621995 | etot = -13.2825375007377
181000  ekin = 4.74885008880769 |  erot = 3.10016969122633 | epot = -21.1315572810546 | etot = -13.2825375010206
182000  ekin = 4.80252004240904 |  erot = 3.09010778323153 | epot = -21.1751653268271 | etot = -13.2825375011865
183000  ekin = 4.84185836209392 |  erot = 3.07355401450656 | epot = -21.1979498780501 | etot = -13.2825375014496
184000  ekin = 4.86305938218274 |  erot = 3.04972947015758 | epot = -21.1953263537857 | etot = -13.2825375014454
185000  ekin = 4.86484048379853 |  erot = 3.01830532387125 | epot = -21.165683308955 | etot = -13.2825375012852
186000  ekin = 4.84781115921877 |  erot = 2.97987576045986 | epot = -21.1102244206817 | etot = -13.2825375010031
187000  ekin = 4.8135776433552 |  erot = 2.93597501879465 | epot = -21.032090162799 | etot = -13.2825375006491
188000  ekin = 4.76439584097176 |  erot = 2.8887503176203 | epot = -20.9356836588659 | etot = -13.2825375002739
189000  ekin = 4.7028202134345 |  erot = 2.84056846871295 | epot = -20.8259261820664 | etot = -13.282537499919
190000  ekin = 4.63141632940872 |  erot = 2.79367442377689 | epot = -20.7076282527969 | etot = -13.2825374996113
191000  ekin = 4.55257205219687 |  erot = 2.74995133907398 | epot = -20.5850608906317 | etot = -13.2825374993609
192000  ekin = 4.46841445137449 |  erot = 2.7108083514329 | epot = -20.4617603019722 | etot = -13.2825374991648
193000  ekin = 4.38080987485702 |  erot = 2.67717312167301 | epot = -20.3405204955445 | etot = -13.2825374990145
194000  ekin = 4.29140314493158 |  erot = 2.64952891334607 | epot = -20.2234695571822 | etot = -13.2825374989045
195000  ekin = 4.20164846020147 |  erot = 2.62793199519283 | epot = -20.1121179542319 | etot = -13.2825374988376
196000  ekin = 4.112799736886 |  erot = 2.6119729730638 | epot = -20.0073102087726 | etot = -13.2825374988228
197000  ekin = 4.0258589719236 |  erot = 2.60069607327732 | epot = -19.9090925440707 | etot = -13.2825374988698
198000  ekin = 3.94151021740635 |  erot = 2.59254113732139 | epot = -19.8165888537063 | etot = -13.2825374989786
199000  ekin = 3.86008920571504 |  erot = 2.58539978552083 | epot = -19.728026490366 | etot = -13.2825374991301
200000  ekin = 3.78163650515412 |  erot = 2.57685633277384 | epot = -19.6410303372136 | etot = -13.2825374992857
201000  ekin = 3.70604145366868 |  erot = 2.56461316993842 | epot = -19.5531921230031 | etot = -13.282537499396
202000  ekin = 3.63323784111708 |  erot = 2.54700321074533 | epot = -19.4627785512819 | etot = -13.2825374994195
203000  ekin = 3.56337600429933 |  erot = 2.52342549129417 | epot = -19.3693389949301 | etot = -13.2825374993366
204000  ekin = 3.49690618989364 |  erot = 2.49455276327499 | epot = -19.2739964523245 | etot = -13.2825374991559
205000  ekin = 3.43455338767261 |  erot = 2.46224574346265 | epot = -19.1793366300441 | etot = -13.2825374989088
206000  ekin = 3.37721205721374 |  erot = 2.42921548153353 | epot = -19.0889650373857 | etot = -13.2825374986384
207000  ekin = 3.32580575275754 |  erot = 2.39854397251178 | epot = -19.0068872236571 | etot = -13.2825374983878
208000  ekin = 3.28114891016496 |  erot = 2.37318814654829 | epot = -18.9368745549054 | etot = -13.2825374981921
209000  ekin = 3.24383236356932 |  erot = 2.35556506548921 | epot = -18.8819349271337 | etot = -13.2825374980752
210000  ekin = 3.21413821976281 |  erot = 2.34727297364745 | epot = -18.8439486914582 | etot = -13.282537498048
211000  ekin = 3.19199204395966 |  erot = 2.34895966766644 | epot = -18.823489209736 | etot = -13.2825374981099
212000  ekin = 3.17695628121177 |  erot = 2.360321472034 | epot = -18.819815251497 | etot = -13.2825374982512
213000  ekin = 3.16826455951518 |  erot = 2.38020171954861 | epot = -18.8310037775187 | etot = -13.2825374984549
214000  ekin = 3.16489343854634 |  erot = 2.4067605217501 | epot = -18.8541914589957 | etot = -13.2825374986993
215000  ekin = 3.16566474352153 |  erot = 2.4376973804056 | epot = -18.8858996228856 | etot = -13.2825374989585
216000  ekin = 3.16936807503256 |  erot = 2.47051711068081 | epot = -18.9224226849174 | etot = -13.282537499204
217000  ekin = 3.16266988026838 |  erot = 2.47868467134127 | epot = -18.9238920507831 | etot = -13.2825374991734
218000  ekin = 3.17835235865319 |  erot = 2.45704329444878 | epot = -18.9179331413792 | etot = -13.2825374882772
219000  ekin = 3.26524817202019 |  erot = 2.48120766962855 | epot = -19.0289933444494 | etot = -13.2825375028007
220000  ekin = 3.31083663795614 |  erot = 2.50602061547625 | epot = -19.0993947418608 | etot = -13.2825374884285
221000  ekin = 3.33748530919716 |  erot = 2.52276996124467 | epot = -19.1427927588607 | etot = -13.2825374884189
222000  ekin = 3.36243211589499 |  erot = 2.53668587910066 | epot = -19.181655483376 | etot = -13.2825374883803
223000  ekin = 3.38541896904217 |  erot = 2.54888617169842 | epot = -19.2168426290796 | etot = -13.282537488339
224000  ekin = 3.40625812507986 |  erot = 2.56049920868626 | epot = -19.2492948220809 | etot = -13.2825374883148
225000  ekin = 3.42484722909618 |  erot = 2.57234499865719 | epot = -19.2797297160695 | etot = -13.2825374883162
226000  ekin = 3.44121067431411 |  erot = 2.58472036633686 | epot = -19.3084685289968 | etot = -13.2825374883458
227000  ekin = 3.45552721377379 |  erot = 2.59730386680743 | epot = -19.3353685689834 | etot = -13.2825374884022
228000  ekin = 3.46810974282139 |  erot = 2.6091693120744 | epot = -19.3598165433777 | etot = -13.2825374884819
229000  ekin = 3.4793267631311 |  erot = 2.61888809507087 | epot = -19.3807523467836 | etot = -13.2825374885816
230000  ekin = 3.48948003513645 |  erot = 2.62469570471749 | epot = -19.3967132285507 | etot = -13.2825374886968
231000  ekin = 3.49867242979377 |  erot = 2.62469374220078 | epot = -19.4059036608153 | etot = -13.2825374888207
232000  ekin = 3.50671171842654 |  erot = 2.6170613032781 | epot = -19.4063105106474 | etot = -13.2825374889427
233000  ekin = 3.51309701132125 |  erot = 2.60026316425572 | epot = -19.395897664621 | etot = -13.2825374890441
234000  ekin = 3.51712117494327 |  erot = 2.5732608561 | epot = -19.3729195201406 | etot = -13.2825374890973
235000  ekin = 3.51809173982137 |  erot = 2.53573892922866 | epot = -19.3363681581185 | etot = -13.2825374890685
236000  ekin = 3.51562949139304 |  erot = 2.48833922691111 | epot = -19.2865062072295 | etot = -13.2825374889254
237000  ekin = 3.50996386129235 |  erot = 2.43285732073676 | epot = -19.2253586706787 | etot = -13.2825374886496
238000  ekin = 3.50212794781253 |  erot = 2.37232394343562 | epot = -19.1569893794952 | etot = -13.2825374882471
239000  ekin = 3.49397580570111 |  erot = 2.31089750062538 | epot = -19.0874107940787 | etot = -13.2825374877522
240000  ekin = 3.48799489984455 |  erot = 2.2535377170645 | epot = -19.0240701041318 | etot = -13.2825374872227
241000  ekin = 3.4869474415209 |  erot = 2.2054938684223 | epot = -18.9749787966723 | etot = -13.2825374867291
242000  ekin = 3.49341769740518 |  erot = 2.1716922310321 | epot = -18.9476474147781 | etot = -13.2825374863409
243000  ekin = 3.50935803683834 |  erot = 2.15612557817114 | epot = -18.9480211011257 | etot = -13.2825374861162
244000  ekin = 3.53571412218956 |  erot = 2.16133426987289 | epot = -18.979585878157 | etot = -13.2825374860946
245000  ekin = 3.57218201231806 |  erot = 2.18803987534361 | epot = -19.0427593739549 | etot = -13.2825374862933
246000  ekin = 3.61712090977309 |  erot = 2.23496626996945 | epot = -19.134624666449 | etot = -13.2825374867064
247000  ekin = 3.66762313707197 |  erot = 2.29886938892499 | epot = -19.2490300133012 | etot = -13.2825374873042
248000  ekin = 3.7197330409766 |  erot = 2.3747925366233 | epot = -19.377063065633 | etot = -13.2825374880331
249000  ekin = 3.7687988475912 |  erot = 2.45655776432188 | epot = -19.5078941007305 | etot = -13.2825374888175
250000  ekin = 3.80993596354031 |  erot = 2.53748030029899 | epot = -19.6299537534039 | etot = -13.2825374895646
251000  ekin = 3.83856187827056 |  erot = 2.61124537605178 | epot = -19.7323447445001 | etot = -13.2825374901778
252000  ekin = 3.85094160348732 |  erot = 2.67282602420842 | epot = -19.8063051182675 | etot = -13.2825374905717
253000  ekin = 3.84466267221376 |  erot = 2.71927370140095 | epot = -19.8464738643054 | etot = -13.2825374906907
254000  ekin = 3.81895334833665 |  erot = 2.75020964906229 | epot = -19.8517004879202 | etot = -13.2825374905212
255000  ekin = 3.77477712370614 |  erot = 2.76789565653814 | epot = -19.8252102703408 | etot = -13.2825374900966
256000  ekin = 3.71467746908406 |  erot = 2.77685421459328 | epot = -19.7740691731677 | etot = -13.2825374894904
257000  ekin = 3.64239785971379 |  erot = 2.78310854270386 | epot = -19.7080438912194 | etot = -13.2825374888018
258000  ekin = 3.56234912666851 |  erot = 2.79319020432263 | epot = -19.6380768191282 | etot = -13.2825374881371
259000  ekin = 3.47902170398396 |  erot = 2.81309489223268 | epot = -19.5746540838083 | etot = -13.2825374875917
260000  ekin = 3.39644765746004 |  erot = 2.84735592157315 | epot = -19.5263410662695 | etot = -13.2825374872363
261000  ekin = 3.31779785755485 |  erot = 2.89836390677654 | epot = -19.4986992514401 | etot = -13.2825374871087
262000  ekin = 3.24516405277549 |  erot = 2.96601202360082 | epot = -19.493713563585 | etot = -13.2825374872087
263000  ekin = 3.17954694530476 |  erot = 3.04771661067519 | epot = -19.509801043485 | etot = -13.2825374875051
264000  ekin = 3.12100159498054 |  erot = 3.13875568824872 | epot = -19.5422947711677 | etot = -13.2825374879384
265000  ekin = 3.068909969511 |  erot = 3.23291804297596 | epot = -19.5843655009193 | etot = -13.2825374884324
266000  ekin = 3.02230555156861 |  erot = 3.32335252530508 | epot = -19.6281955657834 | etot = -13.2825374889098
267000  ekin = 2.98016989218859 |  erot = 3.40345614747457 | epot = -19.6661635289715 | etot = -13.2825374893083
268000  ekin = 2.94163501488609 |  erot = 3.46763177350625 | epot = -19.6918042779853 | etot = -13.282537489593
269000  ekin = 2.90604069318514 |  erot = 3.51175626238839 | epot = -19.7003344453578 | etot = -13.2825374897842
270000  ekin = 2.87284037255906 |  erot = 3.53329819601916 | epot = -19.6886760584274 | etot = -13.2825374898492
271000  ekin = 2.84156688817829 |  erot = 3.53141495904851 | epot = -19.6555193370576 | etot = -13.2825374898308
272000  ekin = 2.81169493920539 |  erot = 3.50673144119823 | epot = -19.6009638701441 | etot = -13.2825374897405
273000  ekin = 2.78262532285011 |  erot = 3.46115906465197 | epot = -19.5263218770821 | etot = -13.28253748958
274000  ekin = 2.7538098130557 |  erot = 3.39781487150794 | epot = -19.4341621738894 | etot = -13.2825374893258
275000  ekin = 2.72497357924299 |  erot = 3.32097131772016 | epot = -19.3284823859418 | etot = -13.2825374889787
276000  ekin = 2.69631002934824 |  erot = 3.23585259467473 | epot = -19.2147001125792 | etot = -13.2825374885562
277000  ekin = 2.66855210196767 |  erot = 3.14826501869249 | epot = -19.0993546087625 | etot = -13.2825374881024
278000  ekin = 2.64286719085242 |  erot = 3.06403640806158 | epot = -18.9894410865919 | etot = -13.2825374876779
279000  ekin = 2.6206102822317 |  erot = 2.98836162249344 | epot = -18.8915093920683 | etot = -13.2825374873432
280000  ekin = 2.60303022005365 |  erot = 2.92520891289703 | epot = -18.810776620091 | etot = -13.2825374871403
281000  ekin = 2.59103448458094 |  erot = 2.87693253510625 | epot = -18.7505045067693 | etot = -13.2825374870821
282000  ekin = 2.58508390620569 |  erot = 2.84417540765416 | epot = -18.7117968010114 | etot = -13.2825374871516
283000  ekin = 2.58523135936705 |  erot = 2.82606103956356 | epot = -18.6938298862415 | etot = -13.2825374873109
284000  ekin = 2.59126091870015 |  erot = 2.82059473157549 | epot = -18.6943931377914 | etot = -13.2825374875157
285000  ekin = 2.6028463107778 |  erot = 2.82514472713204 | epot = -18.7105285256397 | etot = -13.2825374877299
286000  ekin = 2.61964775973889 |  erot = 2.83687342635821 | epot = -18.7390586740322 | etot = -13.2825374879351
287000  ekin = 2.64167894317198 |  erot = 2.8528506609398 | epot = -18.777067092287 | etot = -13.2825374881753
288000  ekin = 2.6687167813722 |  erot = 2.87022930110005 | epot = -18.8214835708729 | etot = -13.2825374884007
289000  ekin = 2.69931643718217 |  erot = 2.88698660758031 | epot = -18.8688405333603 | etot = -13.2825374885979
290000  ekin = 2.73194963658564 |  erot = 2.90163654912848 | epot = -18.91612367448 | etot = -13.2825374887658
291000  ekin = 2.76502957907501 |  erot = 2.91324911168725 | epot = -18.9608161796579 | etot = -13.2825374888956
292000  ekin = 2.79700561900648 |  erot = 2.92149576190988 | epot = -19.0010388698883 | etot = -13.282537488972
293000  ekin = 2.82654239554718 |  erot = 2.92669002283955 | epot = -19.0357699073658 | etot = -13.2825374889791
294000  ekin = 2.85272969462388 |  erot = 2.92951972788893 | epot = -19.0647869114596 | etot = -13.2825374889468
295000  ekin = 2.87508597590098 |  erot = 2.9311082644765 | epot = -19.0887317291891 | etot = -13.2825374888116
296000  ekin = 2.89378047526675 |  erot = 2.93349300132876 | epot = -19.1098109651873 | etot = -13.2825374885917
297000  ekin = 2.90976516784938 |  erot = 2.93912517174385 | epot = -19.1314278279134 | etot = -13.2825374883201
298000  ekin = 2.92469477926692 |  erot = 2.95047845944716 | epot = -19.1577107267524 | etot = -13.2825374880383
299000  ekin = 2.94065805823336 |  erot = 2.96967690612592 | epot = -19.1928724521541 | etot = -13.2825374877948
300000  ekin = 2.95980003469262 |  erot = 2.99812642992008 | epot = -19.2404639522493 | etot = -13.2825374876367
301000  ekin = 2.98391272977048 |  erot = 3.03621252497702 | epot = -19.302662742346 | etot = -13.2825374875985
302000  ekin = 3.01408971368422 |  erot = 3.08312901018064 | epot = -19.3797562115572 | etot = -13.2825374876923
303000  ekin = 3.05053302665408 |  erot = 3.13689255668996 | epot = -19.4699630712472 | etot = -13.2825374879032
304000  ekin = 3.08584972584671 |  erot = 3.19556015974062 | epot = -19.5639473752475 | etot = -13.2825374896602
305000  ekin = 3.11890909070302 |  erot = 3.26281224727061 | epot = -19.6642588266132 | etot = -13.2825374886396
306000  ekin = 3.16699270587545 |  erot = 3.33070506272287 | epot = -19.7802352601681 | etot = -13.2825374915697
307000  ekin = 3.22023032257278 |  erot = 3.3799777181515 | epot = -19.8827455298064 | etot = -13.2825374890821
308000  ekin = 3.27268739663165 |  erot = 3.41969099128438 | epot = -19.9749158771467 | etot = -13.2825374892307
309000  ekin = 3.32280425481028 |  erot = 3.44976402097079 | epot = -20.0551057651176 | etot = -13.2825374893365
310000  ekin = 3.36903652740728 |  erot = 3.46970323071463 | epot = -20.1212772475588 | etot = -13.2825374894369
311000  ekin = 3.40972253534196 |  erot = 3.47940229944893 | epot = -20.1716623243582 | etot = -13.2825374895673
312000  ekin = 3.44308129108907 |  erot = 3.47898447382754 | epot = -20.204603254423 | etot = -13.2825374895064
313000  ekin = 3.46879202758663 |  erot = 3.47087869840748 | epot = -20.2222082156487 | etot = -13.2825374896546
314000  ekin = 3.48565385463278 |  erot = 3.45582059749242 | epot = -20.2240119419355 | etot = -13.2825374898103
315000  ekin = 3.4921631329082 |  erot = 3.43373104094955 | epot = -20.2084316637809 | etot = -13.2825374899231
316000  ekin = 3.48736213303232 |  erot = 3.40482567255629 | epot = -20.1747252955269 | etot = -13.2825374899383
317000  ekin = 3.46994132507374 |  erot = 3.36841330847356 | epot = -20.1208921250387 | etot = -13.2825374914914
318000  ekin = 3.43614022048189 |  erot = 3.32066657788102 | epot = -20.0393442896713 | etot = -13.2825374913084
319000  ekin = 3.38694293952315 |  erot = 3.2636491069797 | epot = -19.9331295374394 | etot = -13.2825374909366
320000  ekin = 3.32506744212965 |  erot = 3.20113650606275 | epot = -19.8087414386365 | etot = -13.2825374904441
321000  ekin = 3.25415482891539 |  erot = 3.13766117542953 | epot = -19.6743534942655 | etot = -13.2825374899206
322000  ekin = 3.17813669787398 |  erot = 3.07780020747378 | epot = -19.5384743947986 | etot = -13.2825374894508
323000  ekin = 3.10066688252112 |  erot = 3.02549088180775 | epot = -19.4086952534164 | etot = -13.2825374890875
324000  ekin = 3.02479637479555 |  erot = 2.9835512249436 | epot = -19.2908850885836 | etot = -13.2825374888444
325000  ekin = 2.95294332411579 |  erot = 2.95347420684863 | epot = -19.1889550196703 | etot = -13.2825374887059
326000  ekin = 2.88706743998012 |  erot = 2.93544936652532 | epot = -19.1050542951527 | etot = -13.2825374886473
327000  ekin = 2.82887581625042 |  erot = 2.92851219862423 | epot = -19.0399255035249 | etot = -13.2825374886502
328000  ekin = 2.7799083006856 |  erot = 2.93074772300673 | epot = -18.9931935123989 | etot = -13.2825374887065
329000  ekin = 2.74145002280429 |  erot = 2.93954016638564 | epot = -18.9635276780016 | etot = -13.2825374888116
330000  ekin = 2.71432845550724 |  erot = 2.95189909643594 | epot = -18.9487650408976 | etot = -13.2825374889545
331000  ekin = 2.69870867088015 |  erot = 2.96486608415783 | epot = -18.9461122441539 | etot = -13.2825374891159
332000  ekin = 2.69398517733071 |  erot = 2.9759351218084 | epot = -18.9524577884139 | etot = -13.2825374892748
333000  ekin = 2.69881348537833 |  erot = 2.98337443171614 | epot = -18.9647254065077 | etot = -13.2825374894133
334000  ekin = 2.71127609678656 |  erot = 2.98637176000363 | epot = -18.9801853463082 | etot = -13.282537489518
335000  ekin = 2.72916096430101 |  erot = 2.98501165510017 | epot = -18.9967101089767 | etot = -13.2825374895756
336000  ekin = 2.75032164400955 |  erot = 2.98016551096549 | epot = -19.0130246445444 | etot = -13.2825374895694
337000  ekin = 2.77304615866171 |  erot = 2.97336445321275 | epot = -19.0289481013653 | etot = -13.2825374894909
338000  ekin = 2.79631213711555 |  erot = 2.96664518651948 | epot = -19.0454948129873 | etot = -13.2825374893522
339000  ekin = 2.8198251309544 |  erot = 2.96230352229863 | epot = -19.0646661424453 | etot = -13.2825374891923
340000  ekin = 2.84381599358249 |  erot = 2.96250923740561 | epot = -19.0888627200583 | etot = -13.2825374890702
341000  ekin = 2.86861716322249 |  erot = 2.96879944354184 | epot = -19.1199540958278 | etot = -13.2825374890635
342000  ekin = 2.8942330530754 |  erot = 2.98159830919509 | epot = -19.1583688514537 | etot = -13.2825374891832
343000  ekin = 2.92230469127443 |  erot = 3.00151195978065 | epot = -19.2063541396099 | etot = -13.2825374885548
344000  ekin = 2.95328542678957 |  erot = 3.02739469587516 | epot = -19.2632176118817 | etot = -13.282537489217
345000  ekin = 2.98288076792584 |  erot = 3.05397730230856 | epot = -19.3193955601209 | etot = -13.2825374898865
346000  ekin = 3.0068362280629 |  erot = 3.07579634903275 | epot = -19.3651700675335 | etot = -13.2825374904379
347000  ekin = 3.021682039197 |  erot = 3.0883226978178 | epot = -19.3925422277954 | etot = -13.2825374907806
348000  ekin = 3.02528371459214 |  erot = 3.08873432783574 | epot = -19.3965555333152 | etot = -13.2825374908873
349000  ekin = 3.01708434471769 |  erot = 3.07610751269362 | epot = -19.3757293482008 | etot = -13.2825374907895
350000  ekin = 2.99803087494402 |  erot = 3.05108999688533 | epot = -19.3316583623752 | etot = -13.2825374905459
351000  ekin = 2.97033325354314 |  erot = 3.01539362128504 | epot = -19.268264365027 | etot = -13.2825374901988
352000  ekin = 2.93755453890544 |  erot = 2.97175102427381 | epot = -19.1918430529999 | etot = -13.2825374898207
353000  ekin = 2.90330530001813 |  erot = 2.92291261114237 | epot = -19.1087554005693 | etot = -13.2825374894088
354000  ekin = 2.87126755833568 |  erot = 2.87170321125813 | epot = -19.0255082585641 | etot = -13.2825374889703
355000  ekin = 2.84520639660643 |  erot = 2.82119115452776 | epot = -18.948935039652 | etot = -13.2825374885178
356000  ekin = 2.8287863971603 |  erot = 2.7746321329023 | epot = -18.8859560181437 | etot = -13.2825374880811
357000  ekin = 2.82589501110754 |  erot = 2.73507904234615 | epot = -18.8435115424282 | etot = -13.2825374889745
358000  ekin = 2.83567543256197 |  erot = 2.6999034357179 | epot = -18.8181163574566 | etot = -13.2825374891768
359000  ekin = 2.85413863003174 |  erot = 2.66477535390921 | epot = -18.8014514734662 | etot = -13.2825374895252
360000  ekin = 2.87797108635824 |  erot = 2.62716069413401 | epot = -18.7876692705271 | etot = -13.2825374900349
361000  ekin = 2.90295419334403 |  erot = 2.58324525246715 | epot = -18.7687369364404 | etot = -13.2825374906292
362000  ekin = 2.92446718933308 |  erot = 2.52862237257544 | epot = -18.7356270530351 | etot = -13.2825374911266
363000  ekin = 2.93848759933348 |  erot = 2.45989164640849 | epot = -18.680916737042 | etot = -13.2825374913
364000  ekin = 2.94271150164586 |  erot = 2.37661313123214 | epot = -18.6018621239955 | etot = -13.2825374911175
365000  ekin = 2.93600170081438 |  erot = 2.28250131433965 | epot = -18.5010405056253 | etot = -13.2825374904713
366000  ekin = 2.91934189957478 |  erot = 2.18525996401368 | epot = -18.3871393531652 | etot = -13.2825374895768
367000  ekin = 2.89548895825519 |  erot = 2.0946888564492 | epot = -18.2727153033882 | etot = -13.2825374886839
368000  ekin = 2.86763306547926 |  erot = 2.02026878405327 | epot = -18.1704393375192 | etot = -13.2825374879867
369000  ekin = 2.83845106986046 |  erot = 1.96931673436804 | epot = -18.0903052917965 | etot = -13.282537487568
370000  ekin = 2.80963551309284 |  erot = 1.94618455936313 | epot = -18.0383575598705 | etot = -13.2825374874145
371000  ekin = 2.78188668089849 |  erot = 1.95235490032645 | epot = -18.0167790686888 | etot = -13.2825374874639
372000  ekin = 2.75518266190993 |  erot = 1.98699478725745 | epot = -18.0247149368147 | etot = -13.2825374876473
373000  ekin = 2.7291288052834 |  erot = 2.04757125854604 | epot = -18.0592375517431 | etot = -13.2825374879136
374000  ekin = 2.7032481730965 |  erot = 2.13030562163268 | epot = -18.1160912829679 | etot = -13.2825374882387
375000  ekin = 2.67714701016873 |  erot = 2.23039820126271 | epot = -18.1900827000525 | etot = -13.282537488621
376000  ekin = 2.65054772278943 |  erot = 2.34206662745006 | epot = -18.2751518393106 | etot = -13.2825374890711
377000  ekin = 2.62322866602789 |  erot = 2.45852983339147 | epot = -18.3642959890092 | etot = -13.2825374895898
378000  ekin = 2.59495135704074 |  erot = 2.57214449993232 | epot = -18.4496333471184 | etot = -13.2825374901453
379000  ekin = 2.56546707826881 |  erot = 2.67491697597423 | epot = -18.522921544903 | etot = -13.2825374906599
380000  ekin = 2.53466143096452 |  erot = 2.75950320018323 | epot = -18.5767021221686 | etot = -13.2825374910209
381000  ekin = 2.50280930121905 |  erot = 2.82054519918234 | epot = -18.605891991525 | etot = -13.2825374911236
382000  ekin = 2.47081272773286 |  erot = 2.85587907290837 | epot = -18.6092292915673 | etot = -13.2825374909261
383000  ekin = 2.44026108011578 |  erot = 2.86702983653801 | epot = -18.5898284071325 | etot = -13.2825374904788
384000  ekin = 2.41324034479873 |  erot = 2.85867137365971 | epot = -18.5544492083626 | etot = -13.2825374899041
385000  ekin = 2.3919736779495 |  erot = 2.83724859058569 | epot = -18.5117597578745 | etot = -13.2825374893393
386000  ekin = 2.37848037079693 |  erot = 2.80936838549168 | epot = -18.4703862451677 | etot = -13.2825374888791
387000  ekin = 2.37440773877138 |  erot = 2.78057799551461 | epot = -18.4375232228406 | etot = -13.2825374885547
388000  ekin = 2.38106033998944 |  erot = 2.75482980994152 | epot = -18.4184276382777 | etot = -13.2825374883468
389000  ekin = 2.3995269472836 |  erot = 2.73455852133737 | epot = -18.4166229568386 | etot = -13.2825374882176
390000  ekin = 2.43075796801538 |  erot = 2.72108399953604 | epot = -18.4343794556925 | etot = -13.2825374881411
391000  ekin = 2.47547758104125 |  erot = 2.71503282252802 | epot = -18.4730478916894 | etot = -13.2825374881201
392000  ekin = 2.53389941336301 |  erot = 2.71657607916961 | epot = -18.5330129807166 | etot = -13.282537488184
393000  ekin = 2.60531467139514 |  erot = 2.72543162367145 | epot = -18.6132837834377 | etot = -13.2825374883712
394000  ekin = 2.68770614221053 |  erot = 2.74072420161599 | epot = -18.710967832529 | etot = -13.2825374887024
395000  ekin = 2.77757589910946 |  erot = 2.76089277951269 | epot = -18.821006167779 | etot = -13.2825374891568
396000  ekin = 2.87012638573289 |  erot = 2.78383015196004 | epot = -18.9364940273591 | etot = -13.2825374896661
397000  ekin = 2.95979968456986 |  erot = 2.80730760068458 | epot = -19.0496447753932 | etot = -13.2825374901387
398000  ekin = 3.04101675292502 |  erot = 2.82953067572591 | epot = -19.1530849191498 | etot = -13.2825374904989
399000  ekin = 3.10335323687934 |  erot = 2.84223393462917 | epot = -19.2281247208206 | etot = -13.2825375493121
400000  ekin = 3.10435999781796 |  erot = 2.68059016642954 | epot = -19.0674876235022 | etot = -13.2825374592547
401000  ekin = 3.39309095570315 |  erot = 2.63997900103007 | epot = -19.3156074940371 | etot = -13.2825375373039
402000  ekin = 3.44106634979645 |  erot = 2.659790716706 | epot = -19.3833945765517 | etot = -13.2825375100493
403000  ekin = 3.43207406397009 |  erot = 2.67998452069831 | epot = -19.394596094653 | etot = -13.2825375099846
404000  ekin = 3.40426891789311 |  erot = 2.70237957195789 | epot = -19.3891859997632 | etot = -13.2825375099122
405000  ekin = 3.3593347341666 |  erot = 2.72607645467142 | epot = -19.367948698657 | etot = -13.282537509819
406000  ekin = 3.29966540905146 |  erot = 2.74995079993995 | epot = -19.3321537186901 | etot = -13.2825375096987
407000  ekin = 3.2282311798008 |  erot = 2.77286165525633 | epot = -19.2836303446157 | etot = -13.2825375095586
408000  ekin = 3.1483591073718 |  erot = 2.79373949027867 | epot = -19.2246361070933 | etot = -13.2825375094428
409000  ekin = 3.06351542881959 |  erot = 2.81131469884056 | epot = -19.1573676369638 | etot = -13.2825375093037
410000  ekin = 2.97699949579686 |  erot = 2.82462679197841 | epot = -19.0841637969767 | etot = -13.2825375092014
411000  ekin = 2.89165449989684 |  erot = 2.83289882075493 | epot = -19.0070908297837 | etot = -13.2825375091319
412000  ekin = 2.80978906687504 |  erot = 2.83549592230531 | epot = -18.9278224982521 | etot = -13.2825375090718
413000  ekin = 2.73325536965585 |  erot = 2.83215388787228 | epot = -18.8479467665131 | etot = -13.282537508985
414000  ekin = 2.66364879696115 |  erot = 2.82325639291671 | epot = -18.7694426987162 | etot = -13.2825375088383
415000  ekin = 2.60253860597198 |  erot = 2.81004531899789 | epot = -18.6951214335864 | etot = -13.2825375086165
416000  ekin = 2.55161661471215 |  erot = 2.7946463118532 | epot = -18.6288004349012 | etot = -13.2825375083358
417000  ekin = 2.51265407611577 |  erot = 2.77984605489432 | epot = -18.5750376413434 | etot = -13.2825375103333
418000  ekin = 2.47334604007925 |  erot = 2.77799997552572 | epot = -18.5338835235875 | etot = -13.2825375079825
419000  ekin = 2.44559608969893 |  erot = 2.79655231012718 | epot = -18.5246859081463 | etot = -13.2825375083202
420000  ekin = 2.44884495813904 |  erot = 2.81276776866598 | epot = -18.5441502345702 | etot = -13.2825375077651
421000  ekin = 2.47134322854002 |  erot = 2.82756585669941 | epot = -18.5814465933144 | etot = -13.2825375080749
422000  ekin = 2.50522487694504 |  erot = 2.84806830842347 | epot = -18.6358306938984 | etot = -13.2825375085299
423000  ekin = 2.54673540365736 |  erot = 2.87162843047175 | epot = -18.7009013431671 | etot = -13.282537509038
424000  ekin = 2.5915545267989 |  erot = 2.89540834353031 | epot = -18.7695003798181 | etot = -13.2825375094888
425000  ekin = 2.63549518712503 |  erot = 2.9172494646209 | epot = -18.8352821615391 | etot = -13.2825375097932
426000  ekin = 2.67515430284032 |  erot = 2.93632167691171 | epot = -18.8940134896611 | etot = -13.2825375099091
427000  ekin = 2.70835356711895 |  erot = 2.95332774897864 | epot = -18.9442188259411 | etot = -13.2825375098435
428000  ekin = 2.73429370857904 |  erot = 2.97029523905205 | epot = -18.9871264572657 | etot = -13.2825375096346
429000  ekin = 2.75344687778548 |  erot = 2.99015713231241 | epot = -19.026141519429 | etot = -13.2825375093311
430000  ekin = 2.76726512076715 |  erot = 3.01631311484004 | epot = -19.0661157445923 | etot = -13.2825375089851
431000  ekin = 2.77776520584482 |  erot = 3.05220345439827 | epot = -19.1125061689064 | etot = -13.2825375086633
432000  ekin = 2.78700254672782 |  erot = 3.10077153004471 | epot = -19.1703115852294 | etot = -13.2825375084569
433000  ekin = 2.79644099946406 |  erot = 3.16368547122764 | epot = -19.2426639791689 | etot = -13.2825375084772
434000  ekin = 2.8062952810192 |  erot = 3.24036053939458 | epot = -19.3291933292362 | etot = -13.2825375088224
435000  ekin = 2.81503854863169 |  erot = 3.32707633256549 | epot = -19.4246523907207 | etot = -13.2825375095236
436000  ekin = 2.81936003428183 |  erot = 3.41666372807462 | epot = -19.5185612728498 | etot = -13.2825375104934
437000  ekin = 2.81480689571151 |  erot = 3.49920681099962 | epot = -19.5965512182294 | etot = -13.2825375115182
438000  ekin = 2.79709037800121 |  erot = 3.56380823492809 | epot = -19.643436125261 | etot = -13.2825375123317
439000  ekin = 2.76357573484572 |  erot = 3.60097663047473 | epot = -19.6470898780363 | etot = -13.2825375127159
440000  ekin = 2.71419714341371 |  erot = 3.6047593537822 | epot = -19.6014940098261 | etot = -13.2825375126302
441000  ekin = 2.65147586146338 |  erot = 3.57350682801194 | epot = -19.5075202016436 | etot = -13.2825375121683
442000  ekin = 2.57978868207942 |  erot = 3.50949061111828 | epot = -19.3718168046656 | etot = -13.2825375114679
443000  ekin = 2.50456558754104 |  erot = 3.4178674196423 | epot = -19.2049705178168 | etot = -13.2825375106335
444000  ekin = 2.43185299049922 |  erot = 3.30558723792078 | epot = -19.0199777381447 | etot = -13.2825375097247
445000  ekin = 2.36817510309063 |  erot = 3.18052048207573 | epot = -18.8312330939526 | etot = -13.2825375087862
446000  ekin = 2.32036350430527 |  erot = 3.05081891044131 | epot = -18.6537199226123 | etot = -13.2825375078657
447000  ekin = 2.29507009387958 |  erot = 2.92434156859069 | epot = -18.5019491695481 | etot = -13.2825375070778
448000  ekin = 2.29792306265903 |  erot = 2.80795199471116 | epot = -18.3884125638822 | etot = -13.282537506512
449000  ekin = 2.33256968728525 |  erot = 2.7069587718453 | epot = -18.3220659653954 | etot = -13.2825375062648
450000  ekin = 2.39980570006764 |  erot = 2.6245346844449 | epot = -18.3068778909135 | etot = -13.282537506401
451000  ekin = 2.49706752601175 |  erot = 2.56128240620743 | epot = -18.3408874391531 | etot = -13.2825375069339
452000  ekin = 2.61842576959501 |  erot = 2.51510244034445 | epot = -18.4160657177213 | etot = -13.2825375077819
453000  ekin = 2.75505822099958 |  erot = 2.48156991528656 | epot = -18.5191656452411 | etot = -13.2825375089549
454000  ekin = 2.89583245290297 |  erot = 2.45420794646339 | epot = -18.6325779096657 | etot = -13.2825375102994
455000  ekin = 3.02803920576056 |  erot = 2.42568753016163 | epot = -18.736264247583 | etot = -13.2825375116608
456000  ekin = 3.13847091959985 |  erot = 2.38932191986942 | epot = -18.8103303522404 | etot = -13.2825375127711
457000  ekin = 3.21547363215232 |  erot = 2.34093725374963 | epot = -18.83894839917 | etot = -13.2825375132681
458000  ekin = 3.2519255085167 |  erot = 2.28077893487382 | epot = -18.8152419562951 | etot = -13.2825375129046
459000  ekin = 3.24761130320326 |  erot = 2.21429904484092 | epot = -18.744447859815 | etot = -13.2825375117708
460000  ekin = 3.20922400634736 |  erot = 2.15086461860742 | epot = -18.6426261352081 | etot = -13.2825375102533
461000  ekin = 3.14796311215653 |  erot = 2.10092694607039 | epot = -18.5314275670048 | etot = -13.2825375087779
462000  ekin = 3.07634336775073 |  erot = 2.07329933806439 | epot = -18.4321802134279 | etot = -13.2825375076128
463000  ekin = 3.00570913413418 |  erot = 2.07367404520667 | epot = -18.3619206861977 | etot = -13.2825375068568
464000  ekin = 2.9448582997097 |  erot = 2.10431183996111 | epot = -18.331707646191 | etot = -13.2825375065202
465000  ekin = 2.89946798284609 |  erot = 2.16425406354561 | epot = -18.3462595529816 | etot = -13.2825375065899
466000  ekin = 2.87195252749972 |  erot = 2.24955307487499 | epot = -18.4040431094255 | etot = -13.2825375070508
467000  ekin = 2.86158324930207 |  erot = 2.3533892427293 | epot = -18.4975099999046 | etot = -13.2825375078732
468000  ekin = 2.86493243611993 |  erot = 2.46640127706619 | epot = -18.6138712219846 | etot = -13.2825375087985
469000  ekin = 2.87700241085747 |  erot = 2.57824581694139 | epot = -18.7377857379035 | etot = -13.2825375101046
470000  ekin = 2.89115454215414 |  erot = 2.67606199010798 | epot = -18.8497540435902 | etot = -13.2825375113281
471000  ekin = 2.90087699699085 |  erot = 2.74765202467846 | epot = -18.9310665338721 | etot = -13.2825375122028
472000  ekin = 2.90129360656583 |  erot = 2.7844228810356 | epot = -18.9682540001117 | etot = -13.2825375125102
473000  ekin = 2.89014262487726 |  erot = 2.78350866545128 | epot = -18.9561888025163 | etot = -13.2825375121877
474000  ekin = 2.8679845551896 |  erot = 2.74843722225596 | epot = -18.8989592888163 | etot = -13.2825375113708
475000  ekin = 2.83751222123126 |  erot = 2.68789202057427 | epot = -18.8079417521389 | etot = -13.2825375103333
476000  ekin = 2.80225697256743 |  erot = 2.61311305367502 | epot = -18.6979075356038 | etot = -13.2825375093613
477000  ekin = 2.76525060538535 |  erot = 2.53510543119006 | epot = -18.5828935452222 | etot = -13.2825375086468
478000  ekin = 2.72814283271883 |  erot = 2.46266477167839 | epot = -18.4733451126463 | etot = -13.282537508249
479000  ekin = 2.69099471858041 |  erot = 2.40160392945098 | epot = -18.375136156148 | etot = -13.2825375081166
480000  ekin = 2.6526681049776 |  erot = 2.35496214915731 | epot = -18.2901677623243 | etot = -13.2825375081894
481000  ekin = 2.611442355162 |  erot = 2.32364519373677 | epot = -18.2176250571627 | etot = -13.282537508264
482000  ekin = 2.565776730153 |  erot = 2.30767778316155 | epot = -18.1559920216392 | etot = -13.2825375083247
483000  ekin = 2.51481850308162 |  erot = 2.30660853349362 | epot = -18.1039645449013 | etot = -13.2825375083261
484000  ekin = 2.45838132863017 |  erot = 2.3198450068296 | epot = -18.0607638434524 | etot = -13.2825375079926
485000  ekin = 2.37536403481855 |  erot = 2.30798475223331 | epot = -17.9658863029946 | etot = -13.2825375159427
486000  ekin = 2.31029787369058 |  erot = 2.27486987654653 | epot = -17.8677052455649 | etot = -13.2825374953278
487000  ekin = 2.35903895728042 |  erot = 2.35840823831765 | epot = -17.9999847156837 | etot = -13.2825375200856
488000  ekin = 2.35207405535098 |  erot = 2.45495770508831 | epot = -18.0895692764695 | etot = -13.2825375160302
489000  ekin = 2.32025825397052 |  erot = 2.54616767539779 | epot = -18.1489634454364 | etot = -13.2825375160681
490000  ekin = 2.29515153869984 |  erot = 2.64227715696153 | epot = -18.2199662119964 | etot = -13.282537516335
491000  ekin = 2.27724499850078 |  erot = 2.73950547060331 | epot = -18.2992879857125 | etot = -13.2825375166084
492000  ekin = 2.26670396937252 |  erot = 2.83351832936053 | epot = -18.3827598156682 | etot = -13.2825375169351
493000  ekin = 2.26314468317306 |  erot = 2.91977614251813 | epot = -18.4654583429642 | etot = -13.282537517273
494000  ekin = 2.26577113863215 |  erot = 2.99399214332928 | epot = -18.5423007995401 | etot = -13.2825375175787
495000  ekin = 2.27355094493377 |  erot = 3.05259857144223 | epot = -18.6086870341908 | etot = -13.2825375178148
496000  ekin = 2.28538641733465 |  erot = 3.09313022185941 | epot = -18.661054157153 | etot = -13.282537517959
497000  ekin = 2.3002347482521 |  erot = 3.11444072103781 | epot = -18.6972129872905 | etot = -13.2825375180006
498000  ekin = 2.31719365941364 |  erot = 3.11678508297333 | epot = -18.7165162603266 | etot = -13.2825375179397
499000  ekin = 2.33554254163157 |  erot = 3.10178716717433 | epot = -18.7198672265901 | etot = -13.2825375177842
500000  ekin = 2.31317350075609 |  erot = 3.05449093052383 | epot = -18.6502019679387 | etot = -13.2825375366588
501000  ekin = 2.31231722963358 |  erot = 3.00810318070389 | epot = -18.6029579370661 | etot = -13.2825375267286
502000  ekin = 2.38999638954889 |  erot = 2.98467042895374 | epot = -18.657204342138 | etot = -13.2825375236353
503000  ekin = 2.41312387634462 |  erot = 2.93091691360098 | epot = -18.6265783132937 | etot = -13.2825375233481
504000  ekin = 2.43600229238282 |  erot = 2.88130858484448 | epot = -18.5998484003617 | etot = -13.2825375231344
505000  ekin = 2.45757791197103 |  erot = 2.84011866669662 | epot = -18.5802341017161 | etot = -13.2825375230484
506000  ekin = 2.47627134224707 |  erot = 2.81025901810999 | epot = -18.5690678834978 | etot = -13.2825375231408
507000  ekin = 2.48985246050729 |  erot = 2.79268587937519 | epot = -18.5650758633262 | etot = -13.2825375234437
508000  ekin = 2.49542483825231 |  erot = 2.78597986942009 | epot = -18.5639422316207 | etot = -13.2825375239483
509000  ekin = 2.48963204749862 |  erot = 2.78630577999958 | epot = -18.5584753520799 | etot = -13.2825375245818
510000  ekin = 2.46917438876006 |  erot = 2.78796571286371 | epot = -18.5396776268285 | etot = -13.2825375252047
511000  ekin = 2.43159454916956 |  erot = 2.78459744700141 | epot = -18.4987295218192 | etot = -13.2825375256482
512000  ekin = 2.37609227914812 |  erot = 2.7707369794783 | epot = -18.4293667844085 | etot = -13.2825375257821
513000  ekin = 2.30402039320529 |  erot = 2.74317280239451 | epot = -18.3297307211707 | etot = -13.2825375255709
514000  ekin = 2.21884081240883 |  erot = 2.70155414867794 | epot = -18.2029324861636 | etot = -13.2825375250768
515000  ekin = 2.12561338169144 |  erot = 2.64810551844221 | epot = -18.0562564245494 | etot = -13.2825375244158
516000  ekin = 2.0302995856451 |  erot = 2.5867398599196 | epot = -17.8995769692659 | etot = -13.2825375237012
517000  ekin = 1.93914577194817 |  erot = 2.52206054313542 | epot = -17.7437438380945 | etot = -13.2825375230109
518000  ekin = 1.85826662411615 |  erot = 2.45858700715108 | epot = -17.5993911536592 | etot = -13.2825375223919
519000  ekin = 1.79333215324367 |  erot = 2.40035341708211 | epot = -17.4762230921876 | etot = -13.2825375218619
520000  ekin = 1.74929005168975 |  erot = 2.35078235676691 | epot = -17.3826099298929 | etot = -13.2825375214363
521000  ekin = 1.73007209345073 |  erot = 2.31266171840817 | epot = -17.3252713329969 | etot = -13.282537521138
522000  ekin = 1.73822781682595 |  erot = 2.2881155718937 | epot = -17.3088809097143 | etot = -13.2825375209947
523000  ekin = 1.77456624772603 |  erot = 2.2785083458307 | epot = -17.3356121145903 | etot = -13.2825375210336
524000  ekin = 1.83790458514344 |  erot = 2.28429322274723 | epot = -17.4047353291616 | etot = -13.2825375212709
525000  ekin = 1.92500868748296 |  erot = 2.30484700359195 | epot = -17.5123932127819 | etot = -13.282537521707
526000  ekin = 2.0307578025818 |  erot = 2.33833465322601 | epot = -17.651629978134 | etot = -13.2825375223262
527000  ekin = 2.14850843905356 |  erot = 2.38164040104833 | epot = -17.8126863631983 | etot = -13.2825375230964
528000  ekin = 2.27060096649051 |  erot = 2.43041424715665 | epot = -17.9835527376135 | etot = -13.2825375239663
529000  ekin = 2.38896012863249 |  erot = 2.4793138751117 | epot = -18.1508115286032 | etot = -13.282537524859
530000  ekin = 2.49576940535655 |  erot = 2.52254117021849 | epot = -18.3008481012414 | etot = -13.2825375256663
531000  ekin = 2.58420744220974 |  erot = 2.55472238426385 | epot = -18.4214673527334 | etot = -13.2825375262598
532000  ekin = 2.64918587017627 |  erot = 2.57201883162556 | epot = -18.5037422283274 | etot = -13.2825375265255
533000  ekin = 2.68793333155572 |  erot = 2.57313230810709 | epot = -18.5436031660763 | etot = -13.2825375264134
534000  ekin = 2.70021208216117 |  erot = 2.55975253147949 | epot = -18.542502139612 | etot = -13.2825375259714
535000  ekin = 2.68802701634936 |  erot = 2.53615014862128 | epot = -18.5067146903044 | etot = -13.2825375253337
536000  ekin = 2.65489019113449 |  erot = 2.50801671125187 | epot = -18.445444427055 | etot = -13.2825375246686
537000  ekin = 2.60490332065097 |  erot = 2.48102333788784 | epot = -18.3684641826523 | etot = -13.2825375241135
538000  ekin = 2.54198784537002 |  erot = 2.45965628961172 | epot = -18.2841816579271 | etot = -13.2825375229454
539000  ekin = 2.47150013366557 |  erot = 2.44756195583901 | epot = -18.2015996124771 | etot = -13.2825375229725
540000  ekin = 2.39647534126896 |  erot = 2.4452543590462 | epot = -18.1242672233716 | etot = -13.2825375230564
541000  ekin = 2.31786635168338 |  erot = 2.45130088253407 | epot = -18.0517047573377 | etot = -13.2825375231202
542000  ekin = 2.23702678132889 |  erot = 2.4642388816219 | epot = -17.983803186044 | etot = -13.2825375230932
543000  ekin = 2.15612181951174 |  erot = 2.483136674149 | epot = -17.9217960165952 | etot = -13.2825375229345
544000  ekin = 2.07836492819822 |  erot = 2.50789688708103 | epot = -17.8687993379301 | etot = -13.2825375226508
545000  ekin = 2.00794258372951 |  erot = 2.53918840886296 | epot = -17.8296685148941 | etot = -13.2825375223016
546000  ekin = 1.94957099412975 |  erot = 2.578008196098 | epot = -17.8101167122069 | etot = -13.2825375219791
547000  ekin = 1.9077624243153 |  erot = 2.62501532097517 | epot = -17.8153152670783 | etot = -13.2825375217878
548000  ekin = 1.88600984710573 |  erot = 2.67988146408135 | epot = -17.8484288329841 | etot = -13.282537521797
549000  ekin = 1.88615242689691 |  erot = 2.74090375620349 | epot = -17.909593705124 | etot = -13.2825375220236
550000  ekin = 1.90811801080135 |  erot = 2.80501593005898 | epot = -17.9956714632894 | etot = -13.282537522429
551000  ekin = 1.95008337623402 |  erot = 2.86816804419082 | epot = -18.1007889433658 | etot = -13.2825375229409
552000  ekin = 2.00893649351174 |  erot = 2.92590890426342 | epot = -18.2173829212562 | etot = -13.282537523481
553000  ekin = 2.08084803911103 |  erot = 2.97396311008449 | epot = -18.3373486731828 | etot = -13.2825375239872
554000  ekin = 2.16178844742615 |  erot = 3.00865361313796 | epot = -18.4529795849852 | etot = -13.2825375244211
555000  ekin = 2.24792031030894 |  erot = 3.02713377648476 | epot = -18.5575916115531 | etot = -13.2825375247594
556000  ekin = 2.3358895304738 |  erot = 3.02749801445229 | epot = -18.6459250699077 | etot = -13.2825375249816
557000  ekin = 2.42273135018697 |  erot = 3.00799378133903 | epot = -18.7132626568713 | etot = -13.2825375253453
558000  ekin = 2.50467530619079 |  erot = 2.96457109807151 | epot = -18.7517839296409 | etot = -13.2825375253786
559000  ekin = 2.57989829547792 |  erot = 2.89795083547094 | epot = -18.7603866561117 | etot = -13.2825375251628
560000  ekin = 2.64819333040997 |  erot = 2.8115011418383 | epot = -18.7422319969952 | etot = -13.282537524747
561000  ekin = 2.71041014716014 |  erot = 2.71050571090859 | epot = -18.7034533823107 | etot = -13.282537524242
562000  ekin = 2.76764108184349 |  erot = 2.60142670481719 | epot = -18.6516053104339 | etot = -13.2825375237732
563000  ekin = 2.82041332178183 |  erot = 2.49094539995269 | epot = -18.5938962451522 | etot = -13.2825375234177
564000  ekin = 2.86835957176528 |  erot = 2.38512022706598 | epot = -18.5360173220094 | etot = -13.2825375231781
565000  ekin = 2.9105055625117 |  erot = 2.2888699309895 | epot = -18.4819130165188 | etot = -13.2825375230176
566000  ekin = 2.9458361953691 |  erot = 2.20572382108587 | epot = -18.4340975393717 | etot = -13.2825375229167
567000  ekin = 2.97364576057443 |  erot = 2.13764971279795 | epot = -18.3938329962642 | etot = -13.2825375228919
568000  ekin = 2.99348659092395 |  erot = 2.08490808290625 | epot = -18.3609321968044 | etot = -13.2825375229742
569000  ekin = 3.00487691648673 |  erot = 2.04604350391468 | epot = -18.3334579435673 | etot = -13.2825375231659
570000  ekin = 3.00710556183365 |  erot = 2.01819764938775 | epot = -18.3078407346463 | etot = -13.2825375234249
571000  ekin = 2.99930468668979 |  erot = 1.99774357915448 | epot = -18.2795857895248 | etot = -13.2825375236806
572000  ekin = 2.98076231240025 |  erot = 1.98107714031761 | epot = -18.2443769765725 | etot = -13.2825375238547
573000  ekin = 2.95134611356941 |  erot = 1.96535938854021 | epot = -18.1992430259928 | etot = -13.2825375238832
574000  ekin = 2.91190615159568 |  erot = 1.94906161388935 | epot = -18.1435052892122 | etot = -13.2825375237272
575000  ekin = 2.86455063786228 |  erot = 1.93223482555562 | epot = -18.0793229868005 | etot = -13.2825375233826
576000  ekin = 2.81270724058511 |  erot = 1.91646454101314 | epot = -18.0117093044836 | etot = -13.2825375228853
577000  ekin = 2.76090536133269 |  erot = 1.90450382048591 | epot = -17.9479467041287 | etot = -13.2825375223101
578000  ekin = 2.71428886863997 |  erot = 1.89991544414445 | epot = -17.8967418344493 | etot = -13.2825375216648
579000  ekin = 2.67747364116322 |  erot = 1.90598531717311 | epot = -17.8659964796474 | etot = -13.2825375213111
580000  ekin = 2.65399321105106 |  erot = 1.92422800253716 | epot = -17.8607587347071 | etot = -13.2825375211188
581000  ekin = 2.64614770794032 |  erot = 1.95489680825185 | epot = -17.8835820373323 | etot = -13.2825375211401
582000  ekin = 2.65445309241879 |  erot = 1.99685469221747 | epot = -17.9338453060313 | etot = -13.2825375213951
583000  ekin = 2.67733631615637 |  erot = 2.04763712314961 | epot = -18.0075109611623 | etot = -13.2825375218563
584000  ekin = 2.71054840612045 |  erot = 2.10372916962355 | epot = -18.096815098413 | etot = -13.282537522669
585000  ekin = 2.7473776369314 |  erot = 2.16073411837509 | epot = -18.1906492786902 | etot = -13.2825375233837
586000  ekin = 2.78137869995175 |  erot = 2.21419390101714 | epot = -18.2781101249393 | etot = -13.2825375239704
587000  ekin = 2.80697388616102 |  erot = 2.26053952383221 | epot = -18.3500509343302 | etot = -13.282537524337
588000  ekin = 2.82026432882546 |  erot = 2.29760845660692 | epot = -18.4004103098989 | etot = -13.2825375244665
589000  ekin = 2.81926713949848 |  erot = 2.32471340247678 | epot = -18.4265180663829 | etot = -13.2825375244076
590000  ekin = 2.80363912226355 |  erot = 2.34232144628702 | epot = -18.4284980927864 | etot = -13.2825375242358
591000  ekin = 2.77414618261205 |  erot = 2.35158565793045 | epot = -18.4082693645578 | etot = -13.2825375240153
592000  ekin = 2.7321416208566 |  erot = 2.3539767270547 | epot = -18.3686558716927 | etot = -13.2825375237814
593000  ekin = 2.67919893320834 |  erot = 2.35111989743036 | epot = -18.3128563541844 | etot = -13.2825375235457
594000  ekin = 2.61691997595324 |  erot = 2.34478637080631 | epot = -18.2442438700672 | etot = -13.2825375233077
595000  ekin = 2.54687226720393 |  erot = 2.33692048101831 | epot = -18.1663302712882 | etot = -13.282537523066
596000  ekin = 2.47060065869688 |  erot = 2.32961421032747 | epot = -18.0827523918473 | etot = -13.2825375228229
597000  ekin = 2.38967001339545 |  erot = 2.32500896596326 | epot = -17.9972165019425 | etot = -13.2825375225838
598000  ekin = 2.30571268105541 |  erot = 2.32515834060355 | epot = -17.913408544013 | etot = -13.2825375223541
599000  ekin = 2.22046028573514 |  erot = 2.33189649117281 | epot = -17.8348942990478 | etot = -13.2825375221398
600000  ekin = 2.13574370513921 |  erot = 2.34673734055139 | epot = -17.7650185676378 | etot = -13.2825375219472
601000  ekin = 2.05345123960456 |  erot = 2.37080533027377 | epot = -17.7067940916633 | etot = -13.282537521785
602000  ekin = 1.97544542075628 |  erot = 2.40478648027266 | epot = -17.6627694226918 | etot = -13.2825375216629
603000  ekin = 1.90345105222632 |  erot = 2.44889273151597 | epot = -17.6348813053331 | etot = -13.2825375215908
604000  ekin = 1.83893895965995 |  erot = 2.50284547564257 | epot = -17.6243219568744 | etot = -13.2825375215719
605000  ekin = 1.78304137675034 |  erot = 2.56590806862715 | epot = -17.6314869669817 | etot = -13.2825375216042
606000  ekin = 1.73651700581096 |  erot = 2.63697396076247 | epot = -17.6560284882492 | etot = -13.2825375216757
607000  ekin = 1.69978182244358 |  erot = 2.71471645477294 | epot = -17.6970357989852 | etot = -13.2825375217686
608000  ekin = 1.67299629761026 |  erot = 2.79777529949349 | epot = -17.7533091189676 | etot = -13.2825375218638
609000  ekin = 1.65617951207475 |  erot = 2.88492902620219 | epot = -17.8236460602245 | etot = -13.2825375219476
610000  ekin = 1.64931072757095 |  erot = 2.97519911997342 | epot = -17.9070473695603 | etot = -13.282537522016
611000  ekin = 1.65238727041245 |  erot = 3.06785620888426 | epot = -18.0027810013707 | etot = -13.282537522074
612000  ekin = 1.66542824850629 |  erot = 3.16233835683711 | epot = -18.1103041274766 | etot = -13.2825375221332
613000  ekin = 1.68843555876185 |  erot = 3.25812385015835 | epot = -18.229096931125 | etot = -13.2825375222048
614000  ekin = 1.72133601897789 |  erot = 3.35460405549752 | epot = -18.3584775967737 | etot = -13.2825375222983
615000  ekin = 1.7639238606995 |  erot = 3.45098117154084 | epot = -18.4974425546615 | etot = -13.2825375224212
616000  ekin = 1.81580855367603 |  erot = 3.54618284196742 | epot = -18.6445289182257 | etot = -13.2825375225823
617000  ekin = 1.87635766459386 |  erot = 3.63876572276478 | epot = -18.7976609101535 | etot = -13.2825375227949
618000  ekin = 1.94461656677602 |  erot = 3.72678561689433 | epot = -18.9539397067471 | etot = -13.2825375230768
619000  ekin = 2.01919440960516 |  erot = 3.80764382999315 | epot = -19.1093757630453 | etot = -13.282537523447
620000  ekin = 2.09812821746402 |  erot = 3.87796751070656 | epot = -19.2586332520846 | etot = -13.282537523914
621000  ekin = 2.17876896466308 |  erot = 3.93362434682925 | epot = -19.3949308359561 | etot = -13.2825375244638
622000  ekin = 2.25776112958401 |  erot = 3.96997899351304 | epot = -19.5102776481477 | etot = -13.2825375250507
623000  ekin = 2.33118920334088 |  erot = 3.98244070292824 | epot = -19.5961674318684 | etot = -13.2825375255993
624000  ekin = 2.39492361725441 |  erot = 3.96722578250777 | epot = -19.6446869257843 | etot = -13.2825375260221
625000  ekin = 2.44512221108716 |  erot = 3.9221202536408 | epot = -19.6497799909757 | etot = -13.2825375262478
626000  ekin = 2.47876984854015 |  erot = 3.84697362699248 | epot = -19.6082810017757 | etot = -13.282537526243
627000  ekin = 2.49411681806274 |  erot = 3.74375083232696 | epot = -19.5204051764073 | etot = -13.2825375260176
628000  ekin = 2.49092177732992 |  erot = 3.61617309028914 | epot = -19.3896323932286 | etot = -13.2825375256095
629000  ekin = 2.47048208798929 |  erot = 3.46915451618023 | epot = -19.2221741292344 | etot = -13.2825375250648
630000  ekin = 2.43548970076025 |  erot = 3.30827690339842 | epot = -19.0263041285834 | etot = -13.2825375244248
631000  ekin = 2.38975949010187 |  erot = 3.13944249310663 | epot = -18.8117395069329 | etot = -13.2825375237244
632000  ekin = 2.33785618710456 |  erot = 2.96869689900809 | epot = -18.5890906091134 | etot = -13.2825375230008
633000  ekin = 2.28462964554081 |  erot = 2.80211551079199 | epot = -18.3692826786328 | etot = -13.2825375223
634000  ekin = 2.2346774623099 |  erot = 2.64563252181923 | epot = -18.1628475058086 | etot = -13.2825375216794
635000  ekin = 2.15322765553028 |  erot = 2.4783509433522 | epot = -17.9141161496004 | etot = -13.2825375507179
636000  ekin = 2.045499081381 |  erot = 2.31412508402215 | epot = -17.6421616868316 | etot = -13.2825375214284
637000  ekin = 2.11104805172142 |  erot = 2.29419960724925 | epot = -17.6877852051452 | etot = -13.2825375461745
638000  ekin = 2.16990019918255 |  erot = 2.26795673930499 | epot = -17.720394476478 | etot = -13.2825375379904
639000  ekin = 2.15825321743049 |  erot = 2.17815663921299 | epot = -17.618947382429 | etot = -13.2825375257855
640000  ekin = 2.18911467639275 |  erot = 2.15600946820072 | epot = -17.627661668601 | etot = -13.2825375240076
641000  ekin = 2.26653815117271 |  erot = 2.22106973659358 | epot = -17.7701454239566 | etot = -13.2825375361904
642000  ekin = 2.31444694707114 |  erot = 2.28426426133692 | epot = -17.881248736019 | etot = -13.282537527611
643000  ekin = 2.32966846048322 |  erot = 2.3262511385741 | epot = -17.9384571271816 | etot = -13.2825375281243
644000  ekin = 2.33971908597949 |  erot = 2.36941556707019 | epot = -17.9916721815437 | etot = -13.2825375284941
645000  ekin = 2.34497836829283 |  erot = 2.40804261243074 | epot = -18.0355585093822 | etot = -13.2825375286587
646000  ekin = 2.34716147904814 |  erot = 2.43809135035135 | epot = -18.0677903580053 | etot = -13.2825375286058
647000  ekin = 2.3490135196742 |  erot = 2.45765540462488 | epot = -18.0892064526769 | etot = -13.2825375283778
648000  ekin = 2.35429037946817 |  erot = 2.46814608860667 | epot = -18.1049739961949 | etot = -13.28253752812
649000  ekin = 2.36637490458858 |  erot = 2.47306901786727 | epot = -18.1219814504981 | etot = -13.2825375280423
650000  ekin = 2.38594651005796 |  erot = 2.47280388226564 | epot = -18.1412879203047 | etot = -13.2825375279811
651000  ekin = 2.4129073237406 |  erot = 2.4679750054794 | epot = -18.163419857161 | etot = -13.282537527941
652000  ekin = 2.44657292389676 |  erot = 2.45942209560756 | epot = -18.1885325474125 | etot = -13.2825375279081
653000  ekin = 2.48591189111066 |  erot = 2.44818643115487 | epot = -18.2166358501265 | etot = -13.282537527861
654000  ekin = 2.52980786333011 |  erot = 2.43558904341108 | epot = -18.2479344345246 | etot = -13.2825375277834
655000  ekin = 2.57725720727345 |  erot = 2.42329690324718 | epot = -18.2830916381947 | etot = -13.2825375276741
656000  ekin = 2.62745567851939 |  erot = 2.41329334478414 | epot = -18.3232865508506 | etot = -13.2825375275471
657000  ekin = 2.67977157718863 |  erot = 2.40771681171411 | epot = -18.3700259163334 | etot = -13.2825375274306
658000  ekin = 2.73363379212944 |  erot = 2.40858022047282 | epot = -18.4247515399622 | etot = -13.2825375273599
659000  ekin = 2.78837854445156 |  erot = 2.41741767313059 | epot = -18.4883337449508 | etot = -13.2825375273687
660000  ekin = 2.8431453631021 |  erot = 2.43497153575953 | epot = -18.5606544262937 | etot = -13.282537527432
661000  ekin = 2.89550751705154 |  erot = 2.46002725134826 | epot = -18.6380722964866 | etot = -13.2825375280868
662000  ekin = 2.93874528639294 |  erot = 2.48685588449209 | epot = -18.708138699583 | etot = -13.282537528698
663000  ekin = 2.96871719420213 |  erot = 2.51022783061785 | epot = -18.7614825540622 | etot = -13.2825375292422
664000  ekin = 2.98246138426592 |  erot = 2.52516926728115 | epot = -18.7901681811315 | etot = -13.2825375295844
[...]
835000  ekin = 2.65594315943653 |  erot = 2.28352232821168 | epot = -18.2220029049695 | etot = -13.2825374173213
836000  ekin = 2.70130042683167 |  erot = 2.26019210697788 | epot = -18.244029951319 | etot = -13.2825374175095
837000  ekin = 2.73418787962871 |  erot = 2.24090836893314 | epot = -18.2576336661722 | etot = -13.2825374176104
838000  ekin = 2.75431729342696 |  erot = 2.22474076288568 | epot = -18.2615954739057 | etot = -13.2825374175931
839000  ekin = 2.76274241629131 |  erot = 2.21121141093012 | epot = -18.256491244675 | etot = -13.2825374174536
840000  ekin = 2.76179432989972 |  erot = 2.20041723303662 | epot = -18.2447489801545 | etot = -13.2825374172182
841000  ekin = 2.75470877518085 |  erot = 2.19297958495076 | epot = -18.2302257770756 | etot = -13.2825374169439
842000  ekin = 2.74495192528053 |  erot = 2.18982916449433 | epot = -18.2173185064846 | etot = -13.2825374167098
843000  ekin = 2.73536701846579 |  erot = 2.19185320024881 | epot = -18.2097576353086 | etot = -13.282537416594
844000  ekin = 2.72739699349177 |  erot = 2.1994851694244 | epot = -18.2094195795621 | etot = -13.2825374166459
845000  ekin = 2.7206968024524 |  erot = 2.21238342751528 | epot = -18.2156176468218 | etot = -13.2825374168541
846000  ekin = 2.71335246036253 |  erot = 2.22935500856137 | epot = -18.2252448860709 | etot = -13.282537417147
847000  ekin = 2.70267547916117 |  erot = 2.24859000373239 | epot = -18.2338029003123 | etot = -13.2825374174188
848000  ekin = 2.68627675195779 |  erot = 2.26812231144288 | epot = -18.236936480973 | etot = -13.2825374175723
849000  ekin = 2.66300406671244 |  erot = 2.2863229263121 | epot = -18.2318644105805 | etot = -13.282537417556
850000  ekin = 2.63341305523148 |  erot = 2.30223029747857 | epot = -18.2181807700874 | etot = -13.2825374173774
851000  ekin = 2.59966043365591 |  erot = 2.3156167587262 | epot = -18.1978146094748 | etot = -13.2825374170927
852000  ekin = 2.56493307993571 |  erot = 2.32681510713484 | epot = -18.1742856038479 | etot = -13.2825374167774
853000  ekin = 2.53268459155754 |  erot = 2.33642702138572 | epot = -18.1516490294471 | etot = -13.2825374165038
854000  ekin = 2.50591352797944 |  erot = 2.34503055123976 | epot = -18.1334814955374 | etot = -13.2825374163182
855000  ekin = 2.4866740476675 |  erot = 2.35297873120409 | epot = -18.1221901951049 | etot = -13.2825374162333
856000  ekin = 2.47592780860343 |  erot = 2.36034202539965 | epot = -18.1188072502362 | etot = -13.2825374162331
857000  ekin = 2.47367803510516 |  erot = 2.36697109794411 | epot = -18.1231865493438 | etot = -13.2825374162946
858000  ekin = 2.47922391681366 |  erot = 2.37260088210265 | epot = -18.1343622152926 | etot = -13.2825374163763
859000  ekin = 2.49150776870147 |  erot = 2.37701215984104 | epot = -18.1510573449986 | etot = -13.282537416456
860000  ekin = 2.50937686784747 |  erot = 2.38013993594023 | epot = -18.1720542203101 | etot = -13.2825374165224
861000  ekin = 2.53170635996116 |  erot = 2.38211817150425 | epot = -18.1963619480387 | etot = -13.2825374165732
862000  ekin = 2.55742566626407 |  erot = 2.38328933264109 | epot = -18.2232524155165 | etot = -13.2825374166114
863000  ekin = 2.58549483187838 |  erot = 2.38419488482973 | epot = -18.252227133347 | etot = -13.2825374166389
864000  ekin = 2.61488041066499 |  erot = 2.38555368834993 | epot = -18.2829715156728 | etot = -13.2825374166579
865000  ekin = 2.64455846347095 |  erot = 2.38821849192421 | epot = -18.3153143720654 | etot = -13.2825374166702
866000  ekin = 2.67354800424437 |  erot = 2.39309523344314 | epot = -18.3491806543665 | etot = -13.282537416679
867000  ekin = 2.70096216988177 |  erot = 2.40101926554071 | epot = -18.3845188521138 | etot = -13.2825374166913
868000  ekin = 2.72584498338572 |  erot = 2.41260829074957 | epot = -18.420990690944 | etot = -13.2825374168087
869000  ekin = 2.74685098606623 |  erot = 2.42808376653873 | epot = -18.4574721694777 | etot = -13.2825374168728
870000  ekin = 2.76334516398283 |  erot = 2.44707202879413 | epot = -18.4929546097441 | etot = -13.2825374169672
871000  ekin = 2.77488977710316 |  erot = 2.46856883163597 | epot = -18.5259960258323 | etot = -13.2825374170932
872000  ekin = 2.7811573123189 |  erot = 2.49101078851438 | epot = -18.5547055180778 | etot = -13.2825374172445
873000  ekin = 2.78190152502928 |  erot = 2.51241399879738 | epot = -18.5768529412309 | etot = -13.2825374174043
874000  ekin = 2.77696693725528 |  erot = 2.53063897161364 | epot = -18.5901433264131 | etot = -13.2825374175441
875000  ekin = 2.76636320213146 |  erot = 2.54374754436265 | epot = -18.5926481641224 | etot = -13.2825374176283
876000  ekin = 2.7504069828229 |  erot = 2.55039472310231 | epot = -18.5833391235459 | etot = -13.2825374176207
877000  ekin = 2.72989722810813 |  erot = 2.55017286557422 | epot = -18.5626075111784 | etot = -13.2825374174961
878000  ekin = 2.70625700294355 |  erot = 2.54382115071376 | epot = -18.5326155709077 | etot = -13.2825374172503
879000  ekin = 2.68156506653427 |  erot = 2.5332421351554 | epot = -18.4973446185932 | etot = -13.2825374169036
880000  ekin = 2.65843100554442 |  erot = 2.52132216836891 | epot = -18.4622905904093 | etot = -13.282537416496
881000  ekin = 2.63972432922979 |  erot = 2.51160592366972 | epot = -18.4338676689779 | etot = -13.2825374160784
882000  ekin = 2.62822235403347 |  erot = 2.50790034454678 | epot = -18.4186601142802 | etot = -13.2825374157
883000  ekin = 2.62626662137136 |  erot = 2.51387422299541 | epot = -18.4226782597687 | etot = -13.2825374154019
884000  ekin = 2.63550251772652 |  erot = 2.53269090787765 | epot = -18.4507308408175 | etot = -13.2825374152133
885000  ekin = 2.65673814855014 |  erot = 2.56668643457077 | epot = -18.5059619982733 | etot = -13.2825374151524
886000  ekin = 2.68991717237218 |  erot = 2.61709354768266 | epot = -18.5895481352837 | etot = -13.2825374152289
887000  ekin = 2.734175532827 |  erot = 2.68381522130244 | epot = -18.700528169575 | etot = -13.2825374154455
888000  ekin = 2.78795008719356 |  erot = 2.76526591136903 | epot = -18.8357534143588 | etot = -13.2825374157962
889000  ekin = 2.8491201813508 |  erot = 2.85831710930318 | epot = -18.989974706918 | etot = -13.282537416264
890000  ekin = 2.91517691868807 |  erot = 2.95839462643955 | epot = -19.1561089619448 | etot = -13.2825374168172
891000  ekin = 2.98341767192295 |  erot = 3.0597676506775 | epot = -19.3257227400102 | etot = -13.2825374174098
892000  ekin = 3.05115351644501 |  erot = 3.15603968258129 | epot = -19.4897306170114 | etot = -13.2825374179851
893000  ekin = 3.11590367361418 |  erot = 3.24080526805507 | epot = -19.6392463601538 | etot = -13.2825374184846
894000  ekin = 3.17554453075818 |  erot = 3.30838805788589 | epot = -19.7664700075009 | etot = -13.2825374188568
895000  ekin = 3.22839008561766 |  erot = 3.35454380060236 | epot = -19.8654713052867 | etot = -13.2825374190666
896000  ekin = 3.27319975165836 |  erot = 3.37700709394957 | epot = -19.9327442647079 | etot = -13.2825374191
897000  ekin = 3.30912548499472 |  erot = 3.37578332995761 | epot = -19.9674462339186 | etot = -13.2825374189663
898000  ekin = 3.33561719415195 |  erot = 3.35313099566656 | epot = -19.9712856085154 | etot = -13.2825374186968
899000  ekin = 3.3523031028265 |  erot = 3.31323476596136 | epot = -19.9480752871285 | etot = -13.2825374183407
900000  ekin = 3.35886034531518 |  erot = 3.26162723064569 | epot = -19.9030249939161 | etot = -13.2825374179552
901000  ekin = 3.35489762759567 |  erot = 3.2044644832284 | epot = -19.8418995284194 | etot = -13.2825374175953
902000  ekin = 3.33988398839342 |  erot = 3.14778460407791 | epot = -19.7702060097741 | etot = -13.2825374173028
903000  ekin = 3.31316641909532 |  erot = 3.09687096103035 | epot = -19.6925747972223 | etot = -13.2825374170966
904000  ekin = 3.27411465419852 |  erot = 3.05580881217869 | epot = -19.6124608833472 | etot = -13.2825374169699
905000  ekin = 3.22240761869358 |  erot = 3.02727711490202 | epot = -19.5322221504879 | etot = -13.2825374168923
906000  ekin = 3.15843123363071 |  erot = 3.01257047164431 | epot = -19.4535391220934 | etot = -13.2825374168184
907000  ekin = 3.08369713046712 |  erot = 3.01180553644323 | epot = -19.3780400836148 | etot = -13.2825374167044
908000  ekin = 3.00113487352882 |  erot = 3.02423547646297 | epot = -19.3079077665171 | etot = -13.2825374165253
909000  ekin = 2.91509126964 |  erot = 3.04858097597399 | epot = -19.246209661904 | etot = -13.28253741629
910000  ekin = 2.83091809249006 |  erot = 3.08328866196603 | epot = -19.1967441705011 | etot = -13.282537416045
911000  ekin = 2.75416042802549 |  erot = 3.12665661766781 | epot = -19.1633544615573 | etot = -13.282537415864
912000  ekin = 2.68982240197673 |  erot = 3.17670303509253 | epot = -19.1490628528293 | etot = -13.2825374157601
913000  ekin = 2.64026279480142 |  erot = 3.23106967171228 | epot = -19.1538698824696 | etot = -13.2825374159559
914000  ekin = 2.60494541586834 |  erot = 3.28757760350067 | epot = -19.1750604355173 | etot = -13.2825374161483
915000  ekin = 2.58331294380949 |  erot = 3.34356245576663 | epot = -19.2094128163232 | etot = -13.282537416747
916000  ekin = 2.572225278094 |  erot = 3.39542630003117 | epot = -19.250188995406 | etot = -13.2825374172809
917000  ekin = 2.56717380000648 |  erot = 3.43991413165374 | epot = -19.2896253494389 | etot = -13.2825374177786
918000  ekin = 2.56366862414259 |  erot = 3.47431911369141 | epot = -19.3205251559853 | etot = -13.2825374181513
919000  ekin = 2.55808580528835 |  erot = 3.4968825160616 | epot = -19.337505739687 | etot = -13.2825374183371
920000  ekin = 2.54828083604877 |  erot = 3.50706786620944 | epot = -19.3378861205732 | etot = -13.2825374183149
921000  ekin = 2.5338583783986 |  erot = 3.5055796155901 | epot = -19.3219754120972 | etot = -13.2825374181085
922000  ekin = 2.516060534879 |  erot = 3.49409623125511 | epot = -19.2926941839177 | etot = -13.2825374177836
923000  ekin = 2.49728909023619 |  erot = 3.47476611514256 | epot = -19.2545926228132 | etot = -13.2825374174344
924000  ekin = 2.48035717414061 |  erot = 3.44958564359935 | epot = -19.2124802348989 | etot = -13.282537417159
925000  ekin = 2.46765713433988 |  erot = 3.41982437245358 | epot = -19.1700189238237 | etot = -13.2825374170303
926000  ekin = 2.46048446299621 |  erot = 3.38566546870185 | epot = -19.1286873487718 | etot = -13.2825374170737
927000  ekin = 2.45872404418899 |  erot = 3.34617863044022 | epot = -19.0874400918875 | etot = -13.2825374172583
928000  ekin = 2.46097855235184 |  erot = 3.29964380866974 | epot = -19.043159778532 | etot = -13.2825374175104
929000  ekin = 2.46505358100394 |  erot = 3.24413140303551 | epot = -18.99172240178 | etot = -13.2825374177406
930000  ekin = 2.46859437790869 |  erot = 3.17816487222183 | epot = -18.9292966680023 | etot = -13.2825374178718
931000  ekin = 2.46965047248253 |  erot = 3.10127887163483 | epot = -18.8534667619775 | etot = -13.2825374178601
932000  ekin = 2.46701732520898 |  erot = 3.01434779059203 | epot = -18.7639025334928 | etot = -13.2825374176918
933000  ekin = 2.46031519086868 |  erot = 2.91973998893973 | epot = -18.662592597222 | etot = -13.2825374174136
934000  ekin = 2.44985996507097 |  erot = 2.82081794907183 | epot = -18.5532153312021 | etot = -13.2825374170593
935000  ekin = 2.43642057973712 |  erot = 2.72162862891861 | epot = -18.4405866253331 | etot = -13.2825374166773
936000  ekin = 2.42095423648383 |  erot = 2.62651830339036 | epot = -18.3300099561839 | etot = -13.2825374163097
937000  ekin = 2.40438434874151 |  erot = 2.53973621394318 | epot = -18.2266579786711 | etot = -13.2825374159864
938000  ekin = 2.38744919883856 |  erot = 2.46512923461683 | epot = -18.1351158491807 | etot = -13.2825374157253
939000  ekin = 2.37062067030574 |  erot = 2.40593643917341 | epot = -18.0590945250148 | etot = -13.2825374155357
940000  ekin = 2.35407564413747 |  erot = 2.36465978775718 | epot = -18.0012728473171 | etot = -13.2825374154225
941000  ekin = 2.33770002379755 |  erot = 2.34297759096208 | epot = -17.9632150301481 | etot = -13.2825374153884
942000  ekin = 2.32111004775224 |  erot = 2.34167204163274 | epot = -17.9453195048215 | etot = -13.2825374154365
943000  ekin = 2.30368578996793 |  erot = 2.36056240830405 | epot = -17.9467856138391 | etot = -13.2825374155671
944000  ekin = 2.28462216232314 |  erot = 2.39846175787113 | epot = -17.9656213359689 | etot = -13.2825374157746
945000  ekin = 2.26300913007938 |  erot = 2.45319770726134 | epot = -17.9987442533843 | etot = -13.2825374160436
946000  ekin = 2.23795189170117 |  erot = 2.52174524353285 | epot = -18.0422345515794 | etot = -13.2825374163454
947000  ekin = 2.20873145116087 |  erot = 2.60050188059525 | epot = -18.091770748396 | etot = -13.2825374166398
948000  ekin = 2.17498954714479 |  erot = 2.685690959925 | epot = -18.1432179239527 | etot = -13.2825374168829
949000  ekin = 2.13690579554511 |  erot = 2.77382147697832 | epot = -18.1932646895605 | etot = -13.2825374170371
950000  ekin = 2.09532426593736 |  erot = 2.86208909954954 | epot = -18.23995078257 | etot = -13.2825374170831
951000  ekin = 2.05179335117992 |  erot = 2.94860198603871 | epot = -18.2829327542442 | etot = -13.2825374170256
952000  ekin = 2.00850116862718 |  erot = 3.03236285097458 | epot = -18.3234014364934 | etot = -13.2825374168917
953000  ekin = 1.96811370669122 |  erot = 3.11301524857533 | epot = -18.3636663719922 | etot = -13.2825374167257
954000  ekin = 1.93354422355624 |  erot = 3.19043207917699 | epot = -18.4065137193093 | etot = -13.2825374165761
955000  ekin = 1.907692996046 |  erot = 3.26426019428037 | epot = -18.4544906068132 | etot = -13.2825374164868
956000  ekin = 1.89319483896647 |  erot = 3.33353105128001 | epot = -18.5092633067365 | etot = -13.28253741649
957000  ekin = 1.89220136882553 |  erot = 3.39641763089531 | epot = -18.5711564163223 | etot = -13.2825374166015
958000  ekin = 1.90621184477869 |  erot = 3.45018116396587 | epot = -18.6389304255644 | etot = -13.2825374168199
959000  ekin = 1.93595602669004 |  erot = 3.49131884076761 | epot = -18.7098122845856 | etot = -13.2825374171279
960000  ekin = 1.98132739841468 |  erot = 3.51589596637559 | epot = -18.7797607822856 | etot = -13.2825374174953
961000  ekin = 2.04135467368814 |  erot = 3.5202262282781 | epot = -18.8441183198727 | etot = -13.2825374179065
962000  ekin = 2.11395441204344 |  erot = 3.50134462359753 | epot = -18.8978364539492 | etot = -13.2825374183082
963000  ekin = 2.19624676723989 |  erot = 3.45688460115197 | epot = -18.9356687870206 | etot = -13.2825374186287
964000  ekin = 2.28502253674575 |  erot = 3.38607259828084 | epot = -18.9536325538576 | etot = -13.282537418831
965000  ekin = 2.37703902148585 |  erot = 3.29004867798671 | epot = -18.9496251180009 | etot = -13.2825374185283
966000  ekin = 2.47063968385215 |  erot = 3.17235139654337 | epot = -18.9255284988459 | etot = -13.2825374184504
967000  ekin = 2.56372995555254 |  erot = 3.03797961239301 | epot = -18.8842469861485 | etot = -13.2825374182029
968000  ekin = 2.65424152965125 |  erot = 2.89333165879526 | epot = -18.83011060625 | etot = -13.2825374178035
969000  ekin = 2.74102205813625 |  erot = 2.74597895036798 | epot = -18.769538425812 | etot = -13.2825374173078
970000  ekin = 2.82317857011101 |  erot = 2.60419008501349 | epot = -18.7099060720296 | etot = -13.2825374169051
971000  ekin = 2.89946896083441 |  erot = 2.47604958426315 | epot = -18.658055961612 | etot = -13.2825374165144
972000  ekin = 2.96927883277251 |  erot = 2.36783972346085 | epot = -18.6196559725141 | etot = -13.2825374162807
973000  ekin = 3.03160430380023 |  erot = 2.28373901071249 | epot = -18.5978807307479 | etot = -13.2825374162352
974000  ekin = 3.08487810119919 |  erot = 2.22552920056088 | epot = -18.5929447181232 | etot = -13.2825374163631
975000  ekin = 3.12708218363217 |  erot = 2.1927093869337 | epot = -18.6023289871792 | etot = -13.2825374166133
976000  ekin = 3.15606698430949 |  erot = 2.18294126831253 | epot = -18.6215456695412 | etot = -13.2825374169192
977000  ekin = 3.16994500357178 |  erot = 2.19267118206454 | epot = -18.6451536028545 | etot = -13.2825374172182
978000  ekin = 3.16742946522118 |  erot = 2.21776877494467 | epot = -18.6677356576302 | etot = -13.2825374174643
979000  ekin = 3.14804045998247 |  erot = 2.25406876588806 | epot = -18.6846466435015 | etot = -13.282537417631
980000  ekin = 3.11216367723466 |  erot = 2.29776911466814 | epot = -18.6924702096109 | etot = -13.2825374177081
981000  ekin = 3.06099215360332 |  erot = 2.34569300138965 | epot = -18.6892225726894 | etot = -13.2825374176964
982000  ekin = 2.99639965214887 |  erot = 2.39544433518914 | epot = -18.6743814049394 | etot = -13.2825374176014
983000  ekin = 2.92078844513084 |  erot = 2.44547840887849 | epot = -18.6488042714436 | etot = -13.2825374174343
984000  ekin = 2.83693459670618 |  erot = 2.4950891273926 | epot = -18.6145611413098 | etot = -13.282537417211
985000  ekin = 2.74783420133486 |  erot = 2.54430433679905 | epot = -18.5746759550876 | etot = -13.2825374169537
986000  ekin = 2.65654532109889 |  erot = 2.59369131660279 | epot = -18.5327740543913 | etot = -13.2825374166896
987000  ekin = 2.56602544086508 |  erot = 2.64409904101799 | epot = -18.4926618983298 | etot = -13.2825374164468
988000  ekin = 2.47897321649663 |  erot = 2.69638105882724 | epot = -18.4578916915741 | etot = -13.2825374162503
989000  ekin = 2.39763961716918 |  erot = 2.75059396137744 | epot = -18.4307709947858 | etot = -13.2825374162392
990000  ekin = 2.32368779821633 |  erot = 2.80603342998527 | epot = -18.4122586443938 | etot = -13.2825374161922
991000  ekin = 2.2582530149192 |  erot = 2.86226671787586 | epot = -18.4030571490211 | etot = -13.282537416226
992000  ekin = 2.20187988997662 |  erot = 2.91825634939035 | epot = -18.4026736557096 | etot = -13.2825374163427
993000  ekin = 2.15452775947043 |  erot = 2.97231721293149 | epot = -18.4093823889398 | etot = -13.2825374165378
994000  ekin = 2.11561176914432 |  erot = 3.02214023523714 | epot = -18.4202894211813 | etot = -13.2825374167998
995000  ekin = 2.08408161375424 |  erot = 3.06489403643897 | epot = -18.4315130673008 | etot = -13.2825374171076
996000  ekin = 2.05854312749319 |  erot = 3.09743221500535 | epot = -18.4385127599264 | etot = -13.2825374174279
997000  ekin = 2.03742523569505 |  erot = 3.11662356420229 | epot = -18.4365862176148 | etot = -13.2825374177175
998000  ekin = 2.01918449064732 |  erot = 3.11978989603429 | epot = -18.42151180461 | etot = -13.2825374179284
999000  ekin = 2.00252382621622 |  erot = 3.10518925481745 | epot = -18.390250499052 | etot = -13.2825374180184
1000000  ekin = 1.98658902577819 |  erot = 3.07244217845672 | epot = -18.3415686221954 | etot = -13.2825374179605
 1000000  0.088292846   -1.1874188  0.041070751   -1.0221862 -7.1515284e-05 
Loop time of 31.7925 on 1 procs for 1000000 steps with 16 atoms

Performance: 27176.198 tau/day, 31453.933 timesteps/s
99.5% CPU use with 1 MPI tasks x no OpenMP threads

MPI task timing breakdown:
Section |  min time  |  avg time  |  max time  |%varavg| %total
---------------------------------------------------------------
Pair    | 28.401     | 28.401     | 28.401     |   0.0 | 89.33
Bond    | 0.86019    | 0.86019    | 0.86019    |   0.0 |  2.71
Neigh   | 0.00018    | 0.00018    | 0.00018    |   0.0 |  0.00
Comm    | 0.16311    | 0.16311    | 0.16311    |   0.0 |  0.51
Output  | 7e-06      | 7e-06      | 7e-06      |   0.0 |  0.00
Modify  | 2.1003     | 2.1003     | 2.1003     |   0.0 |  6.61
Other   |            | 0.2673     |            |       |  0.84

Nlocal:    16 ave 16 max 16 min
Histogram: 1 0 0 0 0 0 0 0 0 0
Nghost:    0 ave 0 max 0 min
Histogram: 1 0 0 0 0 0 0 0 0 0
Neighs:    93 ave 93 max 93 min
Histogram: 1 0 0 0 0 0 0 0 0 0

Total # of neighbors = 93
Ave neighs/atom = 5.8125
Ave special neighs/atom = 3.75
Neighbor list builds = 6
Dangerous builds = 0

#write_restart config.${number}.*
Total wall time: 0:00:31
