Created with h2.pl

13718 atoms
2 atom types

0.000000 61.255694 xlo xhi
0.000000 61.255694 ylo yhi
0.000000 61.255694 zlo zhi

Masses

1 1.007940
2 1.000000

Atoms

1 1 1.611992 1.611992 2.111992 1.000000 0 0.000000
2 1 1.611992 1.611992 4.335976 1.000000 0 0.000000
3 1 1.611992 1.611992 8.559960 1.000000 0 0.000000
4 1 1.611992 1.611992 10.783944 1.000000 0 0.000000
5 1 1.611992 1.611992 15.007928 1.000000 0 0.000000
6 1 1.611992 1.611992 17.231911 1.000000 0 0.000000
7 1 1.611992 1.611992 21.455895 1.000000 0 0.000000
8 1 1.611992 1.611992 23.679879 1.000000 0 0.000000
9 1 1.611992 1.611992 27.903863 1.000000 0 0.000000
10 1 1.611992 1.611992 30.127847 1.000000 0 0.000000
11 1 1.611992 1.611992 34.351831 1.000000 0 0.000000
12 1 1.611992 1.611992 36.575815 1.000000 0 0.000000
13 1 1.611992 1.611992 40.799799 1.000000 0 0.000000
14 1 1.611992 1.611992 43.023783 1.000000 0 0.000000
15 1 1.611992 1.611992 47.247767 1.000000 0 0.000000
16 1 1.611992 1.611992 49.471751 1.000000 0 0.000000
17 1 1.611992 1.611992 53.695734 1.000000 0 0.000000
18 1 1.611992 1.611992 55.919718 1.000000 0 0.000000
19 1 1.611992 1.611992 60.143702 1.000000 0 0.000000
20 1 1.611992 4.835976 2.111992 1.000000 0 0.000000
21 1 1.611992 4.835976 4.335976 1.000000 0 0.000000
22 1 1.611992 4.835976 8.559960 1.000000 0 0.000000
23 1 1.611992 4.835976 10.783944 1.000000 0 0.000000
24 1 1.611992 4.835976 15.007928 1.000000 0 0.000000
25 1 1.611992 4.835976 17.231911 1.000000 0 0.000000
26 1 1.611992 4.835976 21.455895 1.000000 0 0.000000
27 1 1.611992 4.835976 23.679879 1.000000 0 0.000000
28 1 1.611992 4.835976 27.903863 1.000000 0 0.000000
29 1 1.611992 4.835976 30.127847 1.000000 0 0.000000
30 1 1.611992 4.835976 34.351831 1.000000 0 0.000000
31 1 1.611992 4.835976 36.575815 1.000000 0 0.000000
32 1 1.611992 4.835976 40.799799 1.000000 0 0.000000
33 1 1.611992 4.835976 43.023783 1.000000 0 0.000000
34 1 1.611992 4.835976 47.247767 1.000000 0 0.000000
35 1 1.611992 4.835976 49.471751 1.000000 0 0.000000
36 1 1.611992 4.835976 53.695734 1.000000 0 0.000000
37 1 1.611992 4.835976 55.919718 1.000000 0 0.000000
38 1 1.611992 4.835976 60.143702 1.000000 0 0.000000
39 1 1.611992 8.059960 2.111992 1.000000 0 0.000000
40 1 1.611992 8.059960 4.335976 1.000000 0 0.000000
41 1 1.611992 8.059960 8.559960 1.000000 0 0.000000
42 1 1.611992 8.059960 10.783944 1.000000 0 0.000000
43 1 1.611992 8.059960 15.007928 1.000000 0 0.000000
44 1 1.611992 8.059960 17.231911 1.000000 0 0.000000
45 1 1.611992 8.059960 21.455895 1.000000 0 0.000000
46 1 1.611992 8.059960 23.679879 1.000000 0 0.000000
47 1 1.611992 8.059960 27.903863 1.000000 0 0.000000
48 1 1.611992 8.059960 30.127847 1.000000 0 0.000000
49 1 1.611992 8.059960 34.351831 1.000000 0 0.000000
50 1 1.611992 8.059960 36.575815 1.000000 0 0.000000
51 1 1.611992 8.059960 40.799799 1.000000 0 0.000000
52 1 1.611992 8.059960 43.023783 1.000000 0 0.000000
53 1 1.611992 8.059960 47.247767 1.000000 0 0.000000
54 1 1.611992 8.059960 49.471751 1.000000 0 0.000000
55 1 1.611992 8.059960 53.695734 1.000000 0 0.000000
56 1 1.611992 8.059960 55.919718 1.000000 0 0.000000
57 1 1.611992 8.059960 60.143702 1.000000 0 0.000000
58 1 1.611992 11.283944 2.111992 1.000000 0 0.000000
59 1 1.611992 11.283944 4.335976 1.000000 0 0.000000
60 1 1.611992 11.283944 8.559960 1.000000 0 0.000000
61 1 1.611992 11.283944 10.783944 1.000000 0 0.000000
62 1 1.611992 11.283944 15.007928 1.000000 0 0.000000
63 1 1.611992 11.283944 17.231911 1.000000 0 0.000000
64 1 1.611992 11.283944 21.455895 1.000000 0 0.000000
65 1 1.611992 11.283944 23.679879 1.000000 0 0.000000
66 1 1.611992 11.283944 27.903863 1.000000 0 0.000000
67 1 1.611992 11.283944 30.127847 1.000000 0 0.000000
68 1 1.611992 11.283944 34.351831 1.000000 0 0.000000
69 1 1.611992 11.283944 36.575815 1.000000 0 0.000000
70 1 1.611992 11.283944 40.799799 1.000000 0 0.000000
71 1 1.611992 11.283944 43.023783 1.000000 0 0.000000
72 1 1.611992 11.283944 47.247767 1.000000 0 0.000000
73 1 1.611992 11.283944 49.471751 1.000000 0 0.000000
74 1 1.611992 11.283944 53.695734 1.000000 0 0.000000
75 1 1.611992 11.283944 55.919718 1.000000 0 0.000000
76 1 1.611992 11.283944 60.143702 1.000000 0 0.000000
77 1 1.611992 14.507928 2.111992 1.000000 0 0.000000
78 1 1.611992 14.507928 4.335976 1.000000 0 0.000000
79 1 1.611992 14.507928 8.559960 1.000000 0 0.000000
80 1 1.611992 14.507928 10.783944 1.000000 0 0.000000
81 1 1.611992 14.507928 15.007928 1.000000 0 0.000000
82 1 1.611992 14.507928 17.231911 1.000000 0 0.000000
83 1 1.611992 14.507928 21.455895 1.000000 0 0.000000
84 1 1.611992 14.507928 23.679879 1.000000 0 0.000000
85 1 1.611992 14.507928 27.903863 1.000000 0 0.000000
86 1 1.611992 14.507928 30.127847 1.000000 0 0.000000
87 1 1.611992 14.507928 34.351831 1.000000 0 0.000000
88 1 1.611992 14.507928 36.575815 1.000000 0 0.000000
89 1 1.611992 14.507928 40.799799 1.000000 0 0.000000
90 1 1.611992 14.507928 43.023783 1.000000 0 0.000000
91 1 1.611992 14.507928 47.247767 1.000000 0 0.000000
92 1 1.611992 14.507928 49.471751 1.000000 0 0.000000
93 1 1.611992 14.507928 53.695734 1.000000 0 0.000000
94 1 1.611992 14.507928 55.919718 1.000000 0 0.000000
95 1 1.611992 14.507928 60.143702 1.000000 0 0.000000
96 1 1.611992 17.731911 2.111992 1.000000 0 0.000000
97 1 1.611992 17.731911 4.335976 1.000000 0 0.000000
98 1 1.611992 17.731911 8.559960 1.000000 0 0.000000
99 1 1.611992 17.731911 10.783944 1.000000 0 0.000000
100 1 1.611992 17.731911 15.007928 1.000000 0 0.000000
101 1 1.611992 17.731911 17.231911 1.000000 0 0.000000
102 1 1.611992 17.731911 21.455895 1.000000 0 0.000000
103 1 1.611992 17.731911 23.679879 1.000000 0 0.000000
104 1 1.611992 17.731911 27.903863 1.000000 0 0.000000
105 1 1.611992 17.731911 30.127847 1.000000 0 0.000000
106 1 1.611992 17.731911 34.351831 1.000000 0 0.000000
107 1 1.611992 17.731911 36.575815 1.000000 0 0.000000
108 1 1.611992 17.731911 40.799799 1.000000 0 0.000000
109 1 1.611992 17.731911 43.023783 1.000000 0 0.000000
110 1 1.611992 17.731911 47.247767 1.000000 0 0.000000
111 1 1.611992 17.731911 49.471751 1.000000 0 0.000000
112 1 1.611992 17.731911 53.695734 1.000000 0 0.000000
113 1 1.611992 17.731911 55.919718 1.000000 0 0.000000
114 1 1.611992 17.731911 60.143702 1.000000 0 0.000000
115 1 1.611992 20.955895 2.111992 1.000000 0 0.000000
116 1 1.611992 20.955895 4.335976 1.000000 0 0.000000
117 1 1.611992 20.955895 8.559960 1.000000 0 0.000000
118 1 1.611992 20.955895 10.783944 1.000000 0 0.000000
119 1 1.611992 20.955895 15.007928 1.000000 0 0.000000
120 1 1.611992 20.955895 17.231911 1.000000 0 0.000000
121 1 1.611992 20.955895 21.455895 1.000000 0 0.000000
122 1 1.611992 20.955895 23.679879 1.000000 0 0.000000
123 1 1.611992 20.955895 27.903863 1.000000 0 0.000000
124 1 1.611992 20.955895 30.127847 1.000000 0 0.000000
125 1 1.611992 20.955895 34.351831 1.000000 0 0.000000
126 1 1.611992 20.955895 36.575815 1.000000 0 0.000000
127 1 1.611992 20.955895 40.799799 1.000000 0 0.000000
128 1 1.611992 20.955895 43.023783 1.000000 0 0.000000
129 1 1.611992 20.955895 47.247767 1.000000 0 0.000000
130 1 1.611992 20.955895 49.471751 1.000000 0 0.000000
131 1 1.611992 20.955895 53.695734 1.000000 0 0.000000
132 1 1.611992 20.955895 55.919718 1.000000 0 0.000000
133 1 1.611992 20.955895 60.143702 1.000000 0 0.000000
134 1 1.611992 24.179879 2.111992 1.000000 0 0.000000
135 1 1.611992 24.179879 4.335976 1.000000 0 0.000000
136 1 1.611992 24.179879 8.559960 1.000000 0 0.000000
137 1 1.611992 24.179879 10.783944 1.000000 0 0.000000
138 1 1.611992 24.179879 15.007928 1.000000 0 0.000000
139 1 1.611992 24.179879 17.231911 1.000000 0 0.000000
140 1 1.611992 24.179879 21.455895 1.000000 0 0.000000
141 1 1.611992 24.179879 23.679879 1.000000 0 0.000000
142 1 1.611992 24.179879 27.903863 1.000000 0 0.000000
143 1 1.611992 24.179879 30.127847 1.000000 0 0.000000
144 1 1.611992 24.179879 34.351831 1.000000 0 0.000000
145 1 1.611992 24.179879 36.575815 1.000000 0 0.000000
146 1 1.611992 24.179879 40.799799 1.000000 0 0.000000
147 1 1.611992 24.179879 43.023783 1.000000 0 0.000000
148 1 1.611992 24.179879 47.247767 1.000000 0 0.000000
149 1 1.611992 24.179879 49.471751 1.000000 0 0.000000
150 1 1.611992 24.179879 53.695734 1.000000 0 0.000000
151 1 1.611992 24.179879 55.919718 1.000000 0 0.000000
152 1 1.611992 24.179879 60.143702 1.000000 0 0.000000
153 1 1.611992 27.403863 2.111992 1.000000 0 0.000000
154 1 1.611992 27.403863 4.335976 1.000000 0 0.000000
155 1 1.611992 27.403863 8.559960 1.000000 0 0.000000
156 1 1.611992 27.403863 10.783944 1.000000 0 0.000000
157 1 1.611992 27.403863 15.007928 1.000000 0 0.000000
158 1 1.611992 27.403863 17.231911 1.000000 0 0.000000
159 1 1.611992 27.403863 21.455895 1.000000 0 0.000000
160 1 1.611992 27.403863 23.679879 1.000000 0 0.000000
161 1 1.611992 27.403863 27.903863 1.000000 0 0.000000
162 1 1.611992 27.403863 30.127847 1.000000 0 0.000000
163 1 1.611992 27.403863 34.351831 1.000000 0 0.000000
164 1 1.611992 27.403863 36.575815 1.000000 0 0.000000
165 1 1.611992 27.403863 40.799799 1.000000 0 0.000000
166 1 1.611992 27.403863 43.023783 1.000000 0 0.000000
167 1 1.611992 27.403863 47.247767 1.000000 0 0.000000
168 1 1.611992 27.403863 49.471751 1.000000 0 0.000000
169 1 1.611992 27.403863 53.695734 1.000000 0 0.000000
170 1 1.611992 27.403863 55.919718 1.000000 0 0.000000
171 1 1.611992 27.403863 60.143702 1.000000 0 0.000000
172 1 1.611992 30.627847 2.111992 1.000000 0 0.000000
173 1 1.611992 30.627847 4.335976 1.000000 0 0.000000
174 1 1.611992 30.627847 8.559960 1.000000 0 0.000000
175 1 1.611992 30.627847 10.783944 1.000000 0 0.000000
176 1 1.611992 30.627847 15.007928 1.000000 0 0.000000
177 1 1.611992 30.627847 17.231911 1.000000 0 0.000000
178 1 1.611992 30.627847 21.455895 1.000000 0 0.000000
179 1 1.611992 30.627847 23.679879 1.000000 0 0.000000
180 1 1.611992 30.627847 27.903863 1.000000 0 0.000000
181 1 1.611992 30.627847 30.127847 1.000000 0 0.000000
182 1 1.611992 30.627847 34.351831 1.000000 0 0.000000
183 1 1.611992 30.627847 36.575815 1.000000 0 0.000000
184 1 1.611992 30.627847 40.799799 1.000000 0 0.000000
185 1 1.611992 30.627847 43.023783 1.000000 0 0.000000
186 1 1.611992 30.627847 47.247767 1.000000 0 0.000000
187 1 1.611992 30.627847 49.471751 1.000000 0 0.000000
188 1 1.611992 30.627847 53.695734 1.000000 0 0.000000
189 1 1.611992 30.627847 55.919718 1.000000 0 0.000000
190 1 1.611992 30.627847 60.143702 1.000000 0 0.000000
191 1 1.611992 33.851831 2.111992 1.000000 0 0.000000
192 1 1.611992 33.851831 4.335976 1.000000 0 0.000000
193 1 1.611992 33.851831 8.559960 1.000000 0 0.000000
194 1 1.611992 33.851831 10.783944 1.000000 0 0.000000
195 1 1.611992 33.851831 15.007928 1.000000 0 0.000000
196 1 1.611992 33.851831 17.231911 1.000000 0 0.000000
197 1 1.611992 33.851831 21.455895 1.000000 0 0.000000
198 1 1.611992 33.851831 23.679879 1.000000 0 0.000000
199 1 1.611992 33.851831 27.903863 1.000000 0 0.000000
200 1 1.611992 33.851831 30.127847 1.000000 0 0.000000
201 1 1.611992 33.851831 34.351831 1.000000 0 0.000000
202 1 1.611992 33.851831 36.575815 1.000000 0 0.000000
203 1 1.611992 33.851831 40.799799 1.000000 0 0.000000
204 1 1.611992 33.851831 43.023783 1.000000 0 0.000000
205 1 1.611992 33.851831 47.247767 1.000000 0 0.000000
206 1 1.611992 33.851831 49.471751 1.000000 0 0.000000
207 1 1.611992 33.851831 53.695734 1.000000 0 0.000000
208 1 1.611992 33.851831 55.919718 1.000000 0 0.000000
209 1 1.611992 33.851831 60.143702 1.000000 0 0.000000
210 1 1.611992 37.075815 2.111992 1.000000 0 0.000000
211 1 1.611992 37.075815 4.335976 1.000000 0 0.000000
212 1 1.611992 37.075815 8.559960 1.000000 0 0.000000
213 1 1.611992 37.075815 10.783944 1.000000 0 0.000000
214 1 1.611992 37.075815 15.007928 1.000000 0 0.000000
215 1 1.611992 37.075815 17.231911 1.000000 0 0.000000
216 1 1.611992 37.075815 21.455895 1.000000 0 0.000000
217 1 1.611992 37.075815 23.679879 1.000000 0 0.000000
218 1 1.611992 37.075815 27.903863 1.000000 0 0.000000
219 1 1.611992 37.075815 30.127847 1.000000 0 0.000000
220 1 1.611992 37.075815 34.351831 1.000000 0 0.000000
221 1 1.611992 37.075815 36.575815 1.000000 0 0.000000
222 1 1.611992 37.075815 40.799799 1.000000 0 0.000000
223 1 1.611992 37.075815 43.023783 1.000000 0 0.000000
224 1 1.611992 37.075815 47.247767 1.000000 0 0.000000
225 1 1.611992 37.075815 49.471751 1.000000 0 0.000000
226 1 1.611992 37.075815 53.695734 1.000000 0 0.000000
227 1 1.611992 37.075815 55.919718 1.000000 0 0.000000
228 1 1.611992 37.075815 60.143702 1.000000 0 0.000000
229 1 1.611992 40.299799 2.111992 1.000000 0 0.000000
230 1 1.611992 40.299799 4.335976 1.000000 0 0.000000
231 1 1.611992 40.299799 8.559960 1.000000 0 0.000000
232 1 1.611992 40.299799 10.783944 1.000000 0 0.000000
233 1 1.611992 40.299799 15.007928 1.000000 0 0.000000
234 1 1.611992 40.299799 17.231911 1.000000 0 0.000000
235 1 1.611992 40.299799 21.455895 1.000000 0 0.000000
236 1 1.611992 40.299799 23.679879 1.000000 0 0.000000
237 1 1.611992 40.299799 27.903863 1.000000 0 0.000000
238 1 1.611992 40.299799 30.127847 1.000000 0 0.000000
239 1 1.611992 40.299799 34.351831 1.000000 0 0.000000
240 1 1.611992 40.299799 36.575815 1.000000 0 0.000000
241 1 1.611992 40.299799 40.799799 1.000000 0 0.000000
242 1 1.611992 40.299799 43.023783 1.000000 0 0.000000
243 1 1.611992 40.299799 47.247767 1.000000 0 0.000000
244 1 1.611992 40.299799 49.471751 1.000000 0 0.000000
245 1 1.611992 40.299799 53.695734 1.000000 0 0.000000
246 1 1.611992 40.299799 55.919718 1.000000 0 0.000000
247 1 1.611992 40.299799 60.143702 1.000000 0 0.000000
248 1 1.611992 43.523783 2.111992 1.000000 0 0.000000
249 1 1.611992 43.523783 4.335976 1.000000 0 0.000000
250 1 1.611992 43.523783 8.559960 1.000000 0 0.000000
251 1 1.611992 43.523783 10.783944 1.000000 0 0.000000
252 1 1.611992 43.523783 15.007928 1.000000 0 0.000000
253 1 1.611992 43.523783 17.231911 1.000000 0 0.000000
254 1 1.611992 43.523783 21.455895 1.000000 0 0.000000
255 1 1.611992 43.523783 23.679879 1.000000 0 0.000000
256 1 1.611992 43.523783 27.903863 1.000000 0 0.000000
257 1 1.611992 43.523783 30.127847 1.000000 0 0.000000
258 1 1.611992 43.523783 34.351831 1.000000 0 0.000000
259 1 1.611992 43.523783 36.575815 1.000000 0 0.000000
260 1 1.611992 43.523783 40.799799 1.000000 0 0.000000
261 1 1.611992 43.523783 43.023783 1.000000 0 0.000000
262 1 1.611992 43.523783 47.247767 1.000000 0 0.000000
263 1 1.611992 43.523783 49.471751 1.000000 0 0.000000
264 1 1.611992 43.523783 53.695734 1.000000 0 0.000000
265 1 1.611992 43.523783 55.919718 1.000000 0 0.000000
266 1 1.611992 43.523783 60.143702 1.000000 0 0.000000
267 1 1.611992 46.747767 2.111992 1.000000 0 0.000000
268 1 1.611992 46.747767 4.335976 1.000000 0 0.000000
269 1 1.611992 46.747767 8.559960 1.000000 0 0.000000
270 1 1.611992 46.747767 10.783944 1.000000 0 0.000000
271 1 1.611992 46.747767 15.007928 1.000000 0 0.000000
272 1 1.611992 46.747767 17.231911 1.000000 0 0.000000
273 1 1.611992 46.747767 21.455895 1.000000 0 0.000000
274 1 1.611992 46.747767 23.679879 1.000000 0 0.000000
275 1 1.611992 46.747767 27.903863 1.000000 0 0.000000
276 1 1.611992 46.747767 30.127847 1.000000 0 0.000000
277 1 1.611992 46.747767 34.351831 1.000000 0 0.000000
278 1 1.611992 46.747767 36.575815 1.000000 0 0.000000
279 1 1.611992 46.747767 40.799799 1.000000 0 0.000000
280 1 1.611992 46.747767 43.023783 1.000000 0 0.000000
281 1 1.611992 46.747767 47.247767 1.000000 0 0.000000
282 1 1.611992 46.747767 49.471751 1.000000 0 0.000000
283 1 1.611992 46.747767 53.695734 1.000000 0 0.000000
284 1 1.611992 46.747767 55.919718 1.000000 0 0.000000
285 1 1.611992 46.747767 60.143702 1.000000 0 0.000000
286 1 1.611992 49.971751 2.111992 1.000000 0 0.000000
287 1 1.611992 49.971751 4.335976 1.000000 0 0.000000
288 1 1.611992 49.971751 8.559960 1.000000 0 0.000000
289 1 1.611992 49.971751 10.783944 1.000000 0 0.000000
290 1 1.611992 49.971751 15.007928 1.000000 0 0.000000
291 1 1.611992 49.971751 17.231911 1.000000 0 0.000000
292 1 1.611992 49.971751 21.455895 1.000000 0 0.000000
293 1 1.611992 49.971751 23.679879 1.000000 0 0.000000
294 1 1.611992 49.971751 27.903863 1.000000 0 0.000000
295 1 1.611992 49.971751 30.127847 1.000000 0 0.000000
296 1 1.611992 49.971751 34.351831 1.000000 0 0.000000
297 1 1.611992 49.971751 36.575815 1.000000 0 0.000000
298 1 1.611992 49.971751 40.799799 1.000000 0 0.000000
299 1 1.611992 49.971751 43.023783 1.000000 0 0.000000
300 1 1.611992 49.971751 47.247767 1.000000 0 0.000000
301 1 1.611992 49.971751 49.471751 1.000000 0 0.000000
302 1 1.611992 49.971751 53.695734 1.000000 0 0.000000
303 1 1.611992 49.971751 55.919718 1.000000 0 0.000000
304 1 1.611992 49.971751 60.143702 1.000000 0 0.000000
305 1 1.611992 53.195734 2.111992 1.000000 0 0.000000
306 1 1.611992 53.195734 4.335976 1.000000 0 0.000000
307 1 1.611992 53.195734 8.559960 1.000000 0 0.000000
308 1 1.611992 53.195734 10.783944 1.000000 0 0.000000
309 1 1.611992 53.195734 15.007928 1.000000 0 0.000000
310 1 1.611992 53.195734 17.231911 1.000000 0 0.000000
311 1 1.611992 53.195734 21.455895 1.000000 0 0.000000
312 1 1.611992 53.195734 23.679879 1.000000 0 0.000000
313 1 1.611992 53.195734 27.903863 1.000000 0 0.000000
314 1 1.611992 53.195734 30.127847 1.000000 0 0.000000
315 1 1.611992 53.195734 34.351831 1.000000 0 0.000000
316 1 1.611992 53.195734 36.575815 1.000000 0 0.000000
317 1 1.611992 53.195734 40.799799 1.000000 0 0.000000
318 1 1.611992 53.195734 43.023783 1.000000 0 0.000000
319 1 1.611992 53.195734 47.247767 1.000000 0 0.000000
320 1 1.611992 53.195734 49.471751 1.000000 0 0.000000
321 1 1.611992 53.195734 53.695734 1.000000 0 0.000000
322 1 1.611992 53.195734 55.919718 1.000000 0 0.000000
323 1 1.611992 53.195734 60.143702 1.000000 0 0.000000
324 1 1.611992 56.419718 2.111992 1.000000 0 0.000000
325 1 1.611992 56.419718 4.335976 1.000000 0 0.000000
326 1 1.611992 56.419718 8.559960 1.000000 0 0.000000
327 1 1.611992 56.419718 10.783944 1.000000 0 0.000000
328 1 1.611992 56.419718 15.007928 1.000000 0 0.000000
329 1 1.611992 56.419718 17.231911 1.000000 0 0.000000
330 1 1.611992 56.419718 21.455895 1.000000 0 0.000000
331 1 1.611992 56.419718 23.679879 1.000000 0 0.000000
332 1 1.611992 56.419718 27.903863 1.000000 0 0.000000
333 1 1.611992 56.419718 30.127847 1.000000 0 0.000000
334 1 1.611992 56.419718 34.351831 1.000000 0 0.000000
335 1 1.611992 56.419718 36.575815 1.000000 0 0.000000
336 1 1.611992 56.419718 40.799799 1.000000 0 0.000000
337 1 1.611992 56.419718 43.023783 1.000000 0 0.000000
338 1 1.611992 56.419718 47.247767 1.000000 0 0.000000
339 1 1.611992 56.419718 49.471751 1.000000 0 0.000000
340 1 1.611992 56.419718 53.695734 1.000000 0 0.000000
341 1 1.611992 56.419718 55.919718 1.000000 0 0.000000
342 1 1.611992 56.419718 60.143702 1.000000 0 0.000000
343 1 1.611992 59.643702 2.111992 1.000000 0 0.000000
344 1 1.611992 59.643702 4.335976 1.000000 0 0.000000
345 1 1.611992 59.643702 8.559960 1.000000 0 0.000000
346 1 1.611992 59.643702 10.783944 1.000000 0 0.000000
347 1 1.611992 59.643702 15.007928 1.000000 0 0.000000
348 1 1.611992 59.643702 17.231911 1.000000 0 0.000000
349 1 1.611992 59.643702 21.455895 1.000000 0 0.000000
350 1 1.611992 59.643702 23.679879 1.000000 0 0.000000
351 1 1.611992 59.643702 27.903863 1.000000 0 0.000000
352 1 1.611992 59.643702 30.127847 1.000000 0 0.000000
353 1 1.611992 59.643702 34.351831 1.000000 0 0.000000
354 1 1.611992 59.643702 36.575815 1.000000 0 0.000000
355 1 1.611992 59.643702 40.799799 1.000000 0 0.000000
356 1 1.611992 59.643702 43.023783 1.000000 0 0.000000
357 1 1.611992 59.643702 47.247767 1.000000 0 0.000000
358 1 1.611992 59.643702 49.471751 1.000000 0 0.000000
359 1 1.611992 59.643702 53.695734 1.000000 0 0.000000
360 1 1.611992 59.643702 55.919718 1.000000 0 0.000000
361 1 1.611992 59.643702 60.143702 1.000000 0 0.000000
362 1 4.835976 1.611992 2.111992 1.000000 0 0.000000
363 1 4.835976 1.611992 4.335976 1.000000 0 0.000000
364 1 4.835976 1.611992 8.559960 1.000000 0 0.000000
365 1 4.835976 1.611992 10.783944 1.000000 0 0.000000
366 1 4.835976 1.611992 15.007928 1.000000 0 0.000000
367 1 4.835976 1.611992 17.231911 1.000000 0 0.000000
368 1 4.835976 1.611992 21.455895 1.000000 0 0.000000
369 1 4.835976 1.611992 23.679879 1.000000 0 0.000000
370 1 4.835976 1.611992 27.903863 1.000000 0 0.000000
371 1 4.835976 1.611992 30.127847 1.000000 0 0.000000
372 1 4.835976 1.611992 34.351831 1.000000 0 0.000000
373 1 4.835976 1.611992 36.575815 1.000000 0 0.000000
374 1 4.835976 1.611992 40.799799 1.000000 0 0.000000
375 1 4.835976 1.611992 43.023783 1.000000 0 0.000000
376 1 4.835976 1.611992 47.247767 1.000000 0 0.000000
377 1 4.835976 1.611992 49.471751 1.000000 0 0.000000
378 1 4.835976 1.611992 53.695734 1.000000 0 0.000000
379 1 4.835976 1.611992 55.919718 1.000000 0 0.000000
380 1 4.835976 1.611992 60.143702 1.000000 0 0.000000
381 1 4.835976 4.835976 2.111992 1.000000 0 0.000000
382 1 4.835976 4.835976 4.335976 1.000000 0 0.000000
383 1 4.835976 4.835976 8.559960 1.000000 0 0.000000
384 1 4.835976 4.835976 10.783944 1.000000 0 0.000000
385 1 4.835976 4.835976 15.007928 1.000000 0 0.000000
386 1 4.835976 4.835976 17.231911 1.000000 0 0.000000
387 1 4.835976 4.835976 21.455895 1.000000 0 0.000000
388 1 4.835976 4.835976 23.679879 1.000000 0 0.000000
389 1 4.835976 4.835976 27.903863 1.000000 0 0.000000
390 1 4.835976 4.835976 30.127847 1.000000 0 0.000000
391 1 4.835976 4.835976 34.351831 1.000000 0 0.000000
392 1 4.835976 4.835976 36.575815 1.000000 0 0.000000
393 1 4.835976 4.835976 40.799799 1.000000 0 0.000000
394 1 4.835976 4.835976 43.023783 1.000000 0 0.000000
395 1 4.835976 4.835976 47.247767 1.000000 0 0.000000
396 1 4.835976 4.835976 49.471751 1.000000 0 0.000000
397 1 4.835976 4.835976 53.695734 1.000000 0 0.000000
398 1 4.835976 4.835976 55.919718 1.000000 0 0.000000
399 1 4.835976 4.835976 60.143702 1.000000 0 0.000000
400 1 4.835976 8.059960 2.111992 1.000000 0 0.000000
401 1 4.835976 8.059960 4.335976 1.000000 0 0.000000
402 1 4.835976 8.059960 8.559960 1.000000 0 0.000000
403 1 4.835976 8.059960 10.783944 1.000000 0 0.000000
404 1 4.835976 8.059960 15.007928 1.000000 0 0.000000
405 1 4.835976 8.059960 17.231911 1.000000 0 0.000000
406 1 4.835976 8.059960 21.455895 1.000000 0 0.000000
407 1 4.835976 8.059960 23.679879 1.000000 0 0.000000
408 1 4.835976 8.059960 27.903863 1.000000 0 0.000000
409 1 4.835976 8.059960 30.127847 1.000000 0 0.000000
410 1 4.835976 8.059960 34.351831 1.000000 0 0.000000
411 1 4.835976 8.059960 36.575815 1.000000 0 0.000000
412 1 4.835976 8.059960 40.799799 1.000000 0 0.000000
413 1 4.835976 8.059960 43.023783 1.000000 0 0.000000
414 1 4.835976 8.059960 47.247767 1.000000 0 0.000000
415 1 4.835976 8.059960 49.471751 1.000000 0 0.000000
416 1 4.835976 8.059960 53.695734 1.000000 0 0.000000
417 1 4.835976 8.059960 55.919718 1.000000 0 0.000000
418 1 4.835976 8.059960 60.143702 1.000000 0 0.000000
419 1 4.835976 11.283944 2.111992 1.000000 0 0.000000
420 1 4.835976 11.283944 4.335976 1.000000 0 0.000000
421 1 4.835976 11.283944 8.559960 1.000000 0 0.000000
422 1 4.835976 11.283944 10.783944 1.000000 0 0.000000
423 1 4.835976 11.283944 15.007928 1.000000 0 0.000000
424 1 4.835976 11.283944 17.231911 1.000000 0 0.000000
425 1 4.835976 11.283944 21.455895 1.000000 0 0.000000
426 1 4.835976 11.283944 23.679879 1.000000 0 0.000000
427 1 4.835976 11.283944 27.903863 1.000000 0 0.000000
428 1 4.835976 11.283944 30.127847 1.000000 0 0.000000
429 1 4.835976 11.283944 34.351831 1.000000 0 0.000000
430 1 4.835976 11.283944 36.575815 1.000000 0 0.000000
431 1 4.835976 11.283944 40.799799 1.000000 0 0.000000
432 1 4.835976 11.283944 43.023783 1.000000 0 0.000000
433 1 4.835976 11.283944 47.247767 1.000000 0 0.000000
434 1 4.835976 11.283944 49.471751 1.000000 0 0.000000
435 1 4.835976 11.283944 53.695734 1.000000 0 0.000000
436 1 4.835976 11.283944 55.919718 1.000000 0 0.000000
437 1 4.835976 11.283944 60.143702 1.000000 0 0.000000
438 1 4.835976 14.507928 2.111992 1.000000 0 0.000000
439 1 4.835976 14.507928 4.335976 1.000000 0 0.000000
440 1 4.835976 14.507928 8.559960 1.000000 0 0.000000
441 1 4.835976 14.507928 10.783944 1.000000 0 0.000000
442 1 4.835976 14.507928 15.007928 1.000000 0 0.000000
443 1 4.835976 14.507928 17.231911 1.000000 0 0.000000
444 1 4.835976 14.507928 21.455895 1.000000 0 0.000000
445 1 4.835976 14.507928 23.679879 1.000000 0 0.000000
446 1 4.835976 14.507928 27.903863 1.000000 0 0.000000
447 1 4.835976 14.507928 30.127847 1.000000 0 0.000000
448 1 4.835976 14.507928 34.351831 1.000000 0 0.000000
449 1 4.835976 14.507928 36.575815 1.000000 0 0.000000
450 1 4.835976 14.507928 40.799799 1.000000 0 0.000000
451 1 4.835976 14.507928 43.023783 1.000000 0 0.000000
452 1 4.835976 14.507928 47.247767 1.000000 0 0.000000
453 1 4.835976 14.507928 49.471751 1.000000 0 0.000000
454 1 4.835976 14.507928 53.695734 1.000000 0 0.000000
455 1 4.835976 14.507928 55.919718 1.000000 0 0.000000
456 1 4.835976 14.507928 60.143702 1.000000 0 0.000000
457 1 4.835976 17.731911 2.111992 1.000000 0 0.000000
458 1 4.835976 17.731911 4.335976 1.000000 0 0.000000
459 1 4.835976 17.731911 8.559960 1.000000 0 0.000000
460 1 4.835976 17.731911 10.783944 1.000000 0 0.000000
461 1 4.835976 17.731911 15.007928 1.000000 0 0.000000
462 1 4.835976 17.731911 17.231911 1.000000 0 0.000000
463 1 4.835976 17.731911 21.455895 1.000000 0 0.000000
464 1 4.835976 17.731911 23.679879 1.000000 0 0.000000
465 1 4.835976 17.731911 27.903863 1.000000 0 0.000000
466 1 4.835976 17.731911 30.127847 1.000000 0 0.000000
467 1 4.835976 17.731911 34.351831 1.000000 0 0.000000
468 1 4.835976 17.731911 36.575815 1.000000 0 0.000000
469 1 4.835976 17.731911 40.799799 1.000000 0 0.000000
470 1 4.835976 17.731911 43.023783 1.000000 0 0.000000
471 1 4.835976 17.731911 47.247767 1.000000 0 0.000000
472 1 4.835976 17.731911 49.471751 1.000000 0 0.000000
473 1 4.835976 17.731911 53.695734 1.000000 0 0.000000
474 1 4.835976 17.731911 55.919718 1.000000 0 0.000000
475 1 4.835976 17.731911 60.143702 1.000000 0 0.000000
476 1 4.835976 20.955895 2.111992 1.000000 0 0.000000
477 1 4.835976 20.955895 4.335976 1.000000 0 0.000000
478 1 4.835976 20.955895 8.559960 1.000000 0 0.000000
479 1 4.835976 20.955895 10.783944 1.000000 0 0.000000
480 1 4.835976 20.955895 15.007928 1.000000 0 0.000000
481 1 4.835976 20.955895 17.231911 1.000000 0 0.000000
482 1 4.835976 20.955895 21.455895 1.000000 0 0.000000
483 1 4.835976 20.955895 23.679879 1.000000 0 0.000000
484 1 4.835976 20.955895 27.903863 1.000000 0 0.000000
485 1 4.835976 20.955895 30.127847 1.000000 0 0.000000
486 1 4.835976 20.955895 34.351831 1.000000 0 0.000000
487 1 4.835976 20.955895 36.575815 1.000000 0 0.000000
488 1 4.835976 20.955895 40.799799 1.000000 0 0.000000
489 1 4.835976 20.955895 43.023783 1.000000 0 0.000000
490 1 4.835976 20.955895 47.247767 1.000000 0 0.000000
491 1 4.835976 20.955895 49.471751 1.000000 0 0.000000
492 1 4.835976 20.955895 53.695734 1.000000 0 0.000000
493 1 4.835976 20.955895 55.919718 1.000000 0 0.000000
494 1 4.835976 20.955895 60.143702 1.000000 0 0.000000
495 1 4.835976 24.179879 2.111992 1.000000 0 0.000000
496 1 4.835976 24.179879 4.335976 1.000000 0 0.000000
497 1 4.835976 24.179879 8.559960 1.000000 0 0.000000
498 1 4.835976 24.179879 10.783944 1.000000 0 0.000000
499 1 4.835976 24.179879 15.007928 1.000000 0 0.000000
500 1 4.835976 24.179879 17.231911 1.000000 0 0.000000
501 1 4.835976 24.179879 21.455895 1.000000 0 0.000000
502 1 4.835976 24.179879 23.679879 1.000000 0 0.000000
503 1 4.835976 24.179879 27.903863 1.000000 0 0.000000
504 1 4.835976 24.179879 30.127847 1.000000 0 0.000000
505 1 4.835976 24.179879 34.351831 1.000000 0 0.000000
506 1 4.835976 24.179879 36.575815 1.000000 0 0.000000
507 1 4.835976 24.179879 40.799799 1.000000 0 0.000000
508 1 4.835976 24.179879 43.023783 1.000000 0 0.000000
509 1 4.835976 24.179879 47.247767 1.000000 0 0.000000
510 1 4.835976 24.179879 49.471751 1.000000 0 0.000000
511 1 4.835976 24.179879 53.695734 1.000000 0 0.000000
512 1 4.835976 24.179879 55.919718 1.000000 0 0.000000
513 1 4.835976 24.179879 60.143702 1.000000 0 0.000000
514 1 4.835976 27.403863 2.111992 1.000000 0 0.000000
515 1 4.835976 27.403863 4.335976 1.000000 0 0.000000
516 1 4.835976 27.403863 8.559960 1.000000 0 0.000000
517 1 4.835976 27.403863 10.783944 1.000000 0 0.000000
518 1 4.835976 27.403863 15.007928 1.000000 0 0.000000
519 1 4.835976 27.403863 17.231911 1.000000 0 0.000000
520 1 4.835976 27.403863 21.455895 1.000000 0 0.000000
521 1 4.835976 27.403863 23.679879 1.000000 0 0.000000
522 1 4.835976 27.403863 27.903863 1.000000 0 0.000000
523 1 4.835976 27.403863 30.127847 1.000000 0 0.000000
524 1 4.835976 27.403863 34.351831 1.000000 0 0.000000
525 1 4.835976 27.403863 36.575815 1.000000 0 0.000000
526 1 4.835976 27.403863 40.799799 1.000000 0 0.000000
527 1 4.835976 27.403863 43.023783 1.000000 0 0.000000
528 1 4.835976 27.403863 47.247767 1.000000 0 0.000000
529 1 4.835976 27.403863 49.471751 1.000000 0 0.000000
530 1 4.835976 27.403863 53.695734 1.000000 0 0.000000
531 1 4.835976 27.403863 55.919718 1.000000 0 0.000000
532 1 4.835976 27.403863 60.143702 1.000000 0 0.000000
533 1 4.835976 30.627847 2.111992 1.000000 0 0.000000
534 1 4.835976 30.627847 4.335976 1.000000 0 0.000000
535 1 4.835976 30.627847 8.559960 1.000000 0 0.000000
536 1 4.835976 30.627847 10.783944 1.000000 0 0.000000
537 1 4.835976 30.627847 15.007928 1.000000 0 0.000000
538 1 4.835976 30.627847 17.231911 1.000000 0 0.000000
539 1 4.835976 30.627847 21.455895 1.000000 0 0.000000
540 1 4.835976 30.627847 23.679879 1.000000 0 0.000000
541 1 4.835976 30.627847 27.903863 1.000000 0 0.000000
542 1 4.835976 30.627847 30.127847 1.000000 0 0.000000
543 1 4.835976 30.627847 34.351831 1.000000 0 0.000000
544 1 4.835976 30.627847 36.575815 1.000000 0 0.000000
545 1 4.835976 30.627847 40.799799 1.000000 0 0.000000
546 1 4.835976 30.627847 43.023783 1.000000 0 0.000000
547 1 4.835976 30.627847 47.247767 1.000000 0 0.000000
548 1 4.835976 30.627847 49.471751 1.000000 0 0.000000