Created with h2.pl

13718 atoms
2 atom types

0.000000 61.255694 xlo xhi
0.000000 61.255694 ylo yhi
0.000000 61.255694 zlo zhi

Masses

1 1.007940
2 1.000000

Atoms							

1	1	1.000000	0	0.000000	1.611992	1.611992	2.111992
2	1	1.000000	0	0.000000	1.611992	1.611992	4.335976
3	1	1.000000	0	0.000000	1.611992	1.611992	8.559960
4	1	1.000000	0	0.000000	1.611992	1.611992	10.783944
5	1	1.000000	0	0.000000	1.611992	1.611992	15.007928
6	1	1.000000	0	0.000000	1.611992	1.611992	17.231911
7	1	1.000000	0	0.000000	1.611992	1.611992	21.455895
8	1	1.000000	0	0.000000	1.611992	1.611992	23.679879
9	1	1.000000	0	0.000000	1.611992	1.611992	27.903863
10	1	1.000000	0	0.000000	1.611992	1.611992	30.127847
11	1	1.000000	0	0.000000	1.611992	1.611992	34.351831
12	1	1.000000	0	0.000000	1.611992	1.611992	36.575815
13	1	1.000000	0	0.000000	1.611992	1.611992	40.799799
14	1	1.000000	0	0.000000	1.611992	1.611992	43.023783
15	1	1.000000	0	0.000000	1.611992	1.611992	47.247767
16	1	1.000000	0	0.000000	1.611992	1.611992	49.471751
17	1	1.000000	0	0.000000	1.611992	1.611992	53.695734
18	1	1.000000	0	0.000000	1.611992	1.611992	55.919718
19	1	1.000000	0	0.000000	1.611992	1.611992	60.143702
20	1	1.000000	0	0.000000	1.611992	4.835976	2.111992
21	1	1.000000	0	0.000000	1.611992	4.835976	4.335976
22	1	1.000000	0	0.000000	1.611992	4.835976	8.559960
23	1	1.000000	0	0.000000	1.611992	4.835976	10.783944
24	1	1.000000	0	0.000000	1.611992	4.835976	15.007928
25	1	1.000000	0	0.000000	1.611992	4.835976	17.231911
26	1	1.000000	0	0.000000	1.611992	4.835976	21.455895
27	1	1.000000	0	0.000000	1.611992	4.835976	23.679879
28	1	1.000000	0	0.000000	1.611992	4.835976	27.903863
29	1	1.000000	0	0.000000	1.611992	4.835976	30.127847
30	1	1.000000	0	0.000000	1.611992	4.835976	34.351831
31	1	1.000000	0	0.000000	1.611992	4.835976	36.575815
32	1	1.000000	0	0.000000	1.611992	4.835976	40.799799
33	1	1.000000	0	0.000000	1.611992	4.835976	43.023783
34	1	1.000000	0	0.000000	1.611992	4.835976	47.247767
35	1	1.000000	0	0.000000	1.611992	4.835976	49.471751
36	1	1.000000	0	0.000000	1.611992	4.835976	53.695734
37	1	1.000000	0	0.000000	1.611992	4.835976	55.919718
38	1	1.000000	0	0.000000	1.611992	4.835976	60.143702
39	1	1.000000	0	0.000000	1.611992	8.059960	2.111992
40	1	1.000000	0	0.000000	1.611992	8.059960	4.335976
41	1	1.000000	0	0.000000	1.611992	8.059960	8.559960
42	1	1.000000	0	0.000000	1.611992	8.059960	10.783944
43	1	1.000000	0	0.000000	1.611992	8.059960	15.007928
44	1	1.000000	0	0.000000	1.611992	8.059960	17.231911
45	1	1.000000	0	0.000000	1.611992	8.059960	21.455895
46	1	1.000000	0	0.000000	1.611992	8.059960	23.679879
47	1	1.000000	0	0.000000	1.611992	8.059960	27.903863
48	1	1.000000	0	0.000000	1.611992	8.059960	30.127847
49	1	1.000000	0	0.000000	1.611992	8.059960	34.351831
50	1	1.000000	0	0.000000	1.611992	8.059960	36.575815
51	1	1.000000	0	0.000000	1.611992	8.059960	40.799799
52	1	1.000000	0	0.000000	1.611992	8.059960	43.023783
53	1	1.000000	0	0.000000	1.611992	8.059960	47.247767
54	1	1.000000	0	0.000000	1.611992	8.059960	49.471751
55	1	1.000000	0	0.000000	1.611992	8.059960	53.695734
56	1	1.000000	0	0.000000	1.611992	8.059960	55.919718
57	1	1.000000	0	0.000000	1.611992	8.059960	60.143702
58	1	1.000000	0	0.000000	1.611992	11.283944	2.111992
59	1	1.000000	0	0.000000	1.611992	11.283944	4.335976
60	1	1.000000	0	0.000000	1.611992	11.283944	8.559960
61	1	1.000000	0	0.000000	1.611992	11.283944	10.783944
62	1	1.000000	0	0.000000	1.611992	11.283944	15.007928
63	1	1.000000	0	0.000000	1.611992	11.283944	17.231911
64	1	1.000000	0	0.000000	1.611992	11.283944	21.455895
65	1	1.000000	0	0.000000	1.611992	11.283944	23.679879
66	1	1.000000	0	0.000000	1.611992	11.283944	27.903863
67	1	1.000000	0	0.000000	1.611992	11.283944	30.127847
68	1	1.000000	0	0.000000	1.611992	11.283944	34.351831
69	1	1.000000	0	0.000000	1.611992	11.283944	36.575815
70	1	1.000000	0	0.000000	1.611992	11.283944	40.799799
71	1	1.000000	0	0.000000	1.611992	11.283944	43.023783
72	1	1.000000	0	0.000000	1.611992	11.283944	47.247767
73	1	1.000000	0	0.000000	1.611992	11.283944	49.471751
74	1	1.000000	0	0.000000	1.611992	11.283944	53.695734
75	1	1.000000	0	0.000000	1.611992	11.283944	55.919718
76	1	1.000000	0	0.000000	1.611992	11.283944	60.143702
77	1	1.000000	0	0.000000	1.611992	14.507928	2.111992
78	1	1.000000	0	0.000000	1.611992	14.507928	4.335976
79	1	1.000000	0	0.000000	1.611992	14.507928	8.559960
80	1	1.000000	0	0.000000	1.611992	14.507928	10.783944
81	1	1.000000	0	0.000000	1.611992	14.507928	15.007928
82	1	1.000000	0	0.000000	1.611992	14.507928	17.231911
83	1	1.000000	0	0.000000	1.611992	14.507928	21.455895
84	1	1.000000	0	0.000000	1.611992	14.507928	23.679879
85	1	1.000000	0	0.000000	1.611992	14.507928	27.903863
86	1	1.000000	0	0.000000	1.611992	14.507928	30.127847
87	1	1.000000	0	0.000000	1.611992	14.507928	34.351831
88	1	1.000000	0	0.000000	1.611992	14.507928	36.575815
89	1	1.000000	0	0.000000	1.611992	14.507928	40.799799
90	1	1.000000	0	0.000000	1.611992	14.507928	43.023783
91	1	1.000000	0	0.000000	1.611992	14.507928	47.247767
92	1	1.000000	0	0.000000	1.611992	14.507928	49.471751
93	1	1.000000	0	0.000000	1.611992	14.507928	53.695734
94	1	1.000000	0	0.000000	1.611992	14.507928	55.919718
95	1	1.000000	0	0.000000	1.611992	14.507928	60.143702
96	1	1.000000	0	0.000000	1.611992	17.731911	2.111992
97	1	1.000000	0	0.000000	1.611992	17.731911	4.335976
98	1	1.000000	0	0.000000	1.611992	17.731911	8.559960
99	1	1.000000	0	0.000000	1.611992	17.731911	10.783944
100	1	1.000000	0	0.000000	1.611992	17.731911	15.007928
101	1	1.000000	0	0.000000	1.611992	17.731911	17.231911
102	1	1.000000	0	0.000000	1.611992	17.731911	21.455895
103	1	1.000000	0	0.000000	1.611992	17.731911	23.679879
104	1	1.000000	0	0.000000	1.611992	17.731911	27.903863
105	1	1.000000	0	0.000000	1.611992	17.731911	30.127847
106	1	1.000000	0	0.000000	1.611992	17.731911	34.351831
107	1	1.000000	0	0.000000	1.611992	17.731911	36.575815
108	1	1.000000	0	0.000000	1.611992	17.731911	40.799799
109	1	1.000000	0	0.000000	1.611992	17.731911	43.023783
110	1	1.000000	0	0.000000	1.611992	17.731911	47.247767
111	1	1.000000	0	0.000000	1.611992	17.731911	49.471751
112	1	1.000000	0	0.000000	1.611992	17.731911	53.695734
113	1	1.000000	0	0.000000	1.611992	17.731911	55.919718
114	1	1.000000	0	0.000000	1.611992	17.731911	60.143702
115	1	1.000000	0	0.000000	1.611992	20.955895	2.111992
116	1	1.000000	0	0.000000	1.611992	20.955895	4.335976
117	1	1.000000	0	0.000000	1.611992	20.955895	8.559960
118	1	1.000000	0	0.000000	1.611992	20.955895	10.783944
119	1	1.000000	0	0.000000	1.611992	20.955895	15.007928
120	1	1.000000	0	0.000000	1.611992	20.955895	17.231911
121	1	1.000000	0	0.000000	1.611992	20.955895	21.455895
122	1	1.000000	0	0.000000	1.611992	20.955895	23.679879
123	1	1.000000	0	0.000000	1.611992	20.955895	27.903863
124	1	1.000000	0	0.000000	1.611992	20.955895	30.127847
125	1	1.000000	0	0.000000	1.611992	20.955895	34.351831
126	1	1.000000	0	0.000000	1.611992	20.955895	36.575815
127	1	1.000000	0	0.000000	1.611992	20.955895	40.799799
128	1	1.000000	0	0.000000	1.611992	20.955895	43.023783
129	1	1.000000	0	0.000000	1.611992	20.955895	47.247767
130	1	1.000000	0	0.000000	1.611992	20.955895	49.471751
131	1	1.000000	0	0.000000	1.611992	20.955895	53.695734
132	1	1.000000	0	0.000000	1.611992	20.955895	55.919718
133	1	1.000000	0	0.000000	1.611992	20.955895	60.143702
134	1	1.000000	0	0.000000	1.611992	24.179879	2.111992
135	1	1.000000	0	0.000000	1.611992	24.179879	4.335976
136	1	1.000000	0	0.000000	1.611992	24.179879	8.559960
137	1	1.000000	0	0.000000	1.611992	24.179879	10.783944
138	1	1.000000	0	0.000000	1.611992	24.179879	15.007928
139	1	1.000000	0	0.000000	1.611992	24.179879	17.231911
140	1	1.000000	0	0.000000	1.611992	24.179879	21.455895
141	1	1.000000	0	0.000000	1.611992	24.179879	23.679879
142	1	1.000000	0	0.000000	1.611992	24.179879	27.903863
143	1	1.000000	0	0.000000	1.611992	24.179879	30.127847
144	1	1.000000	0	0.000000	1.611992	24.179879	34.351831
145	1	1.000000	0	0.000000	1.611992	24.179879	36.575815
146	1	1.000000	0	0.000000	1.611992	24.179879	40.799799
147	1	1.000000	0	0.000000	1.611992	24.179879	43.023783
148	1	1.000000	0	0.000000	1.611992	24.179879	47.247767
149	1	1.000000	0	0.000000	1.611992	24.179879	49.471751
150	1	1.000000	0	0.000000	1.611992	24.179879	53.695734
151	1	1.000000	0	0.000000	1.611992	24.179879	55.919718
152	1	1.000000	0	0.000000	1.611992	24.179879	60.143702
153	1	1.000000	0	0.000000	1.611992	27.403863	2.111992
154	1	1.000000	0	0.000000	1.611992	27.403863	4.335976
155	1	1.000000	0	0.000000	1.611992	27.403863	8.559960
156	1	1.000000	0	0.000000	1.611992	27.403863	10.783944
157	1	1.000000	0	0.000000	1.611992	27.403863	15.007928
158	1	1.000000	0	0.000000	1.611992	27.403863	17.231911
159	1	1.000000	0	0.000000	1.611992	27.403863	21.455895
160	1	1.000000	0	0.000000	1.611992	27.403863	23.679879
161	1	1.000000	0	0.000000	1.611992	27.403863	27.903863
162	1	1.000000	0	0.000000	1.611992	27.403863	30.127847
163	1	1.000000	0	0.000000	1.611992	27.403863	34.351831
164	1	1.000000	0	0.000000	1.611992	27.403863	36.575815
165	1	1.000000	0	0.000000	1.611992	27.403863	40.799799
166	1	1.000000	0	0.000000	1.611992	27.403863	43.023783
167	1	1.000000	0	0.000000	1.611992	27.403863	47.247767
168	1	1.000000	0	0.000000	1.611992	27.403863	49.471751
169	1	1.000000	0	0.000000	1.611992	27.403863	53.695734
170	1	1.000000	0	0.000000	1.611992	27.403863	55.919718
171	1	1.000000	0	0.000000	1.611992	27.403863	60.143702
172	1	1.000000	0	0.000000	1.611992	30.627847	2.111992
173	1	1.000000	0	0.000000	1.611992	30.627847	4.335976
174	1	1.000000	0	0.000000	1.611992	30.627847	8.559960
175	1	1.000000	0	0.000000	1.611992	30.627847	10.783944
176	1	1.000000	0	0.000000	1.611992	30.627847	15.007928
177	1	1.000000	0	0.000000	1.611992	30.627847	17.231911
178	1	1.000000	0	0.000000	1.611992	30.627847	21.455895
179	1	1.000000	0	0.000000	1.611992	30.627847	23.679879
180	1	1.000000	0	0.000000	1.611992	30.627847	27.903863
181	1	1.000000	0	0.000000	1.611992	30.627847	30.127847
182	1	1.000000	0	0.000000	1.611992	30.627847	34.351831
183	1	1.000000	0	0.000000	1.611992	30.627847	36.575815
184	1	1.000000	0	0.000000	1.611992	30.627847	40.799799
185	1	1.000000	0	0.000000	1.611992	30.627847	43.023783
186	1	1.000000	0	0.000000	1.611992	30.627847	47.247767
187	1	1.000000	0	0.000000	1.611992	30.627847	49.471751
188	1	1.000000	0	0.000000	1.611992	30.627847	53.695734
189	1	1.000000	0	0.000000	1.611992	30.627847	55.919718
190	1	1.000000	0	0.000000	1.611992	30.627847	60.143702
191	1	1.000000	0	0.000000	1.611992	33.851831	2.111992
192	1	1.000000	0	0.000000	1.611992	33.851831	4.335976
193	1	1.000000	0	0.000000	1.611992	33.851831	8.559960
194	1	1.000000	0	0.000000	1.611992	33.851831	10.783944
195	1	1.000000	0	0.000000	1.611992	33.851831	15.007928
196	1	1.000000	0	0.000000	1.611992	33.851831	17.231911
197	1	1.000000	0	0.000000	1.611992	33.851831	21.455895
198	1	1.000000	0	0.000000	1.611992	33.851831	23.679879
199	1	1.000000	0	0.000000	1.611992	33.851831	27.903863
200	1	1.000000	0	0.000000	1.611992	33.851831	30.127847
201	1	1.000000	0	0.000000	1.611992	33.851831	34.351831
202	1	1.000000	0	0.000000	1.611992	33.851831	36.575815
203	1	1.000000	0	0.000000	1.611992	33.851831	40.799799
204	1	1.000000	0	0.000000	1.611992	33.851831	43.023783
205	1	1.000000	0	0.000000	1.611992	33.851831	47.247767
206	1	1.000000	0	0.000000	1.611992	33.851831	49.471751
207	1	1.000000	0	0.000000	1.611992	33.851831	53.695734
208	1	1.000000	0	0.000000	1.611992	33.851831	55.919718
209	1	1.000000	0	0.000000	1.611992	33.851831	60.143702
210	1	1.000000	0	0.000000	1.611992	37.075815	2.111992
211	1	1.000000	0	0.000000	1.611992	37.075815	4.335976
212	1	1.000000	0	0.000000	1.611992	37.075815	8.559960
213	1	1.000000	0	0.000000	1.611992	37.075815	10.783944
214	1	1.000000	0	0.000000	1.611992	37.075815	15.007928
215	1	1.000000	0	0.000000	1.611992	37.075815	17.231911
216	1	1.000000	0	0.000000	1.611992	37.075815	21.455895
217	1	1.000000	0	0.000000	1.611992	37.075815	23.679879
218	1	1.000000	0	0.000000	1.611992	37.075815	27.903863
219	1	1.000000	0	0.000000	1.611992	37.075815	30.127847
220	1	1.000000	0	0.000000	1.611992	37.075815	34.351831
221	1	1.000000	0	0.000000	1.611992	37.075815	36.575815
222	1	1.000000	0	0.000000	1.611992	37.075815	40.799799
223	1	1.000000	0	0.000000	1.611992	37.075815	43.023783
224	1	1.000000	0	0.000000	1.611992	37.075815	47.247767
225	1	1.000000	0	0.000000	1.611992	37.075815	49.471751
226	1	1.000000	0	0.000000	1.611992	37.075815	53.695734
227	1	1.000000	0	0.000000	1.611992	37.075815	55.919718
228	1	1.000000	0	0.000000	1.611992	37.075815	60.143702
229	1	1.000000	0	0.000000	1.611992	40.299799	2.111992
230	1	1.000000	0	0.000000	1.611992	40.299799	4.335976
231	1	1.000000	0	0.000000	1.611992	40.299799	8.559960
232	1	1.000000	0	0.000000	1.611992	40.299799	10.783944
233	1	1.000000	0	0.000000	1.611992	40.299799	15.007928
234	1	1.000000	0	0.000000	1.611992	40.299799	17.231911
235	1	1.000000	0	0.000000	1.611992	40.299799	21.455895
236	1	1.000000	0	0.000000	1.611992	40.299799	23.679879
237	1	1.000000	0	0.000000	1.611992	40.299799	27.903863
238	1	1.000000	0	0.000000	1.611992	40.299799	30.127847
239	1	1.000000	0	0.000000	1.611992	40.299799	34.351831
240	1	1.000000	0	0.000000	1.611992	40.299799	36.575815
241	1	1.000000	0	0.000000	1.611992	40.299799	40.799799
242	1	1.000000	0	0.000000	1.611992	40.299799	43.023783
243	1	1.000000	0	0.000000	1.611992	40.299799	47.247767
244	1	1.000000	0	0.000000	1.611992	40.299799	49.471751
245	1	1.000000	0	0.000000	1.611992	40.299799	53.695734
246	1	1.000000	0	0.000000	1.611992	40.299799	55.919718
247	1	1.000000	0	0.000000	1.611992	40.299799	60.143702
248	1	1.000000	0	0.000000	1.611992	43.523783	2.111992
249	1	1.000000	0	0.000000	1.611992	43.523783	4.335976
250	1	1.000000	0	0.000000	1.611992	43.523783	8.559960
251	1	1.000000	0	0.000000	1.611992	43.523783	10.783944
252	1	1.000000	0	0.000000	1.611992	43.523783	15.007928
253	1	1.000000	0	0.000000	1.611992	43.523783	17.231911
254	1	1.000000	0	0.000000	1.611992	43.523783	21.455895
255	1	1.000000	0	0.000000	1.611992	43.523783	23.679879
256	1	1.000000	0	0.000000	1.611992	43.523783	27.903863
257	1	1.000000	0	0.000000	1.611992	43.523783	30.127847
258	1	1.000000	0	0.000000	1.611992	43.523783	34.351831
259	1	1.000000	0	0.000000	1.611992	43.523783	36.575815
260	1	1.000000	0	0.000000	1.611992	43.523783	40.799799
261	1	1.000000	0	0.000000	1.611992	43.523783	43.023783
262	1	1.000000	0	0.000000	1.611992	43.523783	47.247767
263	1	1.000000	0	0.000000	1.611992	43.523783	49.471751
264	1	1.000000	0	0.000000	1.611992	43.523783	53.695734
265	1	1.000000	0	0.000000	1.611992	43.523783	55.919718
266	1	1.000000	0	0.000000	1.611992	43.523783	60.143702
267	1	1.000000	0	0.000000	1.611992	46.747767	2.111992
268	1	1.000000	0	0.000000	1.611992	46.747767	4.335976
269	1	1.000000	0	0.000000	1.611992	46.747767	8.559960
270	1	1.000000	0	0.000000	1.611992	46.747767	10.783944
271	1	1.000000	0	0.000000	1.611992	46.747767	15.007928
272	1	1.000000	0	0.000000	1.611992	46.747767	17.231911
273	1	1.000000	0	0.000000	1.611992	46.747767	21.455895
274	1	1.000000	0	0.000000	1.611992	46.747767	23.679879
275	1	1.000000	0	0.000000	1.611992	46.747767	27.903863
276	1	1.000000	0	0.000000	1.611992	46.747767	30.127847
277	1	1.000000	0	0.000000	1.611992	46.747767	34.351831
278	1	1.000000	0	0.000000	1.611992	46.747767	36.575815
279	1	1.000000	0	0.000000	1.611992	46.747767	40.799799
280	1	1.000000	0	0.000000	1.611992	46.747767	43.023783
281	1	1.000000	0	0.000000	1.611992	46.747767	47.247767
282	1	1.000000	0	0.000000	1.611992	46.747767	49.471751
283	1	1.000000	0	0.000000	1.611992	46.747767	53.695734
284	1	1.000000	0	0.000000	1.611992	46.747767	55.919718
285	1	1.000000	0	0.000000	1.611992	46.747767	60.143702
286	1	1.000000	0	0.000000	1.611992	49.971751	2.111992
287	1	1.000000	0	0.000000	1.611992	49.971751	4.335976
288	1	1.000000	0	0.000000	1.611992	49.971751	8.559960
289	1	1.000000	0	0.000000	1.611992	49.971751	10.783944
290	1	1.000000	0	0.000000	1.611992	49.971751	15.007928
291	1	1.000000	0	0.000000	1.611992	49.971751	17.231911
292	1	1.000000	0	0.000000	1.611992	49.971751	21.455895
293	1	1.000000	0	0.000000	1.611992	49.971751	23.679879
294	1	1.000000	0	0.000000	1.611992	49.971751	27.903863
295	1	1.000000	0	0.000000	1.611992	49.971751	30.127847
296	1	1.000000	0	0.000000	1.611992	49.971751	34.351831
297	1	1.000000	0	0.000000	1.611992	49.971751	36.575815
298	1	1.000000	0	0.000000	1.611992	49.971751	40.799799
299	1	1.000000	0	0.000000	1.611992	49.971751	43.023783
300	1	1.000000	0	0.000000	1.611992	49.971751	47.247767
301	1	1.000000	0	0.000000	1.611992	49.971751	49.471751
302	1	1.000000	0	0.000000	1.611992	49.971751	53.695734
303	1	1.000000	0	0.000000	1.611992	49.971751	55.919718
304	1	1.000000	0	0.000000	1.611992	49.971751	60.143702
305	1	1.000000	0	0.000000	1.611992	53.195734	2.111992
306	1	1.000000	0	0.000000	1.611992	53.195734	4.335976
307	1	1.000000	0	0.000000	1.611992	53.195734	8.559960
308	1	1.000000	0	0.000000	1.611992	53.195734	10.783944
309	1	1.000000	0	0.000000	1.611992	53.195734	15.007928
310	1	1.000000	0	0.000000	1.611992	53.195734	17.231911
311	1	1.000000	0	0.000000	1.611992	53.195734	21.455895
312	1	1.000000	0	0.000000	1.611992	53.195734	23.679879
313	1	1.000000	0	0.000000	1.611992	53.195734	27.903863
314	1	1.000000	0	0.000000	1.611992	53.195734	30.127847
315	1	1.000000	0	0.000000	1.611992	53.195734	34.351831
316	1	1.000000	0	0.000000	1.611992	53.195734	36.575815
317	1	1.000000	0	0.000000	1.611992	53.195734	40.799799
318	1	1.000000	0	0.000000	1.611992	53.195734	43.023783
319	1	1.000000	0	0.000000	1.611992	53.195734	47.247767
320	1	1.000000	0	0.000000	1.611992	53.195734	49.471751
321	1	1.000000	0	0.000000	1.611992	53.195734	53.695734
322	1	1.000000	0	0.000000	1.611992	53.195734	55.919718
323	1	1.000000	0	0.000000	1.611992	53.195734	60.143702
324	1	1.000000	0	0.000000	1.611992	56.419718	2.111992
325	1	1.000000	0	0.000000	1.611992	56.419718	4.335976
326	1	1.000000	0	0.000000	1.611992	56.419718	8.559960
327	1	1.000000	0	0.000000	1.611992	56.419718	10.783944
328	1	1.000000	0	0.000000	1.611992	56.419718	15.007928
329	1	1.000000	0	0.000000	1.611992	56.419718	17.231911
330	1	1.000000	0	0.000000	1.611992	56.419718	21.455895
331	1	1.000000	0	0.000000	1.611992	56.419718	23.679879
332	1	1.000000	0	0.000000	1.611992	56.419718	27.903863
333	1	1.000000	0	0.000000	1.611992	56.419718	30.127847
334	1	1.000000	0	0.000000	1.611992	56.419718	34.351831
335	1	1.000000	0	0.000000	1.611992	56.419718	36.575815
336	1	1.000000	0	0.000000	1.611992	56.419718	40.799799
337	1	1.000000	0	0.000000	1.611992	56.419718	43.023783
338	1	1.000000	0	0.000000	1.611992	56.419718	47.247767
339	1	1.000000	0	0.000000	1.611992	56.419718	49.471751
340	1	1.000000	0	0.000000	1.611992	56.419718	53.695734
341	1	1.000000	0	0.000000	1.611992	56.419718	55.919718
342	1	1.000000	0	0.000000	1.611992	56.419718	60.143702
343	1	1.000000	0	0.000000	1.611992	59.643702	2.111992
344	1	1.000000	0	0.000000	1.611992	59.643702	4.335976
345	1	1.000000	0	0.000000	1.611992	59.643702	8.559960
346	1	1.000000	0	0.000000	1.611992	59.643702	10.783944
347	1	1.000000	0	0.000000	1.611992	59.643702	15.007928
348	1	1.000000	0	0.000000	1.611992	59.643702	17.231911
349	1	1.000000	0	0.000000	1.611992	59.643702	21.455895
350	1	1.000000	0	0.000000	1.611992	59.643702	23.679879
351	1	1.000000	0	0.000000	1.611992	59.643702	27.903863
352	1	1.000000	0	0.000000	1.611992	59.643702	30.127847
353	1	1.000000	0	0.000000	1.611992	59.643702	34.351831
354	1	1.000000	0	0.000000	1.611992	59.643702	36.575815
355	1	1.000000	0	0.000000	1.611992	59.643702	40.799799
356	1	1.000000	0	0.000000	1.611992	59.643702	43.023783
357	1	1.000000	0	0.000000	1.611992	59.643702	47.247767
358	1	1.000000	0	0.000000	1.611992	59.643702	49.471751
359	1	1.000000	0	0.000000	1.611992	59.643702	53.695734
360	1	1.000000	0	0.000000	1.611992	59.643702	55.919718
361	1	1.000000	0	0.000000	1.611992	59.643702	60.143702
362	1	1.000000	0	0.000000	4.835976	1.611992	2.111992
363	1	1.000000	0	0.000000	4.835976	1.611992	4.335976
364	1	1.000000	0	0.000000	4.835976	1.611992	8.559960
365	1	1.000000	0	0.000000	4.835976	1.611992	10.783944
366	1	1.000000	0	0.000000	4.835976	1.611992	15.007928
367	1	1.000000	0	0.000000	4.835976	1.611992	17.231911
368	1	1.000000	0	0.000000	4.835976	1.611992	21.455895
369	1	1.000000	0	0.000000	4.835976	1.611992	23.679879
370	1	1.000000	0	0.000000	4.835976	1.611992	27.903863
371	1	1.000000	0	0.000000	4.835976	1.611992	30.127847
372	1	1.000000	0	0.000000	4.835976	1.611992	34.351831
373	1	1.000000	0	0.000000	4.835976	1.611992	36.575815
374	1	1.000000	0	0.000000	4.835976	1.611992	40.799799
375	1	1.000000	0	0.000000	4.835976	1.611992	43.023783
376	1	1.000000	0	0.000000	4.835976	1.611992	47.247767
377	1	1.000000	0	0.000000	4.835976	1.611992	49.471751
378	1	1.000000	0	0.000000	4.835976	1.611992	53.695734
379	1	1.000000	0	0.000000	4.835976	1.611992	55.919718
380	1	1.000000	0	0.000000	4.835976	1.611992	60.143702
381	1	1.000000	0	0.000000	4.835976	4.835976	2.111992
382	1	1.000000	0	0.000000	4.835976	4.835976	4.335976
383	1	1.000000	0	0.000000	4.835976	4.835976	8.559960
384	1	1.000000	0	0.000000	4.835976	4.835976	10.783944
385	1	1.000000	0	0.000000	4.835976	4.835976	15.007928
386	1	1.000000	0	0.000000	4.835976	4.835976	17.231911
387	1	1.000000	0	0.000000	4.835976	4.835976	21.455895
388	1	1.000000	0	0.000000	4.835976	4.835976	23.679879
389	1	1.000000	0	0.000000	4.835976	4.835976	27.903863
390	1	1.000000	0	0.000000	4.835976	4.835976	30.127847
391	1	1.000000	0	0.000000	4.835976	4.835976	34.351831
392	1	1.000000	0	0.000000	4.835976	4.835976	36.575815
393	1	1.000000	0	0.000000	4.835976	4.835976	40.799799
394	1	1.000000	0	0.000000	4.835976	4.835976	43.023783
395	1	1.000000	0	0.000000	4.835976	4.835976	47.247767
396	1	1.000000	0	0.000000	4.835976	4.835976	49.471751
397	1	1.000000	0	0.000000	4.835976	4.835976	53.695734
398	1	1.000000	0	0.000000	4.835976	4.835976	55.919718
399	1	1.000000	0	0.000000	4.835976	4.835976	60.143702
400	1	1.000000	0	0.000000	4.835976	8.059960	2.111992
401	1	1.000000	0	0.000000	4.835976	8.059960	4.335976
402	1	1.000000	0	0.000000	4.835976	8.059960	8.559960
403	1	1.000000	0	0.000000	4.835976	8.059960	10.783944
404	1	1.000000	0	0.000000	4.835976	8.059960	15.007928
405	1	1.000000	0	0.000000	4.835976	8.059960	17.231911
406	1	1.000000	0	0.000000	4.835976	8.059960	21.455895
407	1	1.000000	0	0.000000	4.835976	8.059960	23.679879
408	1	1.000000	0	0.000000	4.835976	8.059960	27.903863
409	1	1.000000	0	0.000000	4.835976	8.059960	30.127847
410	1	1.000000	0	0.000000	4.835976	8.059960	34.351831
411	1	1.000000	0	0.000000	4.835976	8.059960	36.575815
412	1	1.000000	0	0.000000	4.835976	8.059960	40.799799
413	1	1.000000	0	0.000000	4.835976	8.059960	43.023783
414	1	1.000000	0	0.000000	4.835976	8.059960	47.247767
415	1	1.000000	0	0.000000	4.835976	8.059960	49.471751
416	1	1.000000	0	0.000000	4.835976	8.059960	53.695734
417	1	1.000000	0	0.000000	4.835976	8.059960	55.919718
418	1	1.000000	0	0.000000	4.835976	8.059960	60.143702
419	1	1.000000	0	0.000000	4.835976	11.283944	2.111992
420	1	1.000000	0	0.000000	4.835976	11.283944	4.335976
421	1	1.000000	0	0.000000	4.835976	11.283944	8.559960
422	1	1.000000	0	0.000000	4.835976	11.283944	10.783944
423	1	1.000000	0	0.000000	4.835976	11.283944	15.007928
424	1	1.000000	0	0.000000	4.835976	11.283944	17.231911
425	1	1.000000	0	0.000000	4.835976	11.283944	21.455895
426	1	1.000000	0	0.000000	4.835976	11.283944	23.679879
427	1	1.000000	0	0.000000	4.835976	11.283944	27.903863
428	1	1.000000	0	0.000000	4.835976	11.283944	30.127847
429	1	1.000000	0	0.000000	4.835976	11.283944	34.351831
430	1	1.000000	0	0.000000	4.835976	11.283944	36.575815
431	1	1.000000	0	0.000000	4.835976	11.283944	40.799799
432	1	1.000000	0	0.000000	4.835976	11.283944	43.023783
433	1	1.000000	0	0.000000	4.835976	11.283944	47.247767
434	1	1.000000	0	0.000000	4.835976	11.283944	49.471751
435	1	1.000000	0	0.000000	4.835976	11.283944	53.695734
436	1	1.000000	0	0.000000	4.835976	11.283944	55.919718
437	1	1.000000	0	0.000000	4.835976	11.283944	60.143702
438	1	1.000000	0	0.000000	4.835976	14.507928	2.111992
439	1	1.000000	0	0.000000	4.835976	14.507928	4.335976
440	1	1.000000	0	0.000000	4.835976	14.507928	8.559960
441	1	1.000000	0	0.000000	4.835976	14.507928	10.783944
442	1	1.000000	0	0.000000	4.835976	14.507928	15.007928
443	1	1.000000	0	0.000000	4.835976	14.507928	17.231911
444	1	1.000000	0	0.000000	4.835976	14.507928	21.455895
445	1	1.000000	0	0.000000	4.835976	14.507928	23.679879
446	1	1.000000	0	0.000000	4.835976	14.507928	27.903863
447	1	1.000000	0	0.000000	4.835976	14.507928	30.127847
448	1	1.000000	0	0.000000	4.835976	14.507928	34.351831
449	1	1.000000	0	0.000000	4.835976	14.507928	36.575815
450	1	1.000000	0	0.000000	4.835976	14.507928	40.799799
451	1	1.000000	0	0.000000	4.835976	14.507928	43.023783
452	1	1.000000	0	0.000000	4.835976	14.507928	47.247767
453	1	1.000000	0	0.000000	4.835976	14.507928	49.471751
454	1	1.000000	0	0.000000	4.835976	14.507928	53.695734
455	1	1.000000	0	0.000000	4.835976	14.507928	55.919718
456	1	1.000000	0	0.000000	4.835976	14.507928	60.143702
457	1	1.000000	0	0.000000	4.835976	17.731911	2.111992
458	1	1.000000	0	0.000000	4.835976	17.731911	4.335976
459	1	1.000000	0	0.000000	4.835976	17.731911	8.559960
460	1	1.000000	0	0.000000	4.835976	17.731911	10.783944
461	1	1.000000	0	0.000000	4.835976	17.731911	15.007928
462	1	1.000000	0	0.000000	4.835976	17.731911	17.231911
463	1	1.000000	0	0.000000	4.835976	17.731911	21.455895
464	1	1.000000	0	0.000000	4.835976	17.731911	23.679879
465	1	1.000000	0	0.000000	4.835976	17.731911	27.903863
466	1	1.000000	0	0.000000	4.835976	17.731911	30.127847
467	1	1.000000	0	0.000000	4.835976	17.731911	34.351831
468	1	1.000000	0	0.000000	4.835976	17.731911	36.575815
469	1	1.000000	0	0.000000	4.835976	17.731911	40.799799
470	1	1.000000	0	0.000000	4.835976	17.731911	43.023783
471	1	1.000000	0	0.000000	4.835976	17.731911	47.247767
472	1	1.000000	0	0.000000	4.835976	17.731911	49.471751
473	1	1.000000	0	0.000000	4.835976	17.731911	53.695734
474	1	1.000000	0	0.000000	4.835976	17.731911	55.919718
475	1	1.000000	0	0.000000	4.835976	17.731911	60.143702
476	1	1.000000	0	0.000000	4.835976	20.955895	2.111992
477	1	1.000000	0	0.000000	4.835976	20.955895	4.335976
478	1	1.000000	0	0.000000	4.835976	20.955895	8.559960
479	1	1.000000	0	0.000000	4.835976	20.955895	10.783944
480	1	1.000000	0	0.000000	4.835976	20.955895	15.007928
481	1	1.000000	0	0.000000	4.835976	20.955895	17.231911
482	1	1.000000	0	0.000000	4.835976	20.955895	21.455895
483	1	1.000000	0	0.000000	4.835976	20.955895	23.679879
484	1	1.000000	0	0.000000	4.835976	20.955895	27.903863
485	1	1.000000	0	0.000000	4.835976	20.955895	30.127847
486	1	1.000000	0	0.000000	4.835976	20.955895	34.351831
487	1	1.000000	0	0.000000	4.835976	20.955895	36.575815
488	1	1.000000	0	0.000000	4.835976	20.955895	40.799799
489	1	1.000000	0	0.000000	4.835976	20.955895	43.023783
490	1	1.000000	0	0.000000	4.835976	20.955895	47.247767
491	1	1.000000	0	0.000000	4.835976	20.955895	49.471751
492	1	1.000000	0	0.000000	4.835976	20.955895	53.695734
493	1	1.000000	0	0.000000	4.835976	20.955895	55.919718
494	1	1.000000	0	0.000000	4.835976	20.955895	60.143702
495	1	1.000000	0	0.000000	4.835976	24.179879	2.111992
496	1	1.000000	0	0.000000	4.835976	24.179879	4.335976
497	1	1.000000	0	0.000000	4.835976	24.179879	8.559960
498	1	1.000000	0	0.000000	4.835976	24.179879	10.783944
499	1	1.000000	0	0.000000	4.835976	24.179879	15.007928
500	1	1.000000	0	0.000000	4.835976	24.179879	17.231911
501	1	1.000000	0	0.000000	4.835976	24.179879	21.455895
502	1	1.000000	0	0.000000	4.835976	24.179879	23.679879
503	1	1.000000	0	0.000000	4.835976	24.179879	27.903863
504	1	1.000000	0	0.000000	4.835976	24.179879	30.127847
505	1	1.000000	0	0.000000	4.835976	24.179879	34.351831
506	1	1.000000	0	0.000000	4.835976	24.179879	36.575815
507	1	1.000000	0	0.000000	4.835976	24.179879	40.799799
508	1	1.000000	0	0.000000	4.835976	24.179879	43.023783
509	1	1.000000	0	0.000000	4.835976	24.179879	47.247767
510	1	1.000000	0	0.000000	4.835976	24.179879	49.471751
511	1	1.000000	0	0.000000	4.835976	24.179879	53.695734
512	1	1.000000	0	0.000000	4.835976	24.179879	55.919718
513	1	1.000000	0	0.000000	4.835976	24.179879	60.143702
514	1	1.000000	0	0.000000	4.835976	27.403863	2.111992
515	1	1.000000	0	0.000000	4.835976	27.403863	4.335976
516	1	1.000000	0	0.000000	4.835976	27.403863	8.559960
517	1	1.000000	0	0.000000	4.835976	27.403863	10.783944
518	1	1.000000	0	0.000000	4.835976	27.403863	15.007928
519	1	1.000000	0	0.000000	4.835976	27.403863	17.231911
520	1	1.000000	0	0.000000	4.835976	27.403863	21.455895
521	1	1.000000	0	0.000000	4.835976	27.403863	23.679879
522	1	1.000000	0	0.000000	4.835976	27.403863	27.903863
523	1	1.000000	0	0.000000	4.835976	27.403863	30.127847
524	1	1.000000	0	0.000000	4.835976	27.403863	34.351831
525	1	1.000000	0	0.000000	4.835976	27.403863	36.575815
526	1	1.000000	0	0.000000	4.835976	27.403863	40.799799
527	1	1.000000	0	0.000000	4.835976	27.403863	43.023783
528	1	1.000000	0	0.000000	4.835976	27.403863	47.247767
529	1	1.000000	0	0.000000	4.835976	27.403863	49.471751
530	1	1.000000	0	0.000000	4.835976	27.403863	53.695734
531	1	1.000000	0	0.000000	4.835976	27.403863	55.919718
532	1	1.000000	0	0.000000	4.835976	27.403863	60.143702
533	1	1.000000	0	0.000000	4.835976	30.627847	2.111992
534	1	1.000000	0	0.000000	4.835976	30.627847	4.335976
535	1	1.000000	0	0.000000	4.835976	30.627847	8.559960
536	1	1.000000	0	0.000000	4.835976	30.627847	10.783944
537	1	1.000000	0	0.000000	4.835976	30.627847	15.007928
538	1	1.000000	0	0.000000	4.835976	30.627847	17.231911
539	1	1.000000	0	0.000000	4.835976	30.627847	21.455895
540	1	1.000000	0	0.000000	4.835976	30.627847	23.679879
541	1	1.000000	0	0.000000	4.835976	30.627847	27.903863
542	1	1.000000	0	0.000000	4.835976	30.627847	30.127847
543	1	1.000000	0	0.000000	4.835976	30.627847	34.351831
544	1	1.000000	0	0.000000	4.835976	30.627847	36.575815
545	1	1.000000	0	0.000000	4.835976	30.627847	40.799799
546	1	1.000000	0	0.000000	4.835976	30.627847	43.023783
547	1	1.000000	0	0.000000	4.835976	30.627847	47.247767