LAMMPS (22 June 2007)
# 3d Lennard-Jones melt

variable	x index 20
variable	y index 20
variable	z index 20

units		lj
atom_style	atomic

lattice		fcc 0.8442
Lattice spacing in x,y,z = 1.6796 1.6796 1.6796
region		box block 0 $x 0 $y 0 $z
region		box block 0 20 0 $y 0 $z
region		box block 0 20 0 20 0 $z
region		box block 0 20 0 20 0 20
create_box	1 box
Created orthogonal box = (0 0 0) to (33.5919 33.5919 33.5919)
  1 by 1 by 1 processor grid
create_atoms	1 box
Created 32000 atoms
mass		1 1.0

velocity	all create 1.44 87287 loop geom

pair_style	lj/cut 2.5
pair_coeff	1 1 1.0 1.0 2.5

neighbor	0.3 bin
neigh_modify	delay 0 every 20 check no

fix		1 all nve

run		100
Memory usage per processor = 13.4306 Mbytes
Step Temp E_pair E_mol TotEng Press 
       0         1.44   -6.7733681            0   -4.6134356   -5.0197073 
     100   0.77196819   -5.7795465            0   -4.6216304  0.079908069 
Loop time of 13.8981 on 1 procs for 100 steps with 32000 atoms

Pair  time (%) = 12.0067 (86.3907)
Neigh time (%) = 1.07342 (7.72346)
Comm  time (%) = 0.271477 (1.95334)
Outpt time (%) = 0.000835 (0.00600801)
Other time (%) = 0.545714 (3.92653)

Nlocal:    32000 ave 32000 max 32000 min
Histogram: 1 0 0 0 0 0 0 0 0 0
Nghost:    19715 ave 19715 max 19715 min
Histogram: 1 0 0 0 0 0 0 0 0 0
Neighs:    1.20353e+06 ave 1.20353e+06 max 1.20353e+06 min
Histogram: 1 0 0 0 0 0 0 0 0 0

Total # of neighbors = 1203529
Ave neighs/atom = 37.6103
Neighbor list builds = 5
Dangerous builds = 0
