LAMMPS data file for line box

9 atoms
9 lines
2 atom types
-15 15 xlo xhi
-15 15 ylo yhi
-0.5 0.5 zlo zhi

Atoms

1 1 2 1 1 8.5 5 0
2 1 2 1 1 5 8.5 0
3 1 2 1 1 -5 8.5 0
4 1 2 1 1 -8.5 5 0
5 1 2 1 1 -8.5 -5 0
6 1 2 1 1 -5 -10 0
7 1 2 1 1 5 -10 0
8 1 2 1 1 10 -5 0 
9 1 2 1 1 0 -6.95 0

Lines

1 7 0 10 10
2 10 10 0 7
3 0 7 -10 10
4 -10 10 -7 0
5 -7 0 -10 -10
6 -10 -10 0 -10
7 0 -10 10 -10
8 10 -10 10 0
9 0 -9.9 0 -4
