LAMMPS data file generated from box24.stl

24 atoms
24 triangles
2 atom types
-9.0 9.0 xlo xhi
-9.0 9.0 ylo yhi
-9.0 9.0 zlo zhi

Atoms

1 1 2 1 1 4.0 0.0 -6.0
2 1 2 1 1 4.0 0.0 6.0
3 1 2 1 1 0.0 -4.0 6.0
4 1 2 1 1 -4.0 0.0 6.0
5 1 2 1 1 0.0 -4.0 -6.0
6 1 2 1 1 -4.0 0.0 -6.0
7 1 2 1 1 0.0 4.0 6.0
8 1 2 1 1 0.0 4.0 -6.0
9 1 2 1 1 4.0 6.0 0.0
10 1 2 1 1 0.0 6.0 4.0
11 1 2 1 1 4.0 -6.0 0.0
12 1 2 1 1 0.0 -6.0 4.0
13 1 2 1 1 0.0 6.0 -4.0
14 1 2 1 1 -4.0 6.0 0.0
15 1 2 1 1 0.0 -6.0 -4.0
16 1 2 1 1 -4.0 -6.0 0.0
17 1 2 1 1 6.0 4.0 0.0
18 1 2 1 1 6.0 0.0 -4.0
19 1 2 1 1 -6.0 4.0 0.0
20 1 2 1 1 -6.0 0.0 -4.0
21 1 2 1 1 6.0 0.0 4.0
22 1 2 1 1 6.0 -4.0 0.0
23 1 2 1 1 -6.0 0.0 4.0
24 1 2 1 1 -6.0 -4.0 0.0

Triangles

1 0.0 0.0 -6.0 6.0 6.0 -6.0 6.0 -6.0 -6.0
2 0.0 0.0 6.0 6.0 -6.0 6.0 6.0 6.0 6.0
3 0.0 0.0 6.0 -6.0 -6.0 6.0 6.0 -6.0 6.0
4 -6.0 6.0 6.0 -6.0 -6.0 6.0 0.0 0.0 6.0
5 -6.0 -6.0 -6.0 0.0 0.0 -6.0 6.0 -6.0 -6.0
6 0.0 0.0 -6.0 -6.0 -6.0 -6.0 -6.0 6.0 -6.0
7 0.0 0.0 6.0 6.0 6.0 6.0 -6.0 6.0 6.0
8 6.0 6.0 -6.0 0.0 0.0 -6.0 -6.0 6.0 -6.0
9 6.0 6.0 -6.0 0.0 6.0 0.0 6.0 6.0 6.0
10 0.0 6.0 0.0 -6.0 6.0 6.0 6.0 6.0 6.0
11 6.0 -6.0 6.0 0.0 -6.0 0.0 6.0 -6.0 -6.0
12 0.0 -6.0 0.0 6.0 -6.0 6.0 -6.0 -6.0 6.0
13 0.0 6.0 0.0 6.0 6.0 -6.0 -6.0 6.0 -6.0
14 -6.0 6.0 6.0 0.0 6.0 0.0 -6.0 6.0 -6.0
15 0.0 -6.0 0.0 -6.0 -6.0 -6.0 6.0 -6.0 -6.0
16 0.0 -6.0 0.0 -6.0 -6.0 6.0 -6.0 -6.0 -6.0
17 6.0 6.0 6.0 6.0 0.0 0.0 6.0 6.0 -6.0
18 6.0 0.0 0.0 6.0 -6.0 -6.0 6.0 6.0 -6.0
19 -6.0 6.0 -6.0 -6.0 0.0 0.0 -6.0 6.0 6.0
20 -6.0 0.0 0.0 -6.0 6.0 -6.0 -6.0 -6.0 -6.0
21 6.0 0.0 0.0 6.0 6.0 6.0 6.0 -6.0 6.0
22 6.0 -6.0 -6.0 6.0 0.0 0.0 6.0 -6.0 6.0
23 -6.0 0.0 0.0 -6.0 -6.0 6.0 -6.0 6.0 6.0
24 -6.0 0.0 0.0 -6.0 -6.0 -6.0 -6.0 -6.0 6.0
