LAMMPS (27 Jun 2024)
# pouring spheres into box made of triangles

units		lj
atom_style	tri
atom_modify     map array
boundary        f f f
dimension	3
comm_modify     vel yes

read_data	data.tribox
Reading data file ...
  orthogonal box = (-9 -9 -9) to (9 9 9)
  1 by 1 by 1 MPI processor grid
  reading atoms ...
  24 atoms
  24 triangles
  read_data CPU = 0.001 seconds

pair_style	hybrid gran/hooke 4000.0 NULL 100.0 NULL 0.5 1                 tri/gran/hooke 4000.0 NULL 100.0 NULL 0.5 1
pair_coeff	1 1 gran/hooke
pair_coeff	1 2 tri/gran/hooke
pair_coeff	2 2 none

group           sphere type 1
0 atoms in group sphere
group           tri type 2
24 atoms in group tri

fix             fsl all surface/local NULL

neighbor	0.3 bin
neigh_modify	delay 0 every 1 check yes

#displace_atoms  all rotate 0 0 0 0 0 1 45

fix             2 sphere nve/sphere
fix		3 sphere gravity 1.0 vector 0 0 -1
#fix             4 sphere viscous 0.2

region          slab block -2 2 -2 2 -2 2 units box
fix             ins sphere pour 100 1 4767548 vol 0.4 10 	        diam one 1.0 region slab ignore
Particle insertion: 48 every 566 steps, 100 by step 1133

timestep	0.005

compute         1 sphere temp
compute_modify  1 dynamic yes

compute         2 sphere temp/sphere
compute_modify  2 dynamic yes

thermo		100
thermo_style	custom step atoms temp c_1 c_2 press
thermo_modify   lost ignore
compute_modify  thermo_temp dynamic yes

dump		2 all image 100 tmp.image.*.ppm type type 		zoom 1.4 adiam 1.0 tri type 2 0.2
dump_modify	2 pad 5

run	        5000

CITE-CITE-CITE-CITE-CITE-CITE-CITE-CITE-CITE-CITE-CITE-CITE-CITE

Your simulation uses code contributions which should be cited:

- Type Label Framework: https://doi.org/10.1021/acs.jpcb.3c08419

@Article{Gissinger24,
 author = {Jacob R. Gissinger, Ilia Nikiforov, Yaser Afshar, Brendon Waters, Moon-ki Choi, Daniel S. Karls, Alexander Stukowski, Wonpil Im, Hendrik Heinz, Axel Kohlmeyer, and Ellad B. Tadmor},
 title = {Type Label Framework for Bonded Force Fields in LAMMPS},
 journal = {J. Phys. Chem. B},
 year =    2024,
 volume =  128,
 number =  13,
 pages =   {3282–-3297}
}

CITE-CITE-CITE-CITE-CITE-CITE-CITE-CITE-CITE-CITE-CITE-CITE-CITE

Generated 0 of 1 mixed pair_coeff terms from geometric mixing rule
Neighbor list info ...
  update: every = 1 steps, delay = 0 steps, check = yes
  max neighbors/atom: 2000, page size: 100000
  master list distance cutoff = 7.1245553
  ghost atom cutoff = 7.1245553
  binsize = 3.5622777, bins = 6 6 6
  3 neighbor lists, perpetual/occasional/extra = 3 0 0
  (1) pair gran/hooke, perpetual, skip trim from (3)
      attributes: half, newton on, size, cut 1.3, off2on
      pair build: skip/trim/size/off2on
      stencil: none
      bin: none
  (2) pair tri/gran/hooke, perpetual, skip from (3)
      attributes: half, newton on, size, onesided, off2on
      pair build: skip/size/off2on/oneside
      stencil: none
      bin: none
  (3) neighbor class addition, perpetual
      attributes: half, newton off, size
      pair build: half/size/bin/atomonly/newtoff
      stencil: full/bin/3d
      bin: standard
Per MPI rank memory allocation (min/avg/max) = 7.31 | 7.31 | 7.31 Mbytes
   Step        Atoms         Temp           c_1            c_2           Press     
         0          24   0              0              0              0            
WARNING: Fewer insertions than requested (../fix_pour.cpp:683)
       100          54   0.43980579     0.803783       0.39507978     0.0039968633 
       200          54   0.65485258     1.1967995      0.5882574      0.0059511637 
       300          54   0.70130448     1.2816944      0.63007607     0.0063733089 
       400          54   0.45082726     0.82392569     0.41204308     0.0042712044 
       500          54   0.42703582     0.78044477     0.38975619     0.0078751113 
WARNING: Fewer insertions than requested (../fix_pour.cpp:683)
       600          88   0.36378363     0.50236787     0.26121204     0.005580258  
       700          88   0.40897553     0.56477573     0.29461507     0.0062103139 
       800          88   0.45442734     0.62754252     0.32702702     0.01172199   
       900          88   0.38769052     0.53538215     0.29109526     0.011453827  
      1000          88   0.37409476     0.51660706     0.2871167      0.0081282082 
      1100          88   0.35735415     0.49348906     0.27107416     0.0085794315 
WARNING: Fewer insertions than requested (../fix_pour.cpp:683)
      1200         123   0.33910268     0.42214823     0.22820948     0.014523415  
      1300         123   0.34253102     0.42641617     0.23083606     0.012592038  
      1400         123   0.26380089     0.32840519     0.18540471     0.019217679  
      1500         123   0.26287435     0.32725175     0.18382847     0.009073899  
      1600         123   0.22125116     0.27543512     0.15863519     0.011459114  
      1700         124   0.17994881     0.22357276     0.1323084      0.0048041133 
      1800         124   0.10484006     0.13025583     0.085106685    0.0044535742 
      1900         124   0.070460717    0.087542103    0.059477957    0.0027460127 
      2000         124   0.069140804    0.085902211    0.057177221    0.0028764389 
      2100         124   0.044395978    0.055158639    0.037361834    0.0047974667 
      2200         124   0.043165403    0.053629743    0.03447346     0.0026358928 
      2300         124   0.022301073    0.027707394    0.020102237    0.0014883335 
      2400         124   0.013514412    0.016790633    0.013186206    0.002325602  
      2500         124   0.010269497    0.012759072    0.010167755    0.0018750155 
      2600         124   0.007156998    0.0088920278   0.0079248938   0.0019606606 
      2700         124   0.0053272592   0.0066187159   0.0060381396   0.0015899189 
      2800         124   0.0049732574   0.0061788955   0.0055201323   0.0015575098 
      2900         124   0.0034389569   0.0042726435   0.0040970394   0.0023173363 
      3000         124   0.0027613458   0.003430763    0.0032325603   0.0018824388 
      3100         124   0.0024990042   0.0031048234   0.0028215135   0.0026234259 
      3200         124   0.0017976528   0.0022334474   0.0021940732   0.0016842693 
      3300         124   0.0010884141   0.001352272    0.0014613478   0.0015441795 
      3400         124   0.0010405091   0.0012927537   0.0013956745   0.001571443  
      3500         124   0.0010765766   0.0013375648   0.0013287703   0.0015522494 
      3600         124   0.00081891021  0.0010174339   0.0011208035   0.0016000812 
      3700         124   0.00090145807  0.0011199934   0.0011567831   0.0015733122 
      3800         124   0.00140364     0.0017439164   0.0013153706   0.0017988685 
      3900         124   0.00049247822  0.00061186688  0.00071870865  0.0015665202 
      4000         124   0.00045666898  0.00056737661  0.00066940396  0.0015712098 
      4100         124   0.00042619616  0.00052951644  0.00063332787  0.0015759583 
      4200         124   0.00036113651  0.00044868475  0.00056665527  0.001576302  
      4300         124   0.00035226447  0.00043766192  0.00055789831  0.0016105156 
      4400         124   0.00031038324  0.00038562766  0.00052368731  0.0017233961 
      4500         124   0.00028932551  0.00035946503  0.00048434265  0.0015563793 
      4600         124   0.00027970544  0.00034751282  0.00047166992  0.0015933351 
      4700         124   0.00023781605  0.00029546842  0.0004057567   0.0016542167 
      4800         124   0.00022258987  0.00027655106  0.00035988265  0.0016019168 
      4900         124   0.00019863185  0.00024678503  0.000326351    0.0016355539 
      5000         124   0.00019419048  0.00024126696  0.00031309062  0.0016596206 
Loop time of 0.391027 on 1 procs for 5000 steps with 124 atoms

Performance: 5523915.822 tau/day, 12786.842 timesteps/s, 1.586 Matom-step/s
93.2% CPU use with 1 MPI tasks x no OpenMP threads

MPI task timing breakdown:
Section |  min time  |  avg time  |  max time  |%varavg| %total
---------------------------------------------------------------
Pair    | 0.053101   | 0.053101   | 0.053101   |   0.0 | 13.58
Neigh   | 0.014276   | 0.014276   | 0.014276   |   0.0 |  3.65
Comm    | 0.00043726 | 0.00043726 | 0.00043726 |   0.0 |  0.11
Output  | 0.31734    | 0.31734    | 0.31734    |   0.0 | 81.16
Modify  | 0.0045131  | 0.0045131  | 0.0045131  |   0.0 |  1.15
Other   |            | 0.001358   |            |       |  0.35

Nlocal:            124 ave         124 max         124 min
Histogram: 1 0 0 0 0 0 0 0 0 0
Nghost:              0 ave           0 max           0 min
Histogram: 1 0 0 0 0 0 0 0 0 0
Neighs:              0 ave           0 max           0 min
Histogram: 1 0 0 0 0 0 0 0 0 0

Total # of neighbors = 0
Ave neighs/atom = 0
Neighbor list builds = 271
Dangerous builds = 0

fix             1 tri move rotate 0 0 0 0 0 1 25
run	        5000
Generated 0 of 1 mixed pair_coeff terms from geometric mixing rule
Per MPI rank memory allocation (min/avg/max) = 8.438 | 8.438 | 8.438 Mbytes
   Step        Atoms         Temp           c_1            c_2           Press     
      5000         124   0.00019419048  0.00024126696  0.00031309062  0.0015836208 
      5100         124   5.241725       0.14230443     0.084309766    0.11222949   
      5200         124   5.2642517      0.17029222     0.09711751     0.11218019   
      5300         124   5.2777919      0.18711487     0.1031694      0.11250066   
      5400         124   5.2848791      0.19592009     0.10535436     0.11248274   
      5500         124   5.2950507      0.20855763     0.10994851     0.11343591   
      5600         124   5.3041095      0.21981245     0.11454068     0.1133945    
      5700         124   5.3104632      0.2277064      0.1180875      0.11432799   
      5800         124   5.3215398      0.24146836     0.12466168     0.11484551   
      5900         124   5.3283998      0.24999131     0.1287391      0.11546725   
      6000         124   5.3321636      0.25466756     0.13051832     0.11515099   
      6100         124   5.3345557      0.25763958     0.13171407     0.1154897    
      6200         124   5.3367433      0.26035754     0.13279725     0.11544669   
      6300         124   5.3395019      0.26378486     0.13420445     0.11516374   
      6400         124   5.3439366      0.26929459     0.13696206     0.11652747   
      6500         124   5.35113        0.27823186     0.14087131     0.11539692   
      6600         124   5.3551686      0.28324957     0.14315746     0.11583188   
      6700         124   5.3588826      0.28786385     0.14529906     0.11709354   
      6800         124   5.3635971      0.29372131     0.14771532     0.11643632   
      6900         124   5.3683547      0.2996322      0.15048478     0.1161893    
      7000         124   5.3707971      0.30266678     0.15196892     0.11646592   
      7100         124   5.3726385      0.30495451     0.15306469     0.11625217   
      7200         124   5.3744003      0.30714351     0.1541348      0.11686937   
      7300         124   5.3753054      0.30826801     0.15467201     0.11652641   
      7400         124   5.3757946      0.30887573     0.15508365     0.11719168   
      7500         124   5.3758028      0.30888597     0.15505055     0.12000677   
      7600         124   5.3786577      0.31243298     0.15672307     0.11722909   
      7700         124   5.3783037      0.31199314     0.15642477     0.11632325   
      7800         124   5.3796187      0.31362692     0.1572947      0.11713976   
      7900         124   5.3803155      0.31449269     0.15764005     0.11729058   
      8000         124   5.3825354      0.31725075     0.15884646     0.11762989   
      8100         124   5.3825657      0.31728832     0.1588842      0.11758412   
      8200         124   5.3832535      0.31814284     0.15927407     0.11730022   
      8300         124   5.3835483      0.31850913     0.15938562     0.1178199    
      8400         124   5.3845014      0.31969331     0.16005175     0.11728308   
      8500         124   5.3847484      0.32000021     0.16013165     0.11754726   
      8600         124   5.3863469      0.32198622     0.16098001     0.11783688   
      8700         124   5.3860321      0.32159511     0.16070948     0.11787101   
      8800         124   5.3865227      0.32220457     0.16101193     0.11742856   
      8900         124   5.386608       0.32231066     0.16107457     0.11751927   
      9000         124   5.3866344      0.32234342     0.16111142     0.11733366   
      9100         124   5.3870414      0.32284907     0.16138634     0.11732917   
      9200         124   5.3872929      0.32316151     0.16152699     0.11720705   
      9300         124   5.3871547      0.32298987     0.16146033     0.11742964   
      9400         124   5.3870097      0.32280972     0.16135009     0.11718262   
      9500         124   5.3871151      0.3229406      0.16142031     0.11740809   
      9600         124   5.3880467      0.3240981      0.16192517     0.11747626   
      9700         124   5.3882634      0.32436734     0.16207328     0.11748896   
      9800         124   5.3885751      0.32475452     0.162293       0.1175098    
      9900         124   5.388935       0.32520177     0.16248897     0.11781973   
     10000         124   5.3891679      0.32549112     0.16263293     0.11743863   
Loop time of 0.415747 on 1 procs for 5000 steps with 124 atoms

Performance: 5195465.111 tau/day, 12026.540 timesteps/s, 1.491 Matom-step/s
98.1% CPU use with 1 MPI tasks x no OpenMP threads

MPI task timing breakdown:
Section |  min time  |  avg time  |  max time  |%varavg| %total
---------------------------------------------------------------
Pair    | 0.075657   | 0.075657   | 0.075657   |   0.0 | 18.20
Neigh   | 0.020388   | 0.020388   | 0.020388   |   0.0 |  4.90
Comm    | 0.00050329 | 0.00050329 | 0.00050329 |   0.0 |  0.12
Output  | 0.30865    | 0.30865    | 0.30865    |   0.0 | 74.24
Modify  | 0.0089953  | 0.0089953  | 0.0089953  |   0.0 |  2.16
Other   |            | 0.001558   |            |       |  0.37

Nlocal:            124 ave         124 max         124 min
Histogram: 1 0 0 0 0 0 0 0 0 0
Nghost:              0 ave           0 max           0 min
Histogram: 1 0 0 0 0 0 0 0 0 0
Neighs:              0 ave           0 max           0 min
Histogram: 1 0 0 0 0 0 0 0 0 0

Total # of neighbors = 0
Ave neighs/atom = 0
Neighbor list builds = 315
Dangerous builds = 0

unfix           1
set             type 1 angmom 0.0 0.0 0.0
Setting atom values ...
  100 settings made for angmom
velocity        tri set 0.0 0.0 0.0
run             5000
Generated 0 of 1 mixed pair_coeff terms from geometric mixing rule
Per MPI rank memory allocation (min/avg/max) = 7.563 | 7.563 | 7.563 Mbytes
   Step        Atoms         Temp           c_1            c_2           Press     
     10000         124   0.26198066     0.32549112     0.16263293     0.0055911461 
     10100         124   0.074481727    0.092537903    0.05769404     0.0057995742 
     10200         124   0.055374095    0.068798118    0.050803609    0.0039966145 
     10300         124   0.046890231    0.058257559    0.045562379    0.0045743145 
     10400         124   0.038619299    0.047981553    0.039858993    0.0037329536 
     10500         124   0.03109186     0.038629281    0.033475837    0.005404066  
     10600         124   0.026610842    0.033061955    0.03074617     0.0049940987 
     10700         124   0.023393335    0.029064446    0.027629225    0.0044956047 
     10800         124   0.020188452    0.025082623    0.024277568    0.0027508375 
     10900         124   0.017401987    0.021620651    0.022968471    0.0030526263 
     11000         124   0.017010388    0.021134118    0.02312837     0.0029423416 
     11100         124   0.015586659    0.019365243    0.022124516    0.0048751832 
     11200         124   0.015018747    0.018659656    0.021425944    0.0050256257 
     11300         124   0.013616167    0.016917056    0.020531515    0.0025382988 
     11400         124   0.012960825    0.016102844    0.020233716    0.0028514371 
     11500         124   0.012535764    0.015574737    0.019749488    0.004004479  
     11600         124   0.012468691    0.015491404    0.020056281    0.0029836259 
     11700         124   0.010340151    0.012846854    0.016889426    0.002611651  
     11800         124   0.0094736661   0.011770312    0.016202659    0.0028183754 
     11900         124   0.0097558259   0.012120875    0.017186585    0.003204093  
     12000         124   0.0096163767   0.01194762     0.018177114    0.0030658747 
     12100         124   0.0091146678   0.011324284    0.017747849    0.0029559042 
     12200         124   0.0085146536   0.010578812    0.01795826     0.0020989622 
     12300         124   0.008795199    0.010927368    0.017709763    0.0025139035 
     12400         124   0.0090055902   0.011188764    0.017918106    0.0023682314 
     12500         124   0.0097315664   0.012090734    0.018823404    0.0020873256 
     12600         124   0.0091405944   0.011356496    0.017804633    0.0027702904 
     12700         124   0.0087960463   0.010928421    0.017802652    0.0026273577 
     12800         124   0.0080743005   0.010031707    0.017331563    0.0020791763 
     12900         124   0.0076898221   0.0095540215   0.016852716    0.0021221914 
     13000         124   0.0076710324   0.0095306767   0.016825465    0.0039685383 
     13100         124   0.0073591325   0.0091431646   0.015871642    0.0027994321 
     13200         124   0.0072640024   0.0090249727   0.016222349    0.0025128819 
     13300         124   0.0069183134   0.0085954802   0.016490498    0.0021502501 
     13400         124   0.0069316499   0.0086120499   0.017605557    0.0018524525 
     13500         124   0.0068915832   0.00856227     0.017409609    0.0033139311 
     13600         124   0.0062913693   0.0078165497   0.016392828    0.0024061992 
     13700         124   0.0068995705   0.0085721937   0.016786658    0.001969641  
     13800         124   0.0072699745   0.0090323926   0.017042011    0.0027635615 
     13900         124   0.0068420472   0.0085007253   0.016141459    0.0031252065 
     14000         124   0.0065644583   0.0081558421   0.016569085    0.002456998  
     14100         124   0.0061341628   0.0076212326   0.016662644    0.0026875721 
     14200         124   0.0060909188   0.0075675051   0.015930704    0.0030431779 
     14300         124   0.0063988636   0.0079501032   0.015828756    0.0025592835 
     14400         124   0.005689416    0.0070686683   0.015368259    0.0024185934 
     14500         124   0.006236795    0.0077487453   0.015706212    0.0022824924 
     14600         124   0.0066260155   0.0082323223   0.015933317    0.0025821009 
     14700         124   0.0062293355   0.0077394775   0.015731127    0.0024183438 
     14800         124   0.0058972158   0.0073268438   0.015509568    0.0019834714 
     14900         124   0.0056540749   0.0070247597   0.015502274    0.0023237962 
     15000         124   0.0052244823   0.0064910235   0.014736944    0.0020149012 
Loop time of 0.390059 on 1 procs for 5000 steps with 124 atoms

Performance: 5537628.750 tau/day, 12818.585 timesteps/s, 1.590 Matom-step/s
96.9% CPU use with 1 MPI tasks x no OpenMP threads

MPI task timing breakdown:
Section |  min time  |  avg time  |  max time  |%varavg| %total
---------------------------------------------------------------
Pair    | 0.061332   | 0.061332   | 0.061332   |   0.0 | 15.72
Neigh   | 0.0066467  | 0.0066467  | 0.0066467  |   0.0 |  1.70
Comm    | 0.00038941 | 0.00038941 | 0.00038941 |   0.0 |  0.10
Output  | 0.31536    | 0.31536    | 0.31536    |   0.0 | 80.85
Modify  | 0.0049581  | 0.0049581  | 0.0049581  |   0.0 |  1.27
Other   |            | 0.001377   |            |       |  0.35

Nlocal:            124 ave         124 max         124 min
Histogram: 1 0 0 0 0 0 0 0 0 0
Nghost:              0 ave           0 max           0 min
Histogram: 1 0 0 0 0 0 0 0 0 0
Neighs:              0 ave           0 max           0 min
Histogram: 1 0 0 0 0 0 0 0 0 0

Total # of neighbors = 0
Ave neighs/atom = 0
Neighbor list builds = 99
Dangerous builds = 0

fix             1 tri move rotate 0 0 0 1 1 1 25
run	        5000
Generated 0 of 1 mixed pair_coeff terms from geometric mixing rule
Per MPI rank memory allocation (min/avg/max) = 8.438 | 8.438 | 8.438 Mbytes
   Step        Atoms         Temp           c_1            c_2           Press     
     15000         124   0.0052244823   0.0064910235   0.014736944    0.002027817  
     15100         124   5.2591096      0.16390347     0.10097318     0.12343593   
     15200         124   5.3142316      0.23238836     0.13250683     0.11589879   
     15300         124   5.3197373      0.23922878     0.13533309     0.1229824    
     15400         124   5.3433084      0.26851411     0.14909465     0.11413727   
     15500         124   5.3597989      0.28900239     0.1554805      0.11750639   
     15600         124   5.3732393      0.30570096     0.16312751     0.12186127   
     15700         124   5.3855061      0.32094152     0.16768264     0.12462102   
     15800         124   5.3941725      0.33170888     0.17231668     0.12143627   
     15900         124   5.4009664      0.34014985     0.17546962     0.12765975   
     16000         124   5.414758       0.3572848      0.18266756     0.12653599   
     16100         124   5.4175427      0.36074458     0.18432923     0.12774876   
     16200         124   5.4140092      0.35635451     0.18191261     0.13268443   
     16300         124   5.4017269      0.34109469     0.17372827     0.1307221    
     16400         124   5.4017349      0.34110458     0.17298641     0.12625563   
     16500         124   5.4176382      0.36086328     0.1829199      0.13493836   
     16600         124   5.4175635      0.36077041     0.1829868      0.12403781   
     16700         124   5.4214857      0.36564356     0.18548453     0.12740232   
     16800         124   5.4051413      0.34533679     0.1761884      0.12649075   
     16900         124   5.3907663      0.32747702     0.16871425     0.12243088   
     17000         124   5.4230599      0.36759934     0.18961103     0.12160116   
     17100         124   5.4114147      0.35313105     0.18320073     0.12009866   
     17200         124   5.4079998      0.34888833     0.182884       0.11676493   
     17300         124   5.4540074      0.40604927     0.21401186     0.12104014   
     17400         124   5.5303165      0.50085758     0.26286623     0.1191549    
     17500         124   5.5799815      0.56256257     0.30155566     0.11936249   
     17600         123   5.6095354      0.548156       0.29969295     0.11836381   
     17700         123   5.6162622      0.55653017     0.30689847     0.12651704   
     17800         123   5.5946219      0.52959016     0.29189633     0.1270846    
     17900         123   5.6425211      0.58921979     0.32434701     0.12601893   
     18000         123   5.5850993      0.51773555     0.29149119     0.11855274   
     18100         123   5.5530995      0.47789905     0.27297395     0.12252876   
     18200         123   5.5744881      0.5045257      0.28929391     0.12580084   
     18300         123   5.5264747      0.44475381     0.26170733     0.12122144   
     18400         123   5.5090751      0.4230932      0.24726654     0.11802832   
     18500         123   5.4509977      0.35079266     0.21099264     0.11612467   
     18600         123   5.4202769      0.3125485      0.19482059     0.11897009   
     18700         123   5.4162186      0.30749631     0.19469653     0.12258369   
     18800         123   5.4370191      0.33339082     0.21014503     0.12166645   
     18900         123   5.4341683      0.32984186     0.2060126      0.11734766   
     19000         123   5.4455201      0.34397369     0.21089269     0.1309388    
     19100         121   5.5328154      0.34681054     0.21343091     0.11975564   
     19200         121   5.5203006      0.33116707     0.20004465     0.12011697   
     19300         120   5.5582048      0.32402462     0.19172463     0.12731511   
     19400         120   5.5618757      0.32862285     0.19220321     0.13103823   
     19500         120   5.5815117      0.35321951     0.20143386     0.12608573   
     19600         120   5.5618845      0.32863386     0.18492513     0.12107732   
     19700         120   5.5611838      0.32775616     0.18008348     0.12358608   
     19800         120   5.5537958      0.31850174     0.17451709     0.11885715   
     19900         120   5.5711779      0.34027514     0.18424588     0.11773742   
     20000         120   5.5693282      0.33795813     0.1832136      0.11851597   
Loop time of 0.42962 on 1 procs for 5000 steps with 120 atoms

Performance: 5027701.062 tau/day, 11638.197 timesteps/s, 1.397 Matom-step/s
96.3% CPU use with 1 MPI tasks x no OpenMP threads

MPI task timing breakdown:
Section |  min time  |  avg time  |  max time  |%varavg| %total
---------------------------------------------------------------
Pair    | 0.065684   | 0.065684   | 0.065684   |   0.0 | 15.29
Neigh   | 0.030423   | 0.030423   | 0.030423   |   0.0 |  7.08
Comm    | 0.0005339  | 0.0005339  | 0.0005339  |   0.0 |  0.12
Output  | 0.32273    | 0.32273    | 0.32273    |   0.0 | 75.12
Modify  | 0.0087715  | 0.0087715  | 0.0087715  |   0.0 |  2.04
Other   |            | 0.001478   |            |       |  0.34

Nlocal:            120 ave         120 max         120 min
Histogram: 1 0 0 0 0 0 0 0 0 0
Nghost:              0 ave           0 max           0 min
Histogram: 1 0 0 0 0 0 0 0 0 0
Neighs:              0 ave           0 max           0 min
Histogram: 1 0 0 0 0 0 0 0 0 0

Total # of neighbors = 0
Ave neighs/atom = 0
Neighbor list builds = 433
Dangerous builds = 0

unfix           1
set             type 1 angmom 0.0 0.0 0.0
Setting atom values ...
  96 settings made for angmom
velocity        tri set 0.0 0.0 0.0
run             5000
Generated 0 of 1 mixed pair_coeff terms from geometric mixing rule
Per MPI rank memory allocation (min/avg/max) = 7.563 | 7.563 | 7.563 Mbytes
   Step        Atoms         Temp           c_1            c_2           Press     
     20000         120   0.26979851     0.33795813     0.1832136     -0.007144497  
     20100         120   0.076935724    0.096372118    0.065021814    0.014779222  
     20200         120   0.068189363    0.08541615     0.058686501    0.0072051902 
     20300         120   0.072858793    0.091265225    0.059741747    0.0073008259 
     20400         120   0.064096397    0.080289171    0.054774581    0.013885876  
     20500         120   0.056290534    0.0705113      0.04961518     0.0011947455 
     20600         120   0.037451936    0.046913478    0.035446097    0.0046019241 
     20700         120   0.037362255    0.04680114     0.035577307    0.0068457433 
     20800         120   0.026254631    0.03288738     0.029046591    0.0072400997 
     20900         120   0.019914756    0.024945852    0.024193195    0.0086344784 
     21000         120   0.019965109    0.025008927    0.02348028     0.008745631  
     21100         120   0.017890973    0.022410798    0.022094331    0.002355569  
     21200         120   0.018171204    0.022761824    0.021530758    0.0069269189 
     21300         120   0.016051273    0.020106332    0.019460189    0.0068448898 
     21400         120   0.015907324    0.019926016    0.017975049    0.008661722  
     21500         120   0.015802152    0.019794274    0.018060602    0.0025488481 
     21600         120   0.018428378    0.023083968    0.023151613    0.0061571836 
     21700         120   0.017193664    0.021537326    0.022957643    0.0070414228 
     21800         120   0.014270475    0.017875648    0.021240833   -0.0013442377 
     21900         120   0.013848094    0.01734656     0.020380261    0.0053796285 
     22000         120   0.012992089    0.016274301    0.021157393    0.0053721355 
     22100         120   0.014065446    0.017618822    0.020106722    0.0014345844 
     22200         120   0.010258737    0.012850418    0.016841221    0.01120688   
     22300         120   0.010211948    0.012791809    0.017093331    0.0078983762 
     22400         120   0.009548374    0.011960595    0.01734835     0.0038908434 
     22500         120   0.0085349512   0.010691149    0.016754781   -0.00014023944
     22600         120   0.0091912138   0.011513205    0.016019636    0.0045956054 
     22700         120   0.0087672845   0.010982177    0.016081508    0.0071534675 
     22800         120   0.0091053807   0.011405687    0.01691824     0.0038334511 
     22900         120   0.0090436037   0.011328304    0.018774987    0.0025693881 
     23000         120   0.0090306116   0.011312029    0.018062077    0.0044430084 
     23100         120   0.0077433932   0.0096996189   0.016375491    0.0064193124 
     23200         120   0.008478267    0.010620145    0.018103983   -0.00085927214
     23300         120   0.007964293    0.0099763249   0.017453711    0.002148413  
     23400         120   0.009046906    0.01133244     0.01770639     0.020441698  
     23500         120   0.0091534944   0.011465956    0.017415455    0.002285878  
     23600         120   0.007748423    0.0097059193   0.015490839   -0.00020592716
     23700         120   0.0066912474   0.0083816677   0.014649077    0.006694411  
     23800         120   0.007247576    0.0090785426   0.01406457     0.0014410036 
     23900         120   0.0076543035   0.0095880222   0.015050261    0.0097604987 
     24000         120   0.0072047826   0.0090249382   0.01472033     0.0068222942 
     24100         120   0.007482661    0.0093730175   0.014902069    0.0075137142 
     24200         120   0.0068544845   0.0085861437   0.015181158    0.0040487925 
     24300         120   0.0068959558   0.008638092    0.01593833     0.0042688713 
     24400         120   0.0071391701   0.0089427499   0.014834245    0.010035527  
     24500         120   0.0073382922   0.0091921766   0.016818047    0.0041348411 
     24600         120   0.0071901432   0.0090066004   0.016444181    0.0046487693 
     24700         120   0.0066092287   0.0082789285   0.016239103    0.0073248869 
     24800         120   0.0055322913   0.0069299228   0.012402128   -0.0017910989 
     24900         120   0.0056839126   0.0071198484   0.013482139    0.0041464303 
     25000         120   0.0043729877   0.0054777425   0.012826668    0.0017027494 
Loop time of 0.390633 on 1 procs for 5000 steps with 120 atoms

Performance: 5529481.363 tau/day, 12799.725 timesteps/s, 1.536 Matom-step/s
95.9% CPU use with 1 MPI tasks x no OpenMP threads

MPI task timing breakdown:
Section |  min time  |  avg time  |  max time  |%varavg| %total
---------------------------------------------------------------
Pair    | 0.059297   | 0.059297   | 0.059297   |   0.0 | 15.18
Neigh   | 0.011612   | 0.011612   | 0.011612   |   0.0 |  2.97
Comm    | 0.00039143 | 0.00039143 | 0.00039143 |   0.0 |  0.10
Output  | 0.31326    | 0.31326    | 0.31326    |   0.0 | 80.19
Modify  | 0.0047198  | 0.0047198  | 0.0047198  |   0.0 |  1.21
Other   |            | 0.001351   |            |       |  0.35

Nlocal:            120 ave         120 max         120 min
Histogram: 1 0 0 0 0 0 0 0 0 0
Nghost:              0 ave           0 max           0 min
Histogram: 1 0 0 0 0 0 0 0 0 0
Neighs:              0 ave           0 max           0 min
Histogram: 1 0 0 0 0 0 0 0 0 0

Total # of neighbors = 0
Ave neighs/atom = 0
Neighbor list builds = 173
Dangerous builds = 0

Total wall time: 0:00:02
