LAMMPS (27 Jun 2024)
WARNING: Using I/O redirection is unreliable with parallel runs. Better to use the -in switch to read input files. (../lammps.cpp:551)
# pouring spheres into box made of triangles

units		lj
atom_style	tri
atom_modify     map array
boundary        f f f
dimension	3
comm_modify     vel yes

read_data	data.tri
Reading data file ...
  orthogonal box = (-7 -7 0) to (7 7 9)
  2 by 2 by 1 MPI processor grid
  reading atoms ...
  4 atoms
  4 triangles
  read_data CPU = 0.001 seconds

pair_style	hybrid gran/hooke/history 4000.0 NULL 100.0 NULL 0.5 1                 tri/gran/hooke 4000.0 NULL 100.0 NULL 0.5 1
pair_coeff	1 1 gran/hooke/history
pair_coeff	1 2 tri/gran/hooke
pair_coeff	2 2 none

group           sphere type 1
0 atoms in group sphere
group           tri type 2
4 atoms in group tri

fix             fsl all surface/local NULL

neighbor	0.3 bin
neigh_modify	delay 0 every 1 check yes

#displace_atoms  all rotate 0 0 0 0 0 1 45

fix             2 sphere nve/sphere
fix		3 sphere gravity 1.0 vector 0 0 -1
#fix             4 sphere viscous 0.2

region          slab block -2 2 -2 2 7 9 units box
fix             ins sphere pour 100 1 4767548 vol 0.4 10 	        diam one 1.0 region slab ignore
Particle insertion: 24 every 400 steps, 100 by step 1601

fix             wall sphere wall/gran hooke/history 4000.0 NULL 100.0 NULL 0.5 1                 zcylinder 7.0

timestep	0.005

compute         1 sphere temp
compute_modify  1 dynamic yes

compute         2 sphere temp/sphere
compute_modify  2 dynamic yes

thermo		100
thermo_style	custom step atoms temp c_1 c_2 press
thermo_modify   lost ignore
compute_modify  thermo_temp dynamic yes

dump		2 all image 100 tmp.image.*.ppm type type 		zoom 1.4 adiam 1.0 tri type 2 0.2
dump_modify	2 pad 5

run	        5000

CITE-CITE-CITE-CITE-CITE-CITE-CITE-CITE-CITE-CITE-CITE-CITE-CITE

Your simulation uses code contributions which should be cited:

- Type Label Framework: https://doi.org/10.1021/acs.jpcb.3c08419

@Article{Gissinger24,
 author = {Jacob R. Gissinger, Ilia Nikiforov, Yaser Afshar, Brendon Waters, Moon-ki Choi, Daniel S. Karls, Alexander Stukowski, Wonpil Im, Hendrik Heinz, Axel Kohlmeyer, and Ellad B. Tadmor},
 title = {Type Label Framework for Bonded Force Fields in LAMMPS},
 journal = {J. Phys. Chem. B},
 year =    2024,
 volume =  128,
 number =  13,
 pages =   {3282–-3297}
}

CITE-CITE-CITE-CITE-CITE-CITE-CITE-CITE-CITE-CITE-CITE-CITE-CITE

Generated 0 of 1 mixed pair_coeff terms from geometric mixing rule
Neighbor list info ...
  update: every = 1 steps, delay = 0 steps, check = yes
  max neighbors/atom: 2000, page size: 100000
  master list distance cutoff = 7.1245553
  ghost atom cutoff = 7.1245553
  binsize = 3.5622777, bins = 4 4 3
  3 neighbor lists, perpetual/occasional/extra = 3 0 0
  (1) pair gran/hooke/history, perpetual, skip trim from (3)
      attributes: half, newton on, size, history, cut 1.3, off2on
      pair build: skip/trim/size/off2on
      stencil: none
      bin: none
  (2) pair tri/gran/hooke, perpetual, skip from (3)
      attributes: half, newton on, size, onesided, off2on
      pair build: skip/size/off2on/oneside
      stencil: none
      bin: none
  (3) neighbor class addition, perpetual
      attributes: half, newton off, size, history
      pair build: half/size/bin/atomonly/newtoff
      stencil: full/bin/3d
      bin: standard
Per MPI rank memory allocation (min/avg/max) = 13.22 | 13.31 | 13.35 Mbytes
   Step        Atoms         Temp           c_1            c_2           Press     
         0           4   0              0              0              0            
       100          28   0.36763289     0.43156905     0.21119336     0.005627034  
       200          28   0.62433559     0.73291569     0.35866087     0.009556157  
       300          28   0.95860848     1.125323       0.55068998     0.014672579  
       400          28   1.3704516      1.608791       0.78728068     0.020976299  
WARNING: Fewer insertions than requested (../fix_pour.cpp:683)
       500          48   0.95089817     1.0393538      0.51608705     0.025335722  
       600          48   0.83949391     0.91758637     0.46172806     0.022515854  
       700          48   0.86005308     0.94005801     0.48253125     0.046343793  
       800          48   0.72552803     0.79301901     0.42419502     0.025365668  
       900          72   0.67712128     0.71754643     0.37612664     0.028045273  
      1000          72   0.6037807      0.63982731     0.33903623     0.041568668  
      1100          72   0.59554924     0.63110442     0.33510774     0.025787354  
      1200          72   0.59369488     0.62913935     0.33709563     0.037109269  
WARNING: Fewer insertions than requested (../fix_pour.cpp:683)
      1300          92   0.42565485     0.44522519     0.24749442     0.052168093  
      1400          92   0.4636093      0.48492467     0.26417441     0.025118983  
      1500          92   0.50428332     0.52746876     0.28211978     0.04086654   
      1600          92   0.4041216      0.42270191     0.24000159     0.026740854  
      1700         104   0.36993966     0.38488672     0.21498681     0.023950469  
      1800         104   0.29176495     0.30355343     0.17303905     0.036349423  
      1900         104   0.26818726     0.27902311     0.15811563     0.024948564  
      2000         104   0.22279005     0.23179167     0.13346813     0.017280723  
      2100         104   0.23896556     0.24862073     0.13823816     0.03009918   
      2200         104   0.20579383     0.21410874     0.12418163     0.039450328  
      2300         102   0.10971799     0.11424244     0.074956004    0.014807641  
      2400         102   0.045535097    0.047412833    0.037654864    0.0091413578 
      2500         102   0.041051596    0.042744445    0.033622408    0.007698999  
      2600         101   0.034630799    0.036073749    0.027794815    0.0085144929 
      2700         101   0.025424625    0.026483984    0.020798186    0.006898332  
      2800         101   0.024152242    0.025158586    0.019868593    0.0095314436 
      2900         101   0.019076346    0.019871194    0.015184613    0.0068694951 
      3000         101   0.01182021     0.012312718    0.010833281    0.0078407026 
      3100         101   0.012007088    0.012507383    0.010192679    0.0072865968 
      3200         101   0.0065271825   0.0067991484   0.006055543    0.0072082329 
      3300         101   0.0058659423   0.0061103565   0.005503418    0.0083020848 
      3400         101   0.0050225565   0.0052318297   0.0045274567   0.0086905727 
      3500         101   0.0047226341   0.0049194105   0.0041284178   0.0072114544 
      3600         101   0.0036076755   0.0037579954   0.0035078554   0.0081392066 
      3700         101   0.0026516472   0.0027621325   0.002544652    0.0076094455 
      3800         101   0.0021356055   0.0022245891   0.0020628496   0.0068722982 
      3900         101   0.0014543486   0.0015149465   0.0015027038   0.007022525  
      4000         101   0.0013476069   0.0014037572   0.0014390136   0.0071511001 
      4100         101   0.0010740847   0.0011188382   0.0011534394   0.0078442138 
      4200         101   0.00076777395  0.00079976453  0.00088763722  0.0074201133 
      4300         101   0.00064877768  0.00067581008  0.00079214623  0.0069999369 
      4400         101   0.00056602566  0.00058961006  0.00072970843  0.007172149  
      4500         101   0.00053185285  0.00055401339  0.00069002888  0.0069006923 
      4600         101   0.00050396242  0.00052496086  0.00064231206  0.0072831983 
      4700         101   0.0004939245   0.00051450468  0.00060406261  0.0070274519 
      4800         101   0.0005067638   0.00052787896  0.0006169584   0.0070252715 
      4900         101   0.00052450136  0.00054635559  0.00063954044  0.0072613866 
      5000         101   0.00050238069  0.00052331322  0.00063381206  0.0069923836 
Loop time of 0.392406 on 4 procs for 5000 steps with 101 atoms

Performance: 5504500.640 tau/day, 12741.900 timesteps/s, 1.287 Matom-step/s
92.0% CPU use with 4 MPI tasks x no OpenMP threads

MPI task timing breakdown:
Section |  min time  |  avg time  |  max time  |%varavg| %total
---------------------------------------------------------------
Pair    | 0.0088673  | 0.0099705  | 0.011728   |   1.1 |  2.54
Neigh   | 0.0031608  | 0.0036162  | 0.0040394  |   0.6 |  0.92
Comm    | 0.054781   | 0.057437   | 0.058874   |   0.7 | 14.64
Output  | 0.16517    | 0.21896    | 0.30823    |  12.1 | 55.80
Modify  | 0.0072728  | 0.012748   | 0.017229   |   3.4 |  3.25
Other   |            | 0.08968    |            |       | 22.85

Nlocal:          25.25 ave          28 max          22 min
Histogram: 1 0 0 1 0 0 0 0 1 1
Nghost:          75.75 ave          79 max          73 min
Histogram: 1 1 0 0 0 0 1 0 0 1
Neighs:              0 ave           0 max           0 min
Histogram: 4 0 0 0 0 0 0 0 0 0

Total # of neighbors = 0
Ave neighs/atom = 0
Neighbor list builds = 318
Dangerous builds = 0

fix             1 tri move rotate 0 0 0 0 0 1 25
run	        5000
Generated 0 of 1 mixed pair_coeff terms from geometric mixing rule
Per MPI rank memory allocation (min/avg/max) = 14.59 | 14.59 | 14.59 Mbytes
   Step        Atoms         Temp           c_1            c_2           Press     
      5000         101   0.00050238069  0.00052331322  0.00063381206  0.0070211922 
      5100         101   0.51237625     0.028401515    0.030266651    0.047542004  
      5200         100   0.53673032     0.04868655     0.049607418    0.055178994  
      5300          98   0.55292145     0.055078502    0.054320412    0.065743408  
      5400          96   0.56573073     0.057509231    0.056214468    0.04620782   
      5500          96   0.56811314     0.059996355    0.057130583    0.041366241  
      5600          92   0.58870851     0.058176956    0.055483365    0.040151041  
      5700          91   0.59838575     0.062135324    0.056268619    0.037139977  
      5800          89   0.61367863     0.065388569    0.057599642    0.035611958  
      5900          88   0.62085434     0.066304196    0.057559466    0.034950213  
      6000          87   0.62587378     0.064805675    0.056790087    0.036237838  
      6100          85   0.63938829     0.064969208    0.056078027    0.03552132   
      6200          83   0.65494135     0.066591169    0.056101931    0.034630474  
      6300          81   0.66937986     0.066306701    0.054800504    0.034254483  
      6400          81   0.67013145     0.067097853    0.055854961    0.034280111  
      6500          80   0.6790132      0.068412844    0.056881014    0.034168381  
      6600          79   0.68653549     0.06809039     0.056811154    0.033908702  
      6700          77   0.70162795     0.066842288    0.0557967      0.033646478  
      6800          75   0.71971093     0.067821847    0.056078774    0.033676107  
      6900          74   0.72884997     0.068043023    0.055750401    0.034214913  
      7000          73   0.741055       0.071248239    0.056787992    0.03344658   
      7100          72   0.74990496     0.070629438    0.056007771    0.034272951  
      7200          72   0.75147603     0.072294312    0.056870005    0.038376687  
      7300          72   0.75152274     0.072343811    0.056800621    0.036036623  
      7400          71   0.75947474     0.07048716     0.055972299    0.033629299  
      7500          71   0.75927782     0.070278301    0.056900836    0.035271538  
      7600          70   0.76561822     0.066408884    0.05617217     0.034045712  
      7700          69   0.77597683     0.06648976     0.056700483    0.033062367  
      7800          68   0.78867052     0.0687277      0.057387071    0.033095475  
      7900          67   0.80092333     0.070159036    0.05640023     0.033074777  
      8000          67   0.80387029     0.073296119    0.058852783    0.033191582  
      8100          65   0.82162062     0.06787734     0.055167603    0.033911489  
      8200          65   0.82293648     0.069280915    0.056928499    0.033131095  
      8300          65   0.82622622     0.072789973    0.059906755    0.033023193  
      8400          64   0.83807443     0.072671352    0.059696501    0.032696187  
      8500          61   0.87561225     0.071886699    0.058404764    0.032601058  
      8600          60   0.89224473     0.075115625    0.060760389    0.032549248  
      8700          59   0.90437315     0.07301043     0.059680393    0.032331418  
      8800          58   0.91714907     0.071064475    0.058706043    0.032560687  
      8900          57   0.92841364     0.066924696    0.055655891    0.031963982  
      9000          57   0.92657837     0.06494825     0.054846157    0.033987254  
      9100          56   0.9393931      0.06187335     0.053192019    0.031830438  
      9200          56   0.93662367     0.058886707    0.052423801    0.031638974  
      9300          54   0.96949771     0.058618351    0.052230775    0.031585169  
      9400          53   0.98617614     0.057709997    0.0521297      0.031462885  
      9500          51   1.0212882      0.055507166    0.050820997    0.032864583  
      9600          51   1.0207295      0.054899953    0.051106966    0.031197632  
      9700          50   1.038825       0.053141062    0.049809936    0.031128803  
      9800          49   1.0578379      0.051480469    0.049706571    0.030966982  
      9900          48   1.0765858      0.048568721    0.048413084    0.03077346   
     10000          47   1.0969026      0.046343845    0.048238812    0.03067878   
Loop time of 0.339694 on 4 procs for 5000 steps with 47 atoms

Performance: 6358664.007 tau/day, 14719.130 timesteps/s, 691.799 katom-step/s
91.3% CPU use with 4 MPI tasks x no OpenMP threads

MPI task timing breakdown:
Section |  min time  |  avg time  |  max time  |%varavg| %total
---------------------------------------------------------------
Pair    | 0.0082697  | 0.0094229  | 0.010636   |   0.9 |  2.77
Neigh   | 0.0019222  | 0.0021332  | 0.0024003  |   0.4 |  0.63
Comm    | 0.046669   | 0.047767   | 0.048681   |   0.4 | 14.06
Output  | 0.15506    | 0.20052    | 0.26834    |  10.0 | 59.03
Modify  | 0.005961   | 0.0062645  | 0.0066545  |   0.3 |  1.84
Other   |            | 0.07358    |            |       | 21.66

Nlocal:          11.75 ave          16 max           4 min
Histogram: 1 0 0 0 0 0 0 1 1 1
Nghost:          35.25 ave          43 max          31 min
Histogram: 1 1 1 0 0 0 0 0 0 1
Neighs:              0 ave           0 max           0 min
Histogram: 4 0 0 0 0 0 0 0 0 0

Total # of neighbors = 0
Ave neighs/atom = 0
Neighbor list builds = 202
Dangerous builds = 0

unfix           1
set             type 1 angmom 0.0 0.0 0.0
Setting atom values ...
  43 settings made for angmom
velocity        tri set 0.0 0.0 0.0
run             5000
Generated 0 of 1 mixed pair_coeff terms from geometric mixing rule
Per MPI rank memory allocation (min/avg/max) = 13.72 | 13.72 | 13.72 Mbytes
   Step        Atoms         Temp           c_1            c_2           Press     
     10000          47   0.042313945    0.046343845    0.048238812    0.0031829588 
     10100          47   0.015301196    0.016758453    0.01709909     0.0049007033 
     10200          47   0.013907369    0.015231881    0.017012208    0.0058822354 
     10300          47   0.013076355    0.014321722    0.016878308    0.0063771178 
     10400          47   0.013069713    0.014314447    0.017129868    0.0060544053 
     10500          47   0.013549117    0.014839509    0.017316811    0.005038037  
     10600          47   0.013439802    0.014719784    0.016885021    0.0042156468 
     10700          47   0.011220771    0.012289416    0.015233623    0.0036441984 
     10800          47   0.0099814505   0.010932065    0.014522881    0.0034799639 
     10900          47   0.0096058179   0.010520658    0.014440913    0.0032337466 
     11000          47   0.0083387227   0.0091328868   0.013671791    0.003109424  
     11100          47   0.0093896494   0.010283902    0.013648072    0.0026934542 
     11200          46   0.0080569563   0.0088430008   0.013494558    0.0033227229 
     11300          46   0.0079433758   0.0087183393   0.013255582    0.0025017595 
     11400          46   0.0082131053   0.0090143839   0.013432928    0.0025609831 
     11500          46   0.0086708201   0.0095167538   0.0140237      0.0048787265 
     11600          46   0.0068122941   0.0074769082   0.011927673    0.0064488339 
     11700          46   0.0075227623   0.0082566903   0.012110115    0.0042416942 
     11800          45   0.0072330348   0.0079563383   0.012267136    0.0034048479 
     11900          44   0.0072351925   0.0079772635   0.012364777    0.0025564778 
     12000          44   0.0069667862   0.0076813283   0.012063595    0.0026245318 
     12100          44   0.0070363862   0.0077580669   0.01235331     0.0040962445 
     12200          44   0.0070332478   0.0077546066   0.012391507    0.0040855196 
     12300          43   0.006888974    0.0076141292   0.01250944     0.0032413632 
     12400          43   0.0069726667   0.0077066316   0.012649713    0.0053382533 
     12500          43   0.0084380379   0.0093262524   0.013612524    0.0040338939 
     12600          41   0.0068380013   0.0075977792   0.012812732    0.0032899814 
     12700          41   0.0073912915   0.0082125461   0.013194281    0.0046187658 
     12800          41   0.0081089876   0.0090099862   0.014216855    0.0035891381 
     12900          40   0.0079216998   0.0088270369   0.014373218    0.0037144356 
     13000          40   0.0066515495   0.0074117266   0.014238377    0.003842598  
     13100          39   0.0065633538   0.007335513    0.014863135    0.0038943632 
     13200          39   0.0066950581   0.0074827119   0.015448367    0.004147601  
     13300          38   0.0067769957   0.0075984497   0.016038254    0.004422378  
     13400          38   0.0075957494   0.0085164463   0.017271275    0.004346174  
     13500          38   0.0079577895   0.0089223701   0.018006278    0.0045246956 
     13600          37   0.0057787234   0.0065010639   0.017799567    0.0047590682 
     13700          37   0.0060842787   0.0068448136   0.017273992    0.0049302253 
     13800          36   0.0054766062   0.0061832651   0.017043555    0.0052192413 
     13900          36   0.0054552953   0.0061592043   0.01759785     0.0055798708 
     14000          36   0.0054767411   0.0061834173   0.01795293     0.0072478689 
     14100          36   0.0057198764   0.0064579249   0.019177836    0.0065582726 
     14200          36   0.0063731636   0.0071955072   0.020493009    0.007028962  
     14300          36   0.0082497676   0.0093142538   0.022414624    0.0076449222 
     14400          36   0.0054945561   0.006203531    0.021312077    0.0095624124 
     14500          36   0.00573652     0.0064767161   0.021201397    0.011575878  
     14600          36   0.0064174036   0.0072454556   0.022562059    0.01404045   
     14700          35   0.0064045224   0.0072584588   0.023705187    0.011526214  
     14800          35   0.0064474362   0.0073070944   0.024537942    0.013286468  
     14900          35   0.007220356    0.0081830702   0.025671819    0.015672233  
     15000          34   0.0063783086   0.0072580753   0.019282966    0.0091892427 
Loop time of 0.288741 on 4 procs for 5000 steps with 34 atoms

Performance: 7480745.885 tau/day, 17316.541 timesteps/s, 588.762 katom-step/s
94.8% CPU use with 4 MPI tasks x no OpenMP threads

MPI task timing breakdown:
Section |  min time  |  avg time  |  max time  |%varavg| %total
---------------------------------------------------------------
Pair    | 0.0024909  | 0.0048816  | 0.0063741  |   2.2 |  1.69
Neigh   | 0.00027783 | 0.00047397 | 0.00057846 |   0.0 |  0.16
Comm    | 0.029395   | 0.031811   | 0.033792   |   0.9 | 11.02
Output  | 0.14606    | 0.18368    | 0.24324    |   9.1 | 63.61
Modify  | 0.0016781  | 0.0030068  | 0.0034538  |   1.4 |  1.04
Other   |            | 0.06489    |            |       | 22.47

Nlocal:            8.5 ave          13 max           4 min
Histogram: 1 0 1 0 0 0 0 1 0 1
Nghost:           25.5 ave          30 max          21 min
Histogram: 1 0 1 0 0 0 0 1 0 1
Neighs:              0 ave           0 max           0 min
Histogram: 4 0 0 0 0 0 0 0 0 0

Total # of neighbors = 0
Ave neighs/atom = 0
Neighbor list builds = 75
Dangerous builds = 0
Total wall time: 0:00:01
