LAMMPS (27 Jun 2024)
# pouring spheres into box made of line segments

units		lj
atom_style	sphere
#atom_modify     map array
boundary        f f p
dimension	2
comm_modify     vel yes

region		box block -15 15 -15 15 -0.5 0.5 units box
create_box	2 box
Created orthogonal box = (-15 -15 -0.5) to (15 15 0.5)
  1 by 1 by 1 MPI processor grid

pair_style	gran/hooke/history 4000.0 NULL 100.0 NULL 0.5 1
pair_coeff	* *

neighbor	0.3 bin
neigh_modify	delay 0 every 1 check yes

#displace_atoms  all rotate 0 0 0 0 0 1 90

molecule        lines surf.line
Read molecule template lines:
LAMMPS molecule file for line box
  1 molecules
  0 fragments
  0 atoms with max type 0
  0 bonds with max type 0
  0 angles with max type 0
  0 dihedrals with max type 0
  0 impropers with max type 0
  9 lines with 11 points

fix             20 all surface/global lines hooke                 4000.0 NULL 100.0 NULL 0.5 1
#fix             20 all surface/global lines hooke/history #                4000.0 NULL 100.0 NULL 0.5 1

# rotate the box

fix_modify      20 move rotate 0 0 0 0 0 1 25

fix             2 all nve/sphere
fix		3 all gravity 1.0 vector 0 -1 0
#fix             4 all viscous 0.2

region          slab block -3 3 -2 2 -0.5 0.5 units box
fix             ins all pour 100 1 4767548 vol 0.4 10 	        diam one 1.0 region slab
Particle insertion: 12 every 566 steps, 100 by step 4529

fix		10 all enforce2d

timestep	0.005

compute         1 all temp
compute_modify  1 dynamic yes

compute         2 all temp/sphere
compute_modify  2 dynamic yes

thermo		100
thermo_style	custom step atoms temp c_1 c_2 press
thermo_modify   lost ignore
compute_modify  thermo_temp dynamic yes

dump		2 all image 100 tmp.image.*.ppm type type 		zoom 1.6 adiam 1.0 fix 20 type 0.5 0.0
dump_modify	2 pad 5

run	        10000
Generated 0 of 1 mixed pair_coeff terms from geometric mixing rule
Neighbor list info ...
  update: every = 1 steps, delay = 0 steps, check = yes
  max neighbors/atom: 2000, page size: 100000
  master list distance cutoff = 1.3
  ghost atom cutoff = 1.3
  binsize = 0.65, bins = 47 47 2
  1 neighbor lists, perpetual/occasional/extra = 1 0 0
  (1) pair gran/hooke/history, perpetual
      attributes: half, newton on, size, history
      pair build: half/size/bin/atomonly/newton
      stencil: half/bin/2d
      bin: standard
Per MPI rank memory allocation (min/avg/max) = 5.757 | 5.757 | 5.757 Mbytes
   Step        Atoms         Temp           c_1            c_2           Press     
         0           0   0              0              0              0            
WARNING: Fewer insertions than requested (../fix_pour.cpp:683)
       100           7   1.0483784      1.0483784      0.66213376     0.0069891897 
       200           7   1.6167923      1.6167923      1.0211319      0.010778615  
       300           7   2.3379224      2.3379224      1.4765825      0.015586149  
       400           7   3.2117688      3.2117688      2.0284855      0.021411792  
       500           7   4.2383315      4.2383315      2.676841       0.028255543  
WARNING: Fewer insertions than requested (../fix_pour.cpp:683)
       600          18   2.1129055      2.1129055      1.3869354      0.039910437  
       700          18   2.6043792      2.6043792      1.7214254      0.063754392  
       800          18   2.8677827      2.8677827      1.9147069      0.054169228  
       900          18   3.1228891      3.1228891      2.1263001      0.059201028  
      1000          18   2.9398046      2.9398046      2.0739419      0.086537278  
      1100          18   2.5261889      2.5261889      1.8187978      0.12454808   
WARNING: Fewer insertions than requested (../fix_pour.cpp:683)
      1200          26   1.8985781      1.8985781      1.2816098      0.058565477  
      1300          26   1.7554241      1.7554241      1.2048448      0.050988843  
      1400          26   1.7859543      1.7859543      1.2306073      0.054608317  
      1500          26   2.013552       2.013552       1.3984072      0.058664544  
      1600          26   2.2374064      2.2374064      1.548047       0.063825039  
WARNING: Fewer insertions than requested (../fix_pour.cpp:683)
      1700          36   2.1026641      2.1026641      1.4164548      0.090879302  
      1800          36   2.221153       2.221153       1.4818344      0.14617071   
      1900          36   2.2344917      2.2344917      1.4850053      0.14491866   
      2000          36   2.162057       2.162057       1.4483877      0.10962255   
      2100          36   2.0490205      2.0490205      1.371803       0.10269632   
      2200          36   2.0245485      2.0245485      1.3453701      0.089476431  
      2300          48   1.6035919      1.6035919      1.0816887      0.1462717    
      2400          48   1.5727178      1.5727178      1.0558651      0.13036507   
      2500          48   1.6133884      1.6133884      1.0809644      0.11153652   
      2600          48   1.7297828      1.7297828      1.1672461      0.11279238   
      2700          48   1.6146016      1.6146016      1.1097429      0.11088332   
      2800          48   1.6951748      1.6951748      1.166744       0.096514604  
      2900          60   1.8416564      1.8416564      1.2540668      0.14915168   
      3000          60   2.1003861      2.1003861      1.4392908      0.14801032   
      3100          60   2.2828232      2.2828232      1.556736       0.15616608   
      3200          60   2.1222828      2.1222828      1.4349318      0.20907466   
      3300          60   1.9967087      1.9967087      1.3527156      0.33475251   
WARNING: Fewer insertions than requested (../fix_pour.cpp:683)
      3400          67   1.7019207      1.7019207      1.1573194      0.21087521   
      3500          67   1.7833499      1.7833499      1.2070513      0.1780625    
      3600          67   1.7577191      1.7577191      1.1996856      0.28041006   
      3700          67   1.7607556      1.7607556      1.2011069      0.15554549   
      3800          67   1.8033884      1.8033884      1.2321274      0.17400045   
      3900          67   1.6362949      1.6362949      1.1260761      0.17584879   
      4000          79   1.6044993      1.6044993      1.095751       0.15524341   
      4100          79   1.6440518      1.6440518      1.1367568      0.18985067   
      4200          79   1.4972418      1.4972418      1.0384732      0.18741202   
      4300          79   1.6170109      1.6170109      1.1016272      0.15651659   
      4400          79   1.8928159      1.8928159      1.2782002      0.18144602   
      4500          79   1.9936679      1.9936679      1.3475771      0.20164039   
WARNING: Fewer insertions than requested (../fix_pour.cpp:683)
      4600          90   1.8140729      1.8140729      1.24197        0.31384373   
      4700          90   2.0254763      2.0254763      1.384261       0.23627572   
      4800          90   1.9114718      1.9114718      1.2955738      0.24021925   
      4900          90   1.9776905      1.9776905      1.3575896      0.31285969   
      5000          90   1.970076       1.970076       1.3376466      0.25423539   
WARNING: Fewer insertions than requested (../fix_pour.cpp:683)
      5100          97   1.7820291      1.7820291      1.2227938      0.36718321   
      5200          97   1.7597485      1.7597485      1.2119527      0.27764658   
      5300          97   1.8501223      1.8501223      1.2722665      0.2360191    
      5400          97   1.6078405      1.6078405      1.0908201      0.32910986   
      5500          97   1.6928997      1.6928997      1.1522543      0.25113312   
      5600          97   1.7992766      1.7992766      1.2196839      0.34494996   
      5700         100   1.7649055      1.7649055      1.1911619      0.36582075   
      5800         100   1.9223565      1.9223565      1.2879921      0.28447504   
      5900         100   1.9444004      1.9444004      1.3064959      0.3754893    
      6000         100   1.9270809      1.9270809      1.3050329      0.37763816   
      6100         100   2.0085556      2.0085556      1.3508579      0.28069022   
      6200         100   1.8722285      1.8722285      1.270563       0.39005335   
      6300         100   1.8274778      1.8274778      1.2443066      0.28375094   
      6400         100   1.8520157      1.8520157      1.2633763      0.27216291   
      6500         100   1.787681       1.787681       1.2218869      0.25732165   
      6600         100   1.7226268      1.7226268      1.1638035      0.27501256   
      6700         100   1.5680255      1.5680255      1.0574623      0.20532645   
      6800         100   1.5457817      1.5457817      1.0457377      0.20982707   
      6900         100   1.5847886      1.5847886      1.0652338      0.26944126   
      7000         100   1.6088044      1.6088044      1.0792231      0.2316201    
      7100         100   1.7081624      1.7081624      1.1436866      0.33210417   
      7200         100   1.8245918      1.8245918      1.2219392      0.2337092    
      7300         100   1.9177685      1.9177685      1.2897955      0.30095141   
      7400         100   2.0540287      2.0540287      1.3801642      0.25456251   
      7500         100   2.2039085      2.2039085      1.4820949      0.28834324   
      7600         100   2.259514       2.259514       1.5282738      0.28491233   
      7700         100   2.5155549      2.5155549      1.7074936      0.3152297    
      7800         100   2.6870643      2.6870643      1.8312269      0.35440174   
      7900         100   2.4727714      2.4727714      1.703333       0.36829004   
      8000         100   2.6276081      2.6276081      1.7884458      0.32525675   
      8100          99   2.5924836      2.5924836      1.7709533      0.37086875   
      8200          99   2.7395551      2.7395551      1.8614194      0.38872251   
      8300          96   2.6217174      2.6217174      1.7750969      0.29386994   
      8400          94   2.3453973      2.3453973      1.5915715      0.25246126   
      8500          92   2.2746092      2.2746092      1.5522863      0.31979019   
      8600          91   2.0971668      2.0971668      1.4441167      0.23164239   
      8700          90   1.9520436      1.9520436      1.3407037      0.2267317    
      8800          88   1.6031029      1.6031029      1.1075422      0.22893706   
      8900          88   1.3714136      1.3714136      0.95329267     0.1449532    
      9000          88   1.3999833      1.3999833      0.96786566     0.17754279   
      9100          88   1.5308757      1.5308757      1.0447361      0.1886558    
      9200          88   1.5573847      1.5573847      1.0593305      0.16600982   
      9300          86   1.5666806      1.5666806      1.065567       0.18426275   
      9400          86   1.7748404      1.7748404      1.1960622      0.19566408   
      9500          86   1.8680619      1.8680619      1.2596475      0.2541481    
      9600          86   2.0507836      2.0507836      1.3819586      0.27903247   
      9700          86   2.1304474      2.1304474      1.4467793      0.36641932   
      9800          85   2.0665993      2.0665993      1.4185404      0.21957531   
      9900          85   2.2152558      2.2152558      1.5009933      0.2464896    
     10000          85   2.2236372      2.2236372      1.5032593      0.2873953    
Loop time of 0.330199 on 1 procs for 10000 steps with 85 atoms

Performance: 13083014.205 tau/day, 30284.755 timesteps/s, 2.574 Matom-step/s
91.3% CPU use with 1 MPI tasks x no OpenMP threads

MPI task timing breakdown:
Section |  min time  |  avg time  |  max time  |%varavg| %total
---------------------------------------------------------------
Pair    | 0.014535   | 0.014535   | 0.014535   |   0.0 |  4.40
Neigh   | 0.0077843  | 0.0077843  | 0.0077843  |   0.0 |  2.36
Comm    | 0.0007947  | 0.0007947  | 0.0007947  |   0.0 |  0.24
Output  | 0.27492    | 0.27492    | 0.27492    |   0.0 | 83.26
Modify  | 0.029972   | 0.029972   | 0.029972   |   0.0 |  9.08
Other   |            | 0.002194   |            |       |  0.66

Nlocal:             85 ave          85 max          85 min
Histogram: 1 0 0 0 0 0 0 0 0 0
Nghost:              0 ave           0 max           0 min
Histogram: 1 0 0 0 0 0 0 0 0 0
Neighs:            125 ave         125 max         125 min
Histogram: 1 0 0 0 0 0 0 0 0 0

Total # of neighbors = 125
Ave neighs/atom = 1.4705882
Neighbor list builds = 1465
Dangerous builds = 0
Total wall time: 0:00:00
