LAMMPS (27 Jun 2024)
# pouring spheres into box made of triangles

units		lj
atom_style	tri
atom_modify     map array
boundary        f f f
dimension	3
comm_modify     vel yes

read_data	data.tri
Reading data file ...
  orthogonal box = (-7 -7 0) to (7 7 9)
  1 by 1 by 1 MPI processor grid
  reading atoms ...
  4 atoms
  4 triangles
  read_data CPU = 0.001 seconds

pair_style	hybrid gran/hooke/history 4000.0 NULL 100.0 NULL 0.5 1                 tri/gran/hooke 4000.0 NULL 100.0 NULL 0.5 1
pair_coeff	1 1 gran/hooke/history
pair_coeff	1 2 tri/gran/hooke
pair_coeff	2 2 none

group           sphere type 1
0 atoms in group sphere
group           tri type 2
4 atoms in group tri

fix             fsl all surface/local NULL
  matched 0 tri edge pairs in fix surface/local
  matched 0 tri corners in fix surface/local

neighbor	0.3 bin
neigh_modify	delay 0 every 1 check yes

#displace_atoms  all rotate 0 0 0 0 0 1 45

fix             2 sphere nve/sphere
fix		3 sphere gravity 1.0 vector 0 0 -1
#fix             4 sphere viscous 0.2

region          slab block -2 2 -2 2 7 9 units box
fix             ins sphere pour 100 1 4767548 vol 0.4 10 	        diam one 1.0 region slab ignore
Particle insertion: 24 every 400 steps, 100 by step 1601

fix             wall sphere wall/gran hooke/history 4000.0 NULL 100.0 NULL 0.5 1                 zcylinder 7.0

timestep	0.005

compute         1 sphere temp
compute_modify  1 dynamic yes

compute         2 sphere temp/sphere
compute_modify  2 dynamic yes

thermo		100
thermo_style	custom step atoms temp c_1 c_2 press
thermo_modify   lost ignore
compute_modify  thermo_temp dynamic yes

dump		2 all image 100 tmp.image.*.ppm type type 		zoom 1.4 adiam 1.0 tri type 2 0.2
dump_modify	2 pad 5

run	        5000

CITE-CITE-CITE-CITE-CITE-CITE-CITE-CITE-CITE-CITE-CITE-CITE-CITE

Your simulation uses code contributions which should be cited:

- Type Label Framework: https://doi.org/10.1021/acs.jpcb.3c08419

@Article{Gissinger24,
 author = {Jacob R. Gissinger, Ilia Nikiforov, Yaser Afshar, Brendon Waters, Moon-ki Choi, Daniel S. Karls, Alexander Stukowski, Wonpil Im, Hendrik Heinz, Axel Kohlmeyer, and Ellad B. Tadmor},
 title = {Type Label Framework for Bonded Force Fields in LAMMPS},
 journal = {J. Phys. Chem. B},
 year =    2024,
 volume =  128,
 number =  13,
 pages =   {3282–-3297}
}

CITE-CITE-CITE-CITE-CITE-CITE-CITE-CITE-CITE-CITE-CITE-CITE-CITE

Generated 0 of 1 mixed pair_coeff terms from geometric mixing rule
Neighbor list info ...
  update: every = 1 steps, delay = 0 steps, check = yes
  max neighbors/atom: 2000, page size: 100000
  master list distance cutoff = 7.1245553
  ghost atom cutoff = 7.1245553
  binsize = 3.5622777, bins = 4 4 3
  3 neighbor lists, perpetual/occasional/extra = 3 0 0
  (1) pair gran/hooke/history, perpetual, skip trim from (3)
      attributes: half, newton on, size, history, cut 1.3, off2on
      pair build: skip/trim/size/off2on
      stencil: none
      bin: none
  (2) pair tri/gran/hooke, perpetual, skip from (3)
      attributes: half, newton on, size, onesided, off2on
      pair build: skip/size/off2on/oneside
      stencil: none
      bin: none
  (3) neighbor class addition, perpetual
      attributes: half, newton off, size, history
      pair build: half/size/bin/atomonly/newtoff
      stencil: full/bin/3d
      bin: standard
Per MPI rank memory allocation (min/avg/max) = 13.33 | 13.33 | 13.33 Mbytes
   Step        Atoms         Temp           c_1            c_2           Press     
         0           4   0              0              0              0            
       100          28   0.36763289     0.43156905     0.21119336     0.005627034  
       200          28   0.62433559     0.73291569     0.35866087     0.009556157  
       300          28   0.95860848     1.125323       0.55068998     0.014672579  
       400          28   1.3704516      1.608791       0.78728068     0.020976299  
WARNING: Fewer insertions than requested (../fix_pour.cpp:683)
       500          48   0.95528885     1.0441529      0.51724634     0.028033232  
       600          48   0.8488312      0.92779224     0.46737555     0.022863552  
       700          48   0.89796742     0.98149927     0.50468019     0.024218964  
       800          48   0.73376695     0.80202434     0.43565741     0.022367874  
       900          72   0.65098645     0.68985132     0.36585621     0.026743956  
      1000          72   0.59688518     0.63252012     0.3461773      0.035692956  
      1100          72   0.6218048      0.65892747     0.35759931     0.030495067  
      1200          72   0.5572826      0.59055321     0.32291278     0.02533037   
WARNING: Fewer insertions than requested (../fix_pour.cpp:683)
      1300          92   0.47037579     0.49200227     0.26594514     0.027985412  
      1400          92   0.46054336     0.48171777     0.25879365     0.024520268  
      1500          92   0.49903339     0.52197745     0.28036237     0.028925374  
      1600          92   0.39379971     0.41190545     0.22430899     0.031510203  
      1700         104   0.31363577     0.32630793     0.17785548     0.035992297  
      1800         104   0.24589104     0.25582604     0.14650525     0.02097862   
      1900         104   0.21193564     0.22049869     0.13007918     0.03867652   
      2000         104   0.1857308      0.19323508     0.11196333     0.016152815  
      2100         104   0.21954252     0.22841293     0.1266056      0.027217795  
      2200         104   0.15959559     0.1660439      0.10028818     0.030669179  
      2300         104   0.10375581     0.10794797     0.073145727    0.039872552  
      2400         103   0.057396139    0.059738839    0.041533881    0.012534237  
      2500         103   0.038792587    0.040375958    0.030285813    0.012208669  
      2600         103   0.03946167     0.04107235     0.029857484    0.0090011821 
      2700         103   0.027243694    0.028355682    0.021936348    0.0090691865 
      2800         103   0.017975954    0.018709666    0.015683483    0.0070940187 
      2900         102   0.014369777    0.014962345    0.013014172    0.012179757  
      3000         102   0.010688886    0.011129665    0.01008085     0.0085448603 
      3100         102   0.010854054    0.011301644    0.0097727135   0.0066838875 
      3200         102   0.0062553654   0.0065133186   0.0060067414   0.0082693367 
      3300         102   0.0061585329   0.006412493    0.0056541001   0.0081201106 
      3400         102   0.0050894862   0.0052993619   0.0049786508   0.0064558551 
      3500         102   0.0041238844   0.0042939415   0.0043461723   0.0070315439 
      3600         102   0.0037563891   0.0039112917   0.0041925231   0.0067759048 
      3700         102   0.0028476551   0.0029650842   0.0035827711   0.0063310465 
      3800         102   0.0024602045   0.0025616562   0.0032915361   0.0063932409 
      3900         102   0.0019905754   0.0020726609   0.0024588134   0.0074056944 
      4000         102   0.0018797809   0.0019572977   0.0020646021   0.0076100029 
      4100         102   0.0016000246   0.001666005    0.0017721156   0.0069658658 
      4200         102   0.0014353133   0.0014945015   0.0016409818   0.0068605759 
      4300         102   0.0013451899   0.0014006616   0.0015332007   0.0071602331 
      4400         102   0.0013059794   0.0013598342   0.0014913699   0.0067465888 
      4500         102   0.00084163343  0.00087633996  0.0011114675   0.0066657644 
      4600         102   0.0007589789   0.000790277    0.0010510707   0.0067572603 
      4700         102   0.00071771852  0.00074731516  0.0010057755   0.0066859823 
      4800         102   0.00062647389  0.00065230786  0.00091253043  0.0071841498 
      4900         102   0.00058459833  0.00060870548  0.00086098173  0.0066797995 
      5000         102   0.00054672888  0.0005692744   0.00083077352  0.0068315563 
Loop time of 0.253965 on 1 procs for 5000 steps with 102 atoms

Performance: 8505092.897 tau/day, 19687.715 timesteps/s, 2.008 Matom-step/s
89.2% CPU use with 1 MPI tasks x no OpenMP threads

MPI task timing breakdown:
Section |  min time  |  avg time  |  max time  |%varavg| %total
---------------------------------------------------------------
Pair    | 0.02847    | 0.02847    | 0.02847    |   0.0 | 11.21
Neigh   | 0.0089505  | 0.0089505  | 0.0089505  |   0.0 |  3.52
Comm    | 0.00043972 | 0.00043972 | 0.00043972 |   0.0 |  0.17
Output  | 0.20296    | 0.20296    | 0.20296    |   0.0 | 79.92
Modify  | 0.011961   | 0.011961   | 0.011961   |   0.0 |  4.71
Other   |            | 0.001187   |            |       |  0.47

Nlocal:            102 ave         102 max         102 min
Histogram: 1 0 0 0 0 0 0 0 0 0
Nghost:              0 ave           0 max           0 min
Histogram: 1 0 0 0 0 0 0 0 0 0
Neighs:              0 ave           0 max           0 min
Histogram: 1 0 0 0 0 0 0 0 0 0

Total # of neighbors = 0
Ave neighs/atom = 0
Neighbor list builds = 316
Dangerous builds = 0

fix             1 tri move rotate 0 0 0 0 0 1 25
run	        5000
Generated 0 of 1 mixed pair_coeff terms from geometric mixing rule
Per MPI rank memory allocation (min/avg/max) = 14.46 | 14.46 | 14.46 Mbytes
   Step        Atoms         Temp           c_1            c_2           Press     
      5000         102   0.00054672888  0.0005692744   0.00083077352  0.0067873702 
      5100         102   0.50566422     0.026402129    0.027251326    0.04886914   
      5200         102   0.52183159     0.043236198    0.047343425    0.058581311  
      5300         100   0.53947724     0.051549129    0.051904094    0.070200461  
      5400          98   0.55211208     0.054234324    0.052621447    0.05328992   
      5500          97   0.56053675     0.057613571    0.05452788     0.044237417  
      5600          94   0.57802683     0.058937252    0.054537212    0.04088157   
      5700          93   0.5870988      0.06252284     0.055919876    0.039748445  
      5800          92   0.598017       0.067913418    0.057718127    0.035892177  
      5900          89   0.62072491     0.072770389    0.059355872    0.035249693  
      6000          87   0.6371197      0.076600179    0.06082775     0.035639182  
      6100          85   0.65180132     0.078002887    0.059758748    0.035091613  
      6200          85   0.6557866      0.082187438    0.061473952    0.036060965  
      6300          81   0.68742884     0.085305631    0.061258973    0.034860674  
      6400          80   0.69356051     0.083736011    0.060327661    0.034796874  
      6500          79   0.70215067     0.084549628    0.060908403    0.034667806  
      6600          77   0.71891518     0.085089923    0.06022747     0.034483684  
      6700          76   0.72441594     0.081973467    0.058360987    0.034147495  
      6800          75   0.7347013      0.083668807    0.05893884     0.03453317   
      6900          74   0.74479423     0.084911578    0.059513414    0.035915629  
      7000          73   0.75498704     0.085999816    0.060692115    0.036456055  
      7100          72   0.76094485     0.08232843     0.059321258    0.034901446  
      7200          72   0.75965674     0.080963422    0.05949522     0.034538126  
      7300          72   0.75782251     0.079019685    0.058847032    0.035662306  
      7400          70   0.77886279     0.080468507    0.059780023    0.033515862  
      7500          70   0.77905326     0.080670702    0.061172395    0.033636156  
      7600          70   0.7770295      0.0785224      0.060951926    0.033700802  
      7700          66   0.81877032     0.077196573    0.059624605    0.034661369  
      7800          65   0.83191523     0.078858252    0.060920555    0.033116966  
      7900          65   0.83080939     0.07767869     0.061957743    0.033136995  
      8000          63   0.85853428     0.081345616    0.061530367    0.033431636  
      8100          62   0.87206365     0.082189528    0.062484454    0.032951199  
      8200          62   0.86779591     0.0776223      0.061499046    0.032724819  
      8300          60   0.89460937     0.077652242    0.061067797    0.032770452  
      8400          60   0.89249191     0.075380789    0.061455319    0.032597309  
      8500          59   0.90439759     0.073036684    0.059915458    0.033479729  
      8600          59   0.90403951     0.072652073    0.060124747    0.032452066  
      8700          59   0.90565612     0.074388433    0.061356882    0.032751901  
      8800          57   0.93412772     0.073078322    0.061341818    0.032246809  
      8900          57   0.93480945     0.073812492    0.062582228    0.032403731  
      9000          55   0.96237254     0.069140757    0.061105943    0.03313303   
      9100          54   0.97613479     0.065797232    0.059095364    0.032942679  
      9200          54   0.97874797     0.068623733    0.061270466    0.031706044  
      9300          51   1.0303085      0.065311864    0.05862259     0.032969379  
      9400          49   1.0701493      0.064911109    0.057143691    0.031220205  
      9500          48   1.0919593      0.065372249    0.058657962    0.031246882  
      9600          46   1.1330063      0.060346392    0.056474504    0.031026578  
      9700          45   1.1564336      0.059300013    0.055701868    0.030749962  
      9800          44   1.1792886      0.056367477    0.054949485    0.030646426  
      9900          42   1.231619       0.053656777    0.054137711    0.03038362   
     10000          41   1.2604872      0.053011369    0.054356603    0.030243955  
Loop time of 0.233157 on 1 procs for 5000 steps with 41 atoms

Performance: 9264145.135 tau/day, 21444.780 timesteps/s, 879.236 katom-step/s
95.3% CPU use with 1 MPI tasks x no OpenMP threads

MPI task timing breakdown:
Section |  min time  |  avg time  |  max time  |%varavg| %total
---------------------------------------------------------------
Pair    | 0.024379   | 0.024379   | 0.024379   |   0.0 | 10.46
Neigh   | 0.00481    | 0.00481    | 0.00481    |   0.0 |  2.06
Comm    | 0.00039578 | 0.00039578 | 0.00039578 |   0.0 |  0.17
Output  | 0.19017    | 0.19017    | 0.19017    |   0.0 | 81.56
Modify  | 0.012377   | 0.012377   | 0.012377   |   0.0 |  5.31
Other   |            | 0.001029   |            |       |  0.44

Nlocal:             41 ave          41 max          41 min
Histogram: 1 0 0 0 0 0 0 0 0 0
Nghost:              0 ave           0 max           0 min
Histogram: 1 0 0 0 0 0 0 0 0 0
Neighs:              0 ave           0 max           0 min
Histogram: 1 0 0 0 0 0 0 0 0 0

Total # of neighbors = 0
Ave neighs/atom = 0
Neighbor list builds = 190
Dangerous builds = 0

unfix           1
set             type 1 angmom 0.0 0.0 0.0
Setting atom values ...
  37 settings made for angmom
velocity        tri set 0.0 0.0 0.0
run             5000
Generated 0 of 1 mixed pair_coeff terms from geometric mixing rule
Per MPI rank memory allocation (min/avg/max) = 13.59 | 13.59 | 13.59 Mbytes
   Step        Atoms         Temp           c_1            c_2           Press     
     10000          41   0.047710232    0.053011369    0.054356603    0.0027565863 
     10100          41   0.020338883    0.022598759    0.022295632    0.0056124987 
     10200          41   0.019261498    0.021401665    0.021441019    0.0074934602 
     10300          41   0.01605939     0.017843766    0.01984939     0.0099699784 
     10400          41   0.015493703    0.017215225    0.019487263    0.010576619  
     10500          40   0.016852292    0.018778268    0.019839161    0.0057504545 
     10600          40   0.016439115    0.018317871    0.018962563    0.0045510451 
     10700          39   0.014118594    0.015779605    0.017995086    0.003555542  
     10800          39   0.014071075    0.015726495    0.018400489    0.0031532252 
     10900          39   0.013138859    0.014684607    0.017370336    0.0028628857 
     11000          39   0.01286785     0.014381715    0.017779489    0.0027322266 
     11100          39   0.011287637    0.012615594    0.017070801    0.0026715281 
     11200          39   0.011155885    0.012468342    0.017089687    0.0039366718 
     11300          39   0.011452638    0.012800007    0.018107477    0.0027219871 
     11400          39   0.011823381    0.013214367    0.018146114    0.002865619  
     11500          39   0.0099325057   0.011101036    0.016963801    0.0054180487 
     11600          39   0.0094346848   0.010544648    0.016903851    0.0038580466 
     11700          39   0.0096447902   0.010779471    0.017233529    0.003794262  
     11800          38   0.010380339    0.011638562    0.01817032     0.0051408604 
     11900          38   0.010843157    0.012157479    0.018787027    0.0046758246 
     12000          38   0.0099802131   0.011189936    0.018750972    0.0036762991 
     12100          38   0.0099546672   0.011161294    0.018815761    0.0047995868 
     12200          38   0.0096175662   0.010783332    0.019300649    0.0049229894 
     12300          38   0.0095576531   0.010716157    0.01603579     0.0051038426 
     12400          38   0.0084031803   0.0094217476   0.01510546     0.0039922516 
     12500          38   0.0088796852   0.0099560107   0.016061281    0.0033208089 
     12600          37   0.0082482624   0.0092792952   0.016393312    0.0028221785 
     12700          36   0.008163363    0.0092167002   0.016973047    0.0027478149 
     12800          36   0.0081330687   0.0091824969   0.017354343    0.0027304426 
     12900          36   0.008551979    0.0096554602   0.018388277    0.0043020438 
     13000          36   0.0083750165   0.0094556637   0.018988052    0.003201694  
     13100          35   0.0079069078   0.0089611621   0.01506032     0.0053910963 
     13200          34   0.0077907684   0.0088653571   0.014881881    0.0036359575 
     13300          34   0.0078781913   0.0089648383   0.015090336    0.0039474734 
     13400          34   0.0077593015   0.00882955     0.015283546    0.002375922  
     13500          33   0.0081711678   0.0093384775   0.016911691    0.0021718306 
     13600          32   0.0073512985   0.0084403797   0.016991247    0.0047905627 
     13700          32   0.0058682526   0.0067376234   0.012595472    0.0034488614 
     13800          32   0.0054795474   0.0062913322   0.012104378    0.002345104  
     13900          32   0.0056669293   0.0065064744   0.01231929     0.0021941235 
     14000          31   0.005941127    0.0068551465   0.012970426    0.0015326669 
     14100          31   0.0054729652   0.0063149599   0.013038334    0.0013665506 
     14200          31   0.0054707094   0.0063123571   0.013312627    0.0012554264 
     14300          31   0.0054531275   0.0062920702   0.013530106    0.0012554509 
     14400          31   0.006029646    0.0069572839   0.013841917    0.0012656672 
     14500          30   0.0061086574   0.0070860426   0.014423439    0.001386447  
     14600          30   0.0063101238   0.0073197436   0.01516745     0.0012178939 
     14700          30   0.0068299379   0.007922728    0.015798566    0.0012418962 
     14800          30   0.0061869741   0.00717689     0.015863293    0.0012881339 
     14900          30   0.0064647566   0.0074991176   0.017222529    0.0016425767 
     15000          30   0.0065360727   0.0075818443   0.018179424    0.0014969862 
Loop time of 0.181635 on 1 procs for 5000 steps with 30 atoms

Performance: 11892013.121 tau/day, 27527.808 timesteps/s, 825.834 katom-step/s
88.9% CPU use with 1 MPI tasks x no OpenMP threads

MPI task timing breakdown:
Section |  min time  |  avg time  |  max time  |%varavg| %total
---------------------------------------------------------------
Pair    | 0.01081    | 0.01081    | 0.01081    |   0.0 |  5.95
Neigh   | 0.00083743 | 0.00083743 | 0.00083743 |   0.0 |  0.46
Comm    | 0.00031053 | 0.00031053 | 0.00031053 |   0.0 |  0.17
Output  | 0.16346    | 0.16346    | 0.16346    |   0.0 | 89.99
Modify  | 0.0054876  | 0.0054876  | 0.0054876  |   0.0 |  3.02
Other   |            | 0.000729   |            |       |  0.40

Nlocal:             30 ave          30 max          30 min
Histogram: 1 0 0 0 0 0 0 0 0 0
Nghost:              0 ave           0 max           0 min
Histogram: 1 0 0 0 0 0 0 0 0 0
Neighs:              0 ave           0 max           0 min
Histogram: 1 0 0 0 0 0 0 0 0 0

Total # of neighbors = 0
Ave neighs/atom = 0
Neighbor list builds = 80
Dangerous builds = 0
Total wall time: 0:00:00
