LAMMPS (27 Jun 2024)
# pouring spheres into box made of triangles

units		lj
atom_style	tri
atom_modify     map array
boundary        f f f
dimension	3
comm_modify     vel yes

read_data	data.tri
Reading data file ...
  orthogonal box = (-7 -7 0) to (7 7 9)
  1 by 1 by 1 MPI processor grid
  reading atoms ...
  4 atoms
  4 triangles
  read_data CPU = 0.001 seconds

pair_style	hybrid gran/hooke/history 4000.0 NULL 100.0 NULL 0.5 1                 tri/gran/hooke 4000.0 NULL 100.0 NULL 0.5 1
pair_coeff	1 1 gran/hooke/history
pair_coeff	1 2 tri/gran/hooke
pair_coeff	2 2 none

group           sphere type 1
0 atoms in group sphere
group           tri type 2
4 atoms in group tri

fix             fsl all surface/local NULL

neighbor	0.3 bin
neigh_modify	delay 0 every 1 check yes

#displace_atoms  all rotate 0 0 0 0 0 1 45

fix             2 sphere nve/sphere
fix		3 sphere gravity 1.0 vector 0 0 -1
#fix             4 sphere viscous 0.2

region          slab block -2 2 -2 2 7 9 units box
fix             ins sphere pour 100 1 4767548 vol 0.4 10 	        diam one 1.0 region slab ignore
Particle insertion: 24 every 400 steps, 100 by step 1601

fix             wall sphere wall/gran hooke/history 4000.0 NULL 100.0 NULL 0.5 1                 zcylinder 7.0

timestep	0.005

compute         1 sphere temp
compute_modify  1 dynamic yes

compute         2 sphere temp/sphere
compute_modify  2 dynamic yes

thermo		100
thermo_style	custom step atoms temp c_1 c_2 press
thermo_modify   lost ignore
compute_modify  thermo_temp dynamic yes

dump		2 all image 100 tmp.image.*.ppm type type 		zoom 1.4 adiam 1.0 tri type 2 0.2
dump_modify	2 pad 5

run	        5000

CITE-CITE-CITE-CITE-CITE-CITE-CITE-CITE-CITE-CITE-CITE-CITE-CITE

Your simulation uses code contributions which should be cited:

- Type Label Framework: https://doi.org/10.1021/acs.jpcb.3c08419

@Article{Gissinger24,
 author = {Jacob R. Gissinger, Ilia Nikiforov, Yaser Afshar, Brendon Waters, Moon-ki Choi, Daniel S. Karls, Alexander Stukowski, Wonpil Im, Hendrik Heinz, Axel Kohlmeyer, and Ellad B. Tadmor},
 title = {Type Label Framework for Bonded Force Fields in LAMMPS},
 journal = {J. Phys. Chem. B},
 year =    2024,
 volume =  128,
 number =  13,
 pages =   {3282–-3297}
}

CITE-CITE-CITE-CITE-CITE-CITE-CITE-CITE-CITE-CITE-CITE-CITE-CITE

Generated 0 of 1 mixed pair_coeff terms from geometric mixing rule
Neighbor list info ...
  update: every = 1 steps, delay = 0 steps, check = yes
  max neighbors/atom: 2000, page size: 100000
  master list distance cutoff = 7.1245553
  ghost atom cutoff = 7.1245553
  binsize = 3.5622777, bins = 4 4 3
  3 neighbor lists, perpetual/occasional/extra = 3 0 0
  (1) pair gran/hooke/history, perpetual, skip trim from (3)
      attributes: half, newton on, size, history, cut 1.3, off2on
      pair build: skip/trim/size/off2on
      stencil: none
      bin: none
  (2) pair tri/gran/hooke, perpetual, skip from (3)
      attributes: half, newton on, size, onesided, off2on
      pair build: skip/size/off2on/oneside
      stencil: none
      bin: none
  (3) neighbor class addition, perpetual
      attributes: half, newton off, size, history
      pair build: half/size/bin/atomonly/newtoff
      stencil: full/bin/3d
      bin: standard
Per MPI rank memory allocation (min/avg/max) = 13.33 | 13.33 | 13.33 Mbytes
   Step        Atoms         Temp           c_1            c_2           Press     
         0           4   0              0              0              0            
       100          28   0.36763289     0.43156905     0.21119336     0.005627034  
       200          28   0.62433559     0.73291569     0.35866087     0.009556157  
       300          28   0.95860848     1.125323       0.55068998     0.014672579  
       400          28   1.3704516      1.608791       0.78728068     0.020976299  
WARNING: Fewer insertions than requested (../fix_pour.cpp:683)
       500          48   0.95075919     1.0392019      0.51601709     0.025332019  
       600          48   0.84031896     0.91848817     0.4623667      0.022636752  
       700          48   0.85874279     0.93862584     0.4826348      0.046371063  
       800          48   0.73132774     0.79935822     0.43136382     0.022138279  
       900          72   0.65995369     0.69935391     0.36547311     0.050914097  
      1000          72   0.62313984     0.66034222     0.35115498     0.033703652  
      1100          72   0.61206069     0.64860162     0.3482546      0.026726748  
      1200          72   0.55722289     0.59048993     0.31886384     0.043718461  
WARNING: Fewer insertions than requested (../fix_pour.cpp:683)
      1300          92   0.46095761     0.48215107     0.26148102     0.03655992   
      1400          92   0.47463128     0.49645341     0.26932173     0.026649699  
      1500          92   0.43876093     0.45893385     0.25112926     0.039053185  
      1600          92   0.39781564     0.41610602     0.2336458      0.038915755  
      1700         104   0.3314644      0.3448569      0.19379636     0.056687783  
      1800         104   0.28818581     0.29982968     0.17211551     0.024813484  
      1900         104   0.25183364     0.26200874     0.15328845     0.02192128   
      2000         104   0.23713983     0.24672124     0.14327078     0.042148673  
      2100         104   0.23506188     0.24455933     0.14029326     0.017721951  
      2200         104   0.15864009     0.16504979     0.10412746     0.029964397  
      2300         104   0.10670987     0.11102138     0.07871108     0.0071805097 
      2400         104   0.076639282    0.079735819    0.060947043    0.015389321  
      2500         103   0.055400086    0.057661314    0.044473443    0.015445498  
      2600         103   0.035893374    0.03735841     0.028760404    0.01067378   
      2700         102   0.03158966     0.032892327    0.023822829    0.0082275369 
      2800         102   0.024365874    0.025370652    0.019216631    0.011973307  
      2900         101   0.014440858    0.01504256     0.012197533    0.0072741624 
      3000         101   0.013021269    0.013563822    0.011242148    0.010498718  
      3100         101   0.010273872    0.010701951    0.0091143287   0.0072871705 
      3200         101   0.0070740359   0.0073687874   0.0067970148   0.0064989269 
      3300         101   0.0073212732   0.0076263262   0.0065171125   0.0098946739 
      3400         101   0.0047267512   0.0049236991   0.0044264772   0.007575603  
      3500         101   0.003264981    0.0034010219   0.0032263675   0.0064756429 
      3600         101   0.0019366725   0.0020173672   0.0020455688   0.0067365178 
      3700         101   0.0018126432   0.00188817     0.0019196352   0.0063300027 
      3800         101   0.0019330301   0.002013573    0.0019421727   0.0066930211 
      3900         101   0.0017022743   0.0017732024   0.0017692091   0.0063161884 
      4000         101   0.0011235173   0.0011703305   0.0011857636   0.0062516843 
      4100         101   0.0010738339   0.0011185769   0.0011489616   0.0061908407 
      4200         101   0.0010663665   0.0011107985   0.0011562642   0.0061205723 
      4300         101   0.0010325958   0.0010756206   0.001137752    0.0063715073 
      4400         101   0.00088714248  0.00092410675  0.0010581337   0.0071315304 
      4500         101   0.00072957163  0.00075997045  0.00089148584  0.0061822402 
      4600         101   0.00072916208  0.00075954383  0.00093229962  0.0073336189 
      4700         101   0.00049478944  0.00051540567  0.00062291356  0.0066293137 
      4800         101   0.00049162494  0.00051210931  0.00063696192  0.0062116978 
      4900         101   0.00041908773  0.00043654972  0.00059061447  0.0064909785 
      5000         101   0.00040336839  0.0004201754   0.00059603372  0.0062594394 
Loop time of 0.331047 on 1 procs for 5000 steps with 101 atoms

Performance: 6524755.135 tau/day, 15103.600 timesteps/s, 1.525 Matom-step/s
68.0% CPU use with 1 MPI tasks x no OpenMP threads

MPI task timing breakdown:
Section |  min time  |  avg time  |  max time  |%varavg| %total
---------------------------------------------------------------
Pair    | 0.02908    | 0.02908    | 0.02908    |   0.0 |  8.78
Neigh   | 0.0094722  | 0.0094722  | 0.0094722  |   0.0 |  2.86
Comm    | 0.00045139 | 0.00045139 | 0.00045139 |   0.0 |  0.14
Output  | 0.27825    | 0.27825    | 0.27825    |   0.0 | 84.05
Modify  | 0.012533   | 0.012533   | 0.012533   |   0.0 |  3.79
Other   |            | 0.001257   |            |       |  0.38

Nlocal:            101 ave         101 max         101 min
Histogram: 1 0 0 0 0 0 0 0 0 0
Nghost:              0 ave           0 max           0 min
Histogram: 1 0 0 0 0 0 0 0 0 0
Neighs:              0 ave           0 max           0 min
Histogram: 1 0 0 0 0 0 0 0 0 0

Total # of neighbors = 0
Ave neighs/atom = 0
Neighbor list builds = 316
Dangerous builds = 0

fix             1 tri move rotate 0 0 0 0 0 1 25
run	        5000
Generated 0 of 1 mixed pair_coeff terms from geometric mixing rule
Per MPI rank memory allocation (min/avg/max) = 14.46 | 14.46 | 14.46 Mbytes
   Step        Atoms         Temp           c_1            c_2           Press     
      5000         101   0.00040336839  0.0004201754   0.00059603372  0.0062799915 
      5100         101   0.50875292     0.024627213    0.027979777    0.043304086  
      5200         100   0.53008058     0.041756815    0.048966009    0.047686735  
      5300          98   0.54573932     0.047587469    0.050589616    0.054698345  
      5400          96   0.56298631     0.054644174    0.054027217    0.045493245  
      5500          95   0.57287609     0.059325259    0.055248236    0.043563479  
      5600          93   0.58423645     0.059530387    0.056366577    0.040145791  
      5700          91   0.59865852     0.062420779    0.056809158    0.037116377  
      5800          89   0.61220228     0.063841923    0.057610838    0.035162186  
      5900          87   0.62685381     0.06583351     0.056892184    0.034659058  
      6000          86   0.6383021      0.070920972    0.058088505    0.03486336   
      6100          84   0.65594494     0.075093047    0.058543375    0.034741127  
      6200          84   0.65759722     0.076828979    0.05964225     0.036265031  
      6300          83   0.66157421     0.073564176    0.055874563    0.040959156  
      6400          82   0.67106739     0.075914013    0.057132328    0.038400386  
      6500          81   0.68057943     0.07809572     0.058494303    0.034600654  
      6600          79   0.69621408     0.07829214     0.057976675    0.035058869  
      6700          78   0.70377647     0.077804224    0.058088397    0.038570546  
      6800          77   0.71354031     0.07941644     0.058766697    0.034276567  
      6900          76   0.72197425     0.079394214    0.058784258    0.034803257  
      7000          75   0.73118782     0.079954558    0.059615263    0.034182143  
      7100          75   0.72981832     0.078506803    0.05933558     0.034746017  
      7200          72   0.75541855     0.076472198    0.058788685    0.033595767  
      7300          72   0.75545654     0.076512465    0.060371489    0.033716345  
      7400          69   0.78563876     0.076755562    0.059327807    0.033982311  
      7500          68   0.79478883     0.075234477    0.059390055    0.033278783  
      7600          67   0.80394304     0.07337357     0.059151161    0.033764065  
      7700          67   0.80590143     0.075458302    0.061414582    0.033219177  
      7800          65   0.82842488     0.075135213    0.059275109    0.03345934   
      7900          65   0.82992882     0.076739415    0.061358441    0.033045562  
      8000          62   0.86439786     0.073985787    0.059248708    0.033855494  
      8100          62   0.86231796     0.071759931    0.059259629    0.032472112  
      8200          61   0.8768865      0.073251975    0.060469603    0.032336147  
      8300          59   0.90112575     0.069522479    0.057069294    0.032903788  
      8400          59   0.90437569     0.073013162    0.060177807    0.032348013  
      8500          57   0.93513558     0.074163712    0.059868166    0.032129973  
      8600          56   0.94945182     0.072720987    0.058615804    0.032069723  
      8700          56   0.94894667     0.07217622     0.0599554      0.031951699  
      8800          54   0.97951321     0.069451442    0.057486662    0.031861026  
      8900          53   0.99694312     0.06937422     0.058169881    0.031923553  
      9000          53   0.9968891      0.069315702    0.057560401    0.031752405  
      9100          52   1.0151319      0.069375485    0.058181024    0.031774505  
      9200          52   1.0168478      0.07123737     0.060030802    0.031503493  
      9300          49   1.0746945      0.069869448    0.058516763    0.031349844  
      9400          49   1.075198       0.070418696    0.060725237    0.031449699  
      9500          47   1.1172104      0.068585698    0.059246205    0.031836843  
      9600          46   1.1392904      0.067243632    0.059489817    0.031042279  
      9700          45   1.1649854      0.068707001    0.060999207    0.031015205  
      9800          43   1.2167339      0.068203742    0.061864334    0.030892294  
      9900          43   1.2179414      0.069538363    0.06395        0.030734812  
     10000          41   1.2744025      0.068472776    0.060561254    0.030541866  
Loop time of 0.232249 on 1 procs for 5000 steps with 41 atoms

Performance: 9300376.988 tau/day, 21528.650 timesteps/s, 882.675 katom-step/s
91.4% CPU use with 1 MPI tasks x no OpenMP threads

MPI task timing breakdown:
Section |  min time  |  avg time  |  max time  |%varavg| %total
---------------------------------------------------------------
Pair    | 0.023171   | 0.023171   | 0.023171   |   0.0 |  9.98
Neigh   | 0.0045423  | 0.0045423  | 0.0045423  |   0.0 |  1.96
Comm    | 0.00042716 | 0.00042716 | 0.00042716 |   0.0 |  0.18
Output  | 0.19148    | 0.19148    | 0.19148    |   0.0 | 82.45
Modify  | 0.011612   | 0.011612   | 0.011612   |   0.0 |  5.00
Other   |            | 0.001015   |            |       |  0.44

Nlocal:             41 ave          41 max          41 min
Histogram: 1 0 0 0 0 0 0 0 0 0
Nghost:              0 ave           0 max           0 min
Histogram: 1 0 0 0 0 0 0 0 0 0
Neighs:              0 ave           0 max           0 min
Histogram: 1 0 0 0 0 0 0 0 0 0

Total # of neighbors = 0
Ave neighs/atom = 0
Neighbor list builds = 177
Dangerous builds = 0

unfix           1
set             type 1 angmom 0.0 0.0 0.0
Setting atom values ...
  37 settings made for angmom
velocity        tri set 0.0 0.0 0.0
run             5000
Generated 0 of 1 mixed pair_coeff terms from geometric mixing rule
Per MPI rank memory allocation (min/avg/max) = 13.59 | 13.59 | 13.59 Mbytes
   Step        Atoms         Temp           c_1            c_2           Press     
     10000          41   0.061625498    0.068472776    0.060561254    0.00305615   
     10100          41   0.025254975    0.028061083    0.02437217     0.0026271027 
     10200          41   0.024393819    0.027104244    0.024633818    0.0023572228 
     10300          41   0.018015247    0.020016941    0.020621857    0.0025463576 
     10400          41   0.016921985    0.018802206    0.019360302    0.002082466  
     10500          41   0.017216494    0.019129438    0.020155469    0.0035436475 
     10600          41   0.017117386    0.019019318    0.020924624    0.0023704974 
     10700          40   0.021267544    0.02369812     0.024093057    0.0021665516 
     10800          39   0.015508579    0.017333117    0.021041382    0.0035660594 
     10900          39   0.016186792    0.018091121    0.021210051    0.0049345099 
     11000          39   0.015586494    0.017420199    0.021501559    0.0066808766 
     11100          39   0.015237777    0.017030457    0.021978242    0.0086073747 
     11200          39   0.015017416    0.01678417     0.022681353    0.010166477  
     11300          38   0.014479106    0.016234149    0.02222806     0.0031557802 
     11400          37   0.012297958    0.013835203    0.019989987    0.0035252488 
     11500          37   0.011651281    0.013107691    0.018961461    0.0048320998 
     11600          37   0.012189837    0.013713567    0.018403018    0.0031834233 
     11700          37   0.013518866    0.015208724    0.019515786    0.0030171621 
     11800          37   0.014068788    0.015827387    0.019973791    0.0027304961 
     11900          36   0.014538719    0.016414683    0.02028204     0.0026138589 
     12000          36   0.012354838    0.013949011    0.019563627    0.0026647531 
     12100          36   0.011956063    0.013498781    0.019967097    0.0025670349 
     12200          36   0.012105695    0.013667721    0.020808445    0.0025063398 
     12300          36   0.011549787    0.013040082    0.020878749    0.0024496418 
     12400          36   0.010916934    0.012325571    0.019643795    0.004250323  
     12500          36   0.01099958     0.01241888     0.018388921    0.0030752436 
     12600          35   0.01033081     0.011708251    0.0179885      0.0035106808 
     12700          33   0.010252951    0.011717658    0.018411045    0.0017976941 
     12800          33   0.010678308    0.012203781    0.018558424    0.0017002514 
     12900          33   0.012180086    0.013920098    0.019432831    0.0016688176 
     13000          33   0.012765778    0.014589461    0.01998997     0.0016190035 
     13100          32   0.01043512     0.011981064    0.019750714    0.0029022131 
     13200          32   0.010106579    0.01160385     0.020095193    0.0019861957 
     13300          32   0.0094852076   0.010890424    0.018092232    0.0014489801 
     13400          32   0.011412523    0.013103268    0.01899248     0.0015058469 
     13500          32   0.011112517    0.012758816    0.018541066    0.0014848955 
     13600          32   0.010360586    0.011895488    0.018432274    0.0016690155 
     13700          31   0.010168751    0.011733175    0.01927511     0.0016244377 
     13800          31   0.010530591    0.012150682    0.018986129    0.0017266198 
     13900          31   0.011341167    0.013085962    0.020244225    0.0031594327 
     14000          31   0.011494293    0.013262645    0.020691111    0.0019101224 
     14100          30   0.010977116    0.012733454    0.021066603    0.0020312424 
     14200          30   0.011736458    0.013614291    0.021384554    0.0022223346 
     14300          30   0.013796587    0.016004041    0.023690516    0.0024110671 
     14400          30   0.011576033    0.013428198    0.02268796     0.0026057617 
     14500          30   0.011909707    0.01381526     0.022250886    0.0028914407 
     14600          30   0.011101515    0.012877757    0.022754479    0.0031889992 
     14700          30   0.011283031    0.013088316    0.019956387    0.0060874479 
     14800          30   0.010284956    0.011930549    0.016686898    0.0039975609 
     14900          29   0.0098722494   0.011517624    0.016896924    0.0042842018 
     15000          29   0.010186166    0.01188386     0.017283688    0.0023888604 
Loop time of 0.178922 on 1 procs for 5000 steps with 29 atoms

Performance: 12072269.029 tau/day, 27945.067 timesteps/s, 810.407 katom-step/s
93.4% CPU use with 1 MPI tasks x no OpenMP threads

MPI task timing breakdown:
Section |  min time  |  avg time  |  max time  |%varavg| %total
---------------------------------------------------------------
Pair    | 0.010314   | 0.010314   | 0.010314   |   0.0 |  5.76
Neigh   | 0.00091559 | 0.00091559 | 0.00091559 |   0.0 |  0.51
Comm    | 0.00033777 | 0.00033777 | 0.00033777 |   0.0 |  0.19
Output  | 0.16153    | 0.16153    | 0.16153    |   0.0 | 90.28
Modify  | 0.005108   | 0.005108   | 0.005108   |   0.0 |  2.85
Other   |            | 0.0007212  |            |       |  0.40

Nlocal:             29 ave          29 max          29 min
Histogram: 1 0 0 0 0 0 0 0 0 0
Nghost:              0 ave           0 max           0 min
Histogram: 1 0 0 0 0 0 0 0 0 0
Neighs:              0 ave           0 max           0 min
Histogram: 1 0 0 0 0 0 0 0 0 0

Total # of neighbors = 0
Ave neighs/atom = 0
Neighbor list builds = 85
Dangerous builds = 0
Total wall time: 0:00:00
