LAMMPS (27 Jun 2024)
# pouring spheres into box made of triangles

units		lj
atom_style	sphere
#atom_modify     map array
boundary        f f f
dimension	3
comm_modify     vel yes

region          box block -10 10 -10 10 -10 10 units box
create_box	2 box   # simply for dump_modify to color lines = green
Created orthogonal box = (-10 -10 -10) to (10 10 10)
  1 by 1 by 1 MPI processor grid

pair_style	gran/hooke 4000.0 NULL 100.0 NULL 0.5 1
pair_coeff      * *

neighbor	0.3 bin
neigh_modify	delay 0 every 1 check yes

#displace_atoms  all rotate 0 0 0 0 0 1 45

molecule        tris surf.tribox
Read molecule template tris:
LAMMPS data file for tri box
  1 molecules
  0 fragments
  0 atoms with max type 0
  0 bonds with max type 0
  0 angles with max type 0
  0 dihedrals with max type 0
  0 impropers with max type 0
  24 triangles with 14 points

fix             20 all surface/global tris hooke                 4000.0 NULL 100.0 NULL 0.5 1
#fix             20 all surface/global tris hooke/history #                4000.0 NULL 100.0 NULL 0.5 1

fix             2 all nve/sphere
fix		3 all gravity 1.0 vector 0 0 -1
#fix             4 all viscous 0.2

region          slab block -2 2 -2 2 -2 2 units box
fix             ins all pour 100 1 4767548 vol 0.4 10 	        diam one 1.0 region slab ignore
Particle insertion: 48 every 566 steps, 100 by step 1133

timestep	0.005

compute         1 all temp
compute_modify  1 dynamic yes

compute         2 all temp/sphere
compute_modify  2 dynamic yes

thermo		100
thermo_style	custom step atoms temp c_1 c_2 press
thermo_modify   lost ignore
compute_modify  thermo_temp dynamic yes

dump		2 all image 100 tmp.image.*.ppm type type 		zoom 1.4 adiam 1.0 fix 20 type 2 0.5
dump_modify	2 pad 5

run	        5000
Generated 0 of 1 mixed pair_coeff terms from geometric mixing rule
Neighbor list info ...
  update: every = 1 steps, delay = 0 steps, check = yes
  max neighbors/atom: 2000, page size: 100000
  master list distance cutoff = 1.3
  ghost atom cutoff = 1.3
  binsize = 0.65, bins = 31 31 31
  1 neighbor lists, perpetual/occasional/extra = 1 0 0
  (1) pair gran/hooke, perpetual
      attributes: half, newton on, size
      pair build: half/size/bin/atomonly/newton
      stencil: half/bin/3d
      bin: standard
Per MPI rank memory allocation (min/avg/max) = 0.5873 | 0.5873 | 0.5873 Mbytes
   Step        Atoms         Temp           c_1            c_2           Press     
         0           0   0              0              0              0            
WARNING: Fewer insertions than requested (../fix_pour.cpp:683)
       100          30   0.803783       0.803783       0.39507978     0.0029137134 
       200          30   1.1967995      1.1967995      0.5882574      0.0043383984 
       300          30   1.2814686      1.2814686      0.62987441     0.0046453238 
       400          30   0.82347039     0.82347039     0.41172861     0.0029850802 
       500          30   0.76963938     0.76963938     0.38709352     0.0042867255 
WARNING: Fewer insertions than requested (../fix_pour.cpp:683)
       600          64   0.51325196     0.51325196     0.26472957     0.0045780407 
       700          64   0.57133229     0.57133229     0.29476966     0.0046847812 
       800          64   0.630634       0.630634       0.32751956     0.0050038133 
       900          64   0.54233611     0.54233611     0.28819808     0.0052880896 
      1000          64   0.48543152     0.48543152     0.26491902     0.0064773948 
      1100          64   0.47303609     0.47303609     0.2578388      0.0057125611 
WARNING: Fewer insertions than requested (../fix_pour.cpp:683)
      1200          99   0.40053109     0.40053109     0.2195167      0.0081778049 
      1300          99   0.42696772     0.42696772     0.23049402     0.006385146  
      1400          99   0.37139574     0.37139574     0.20331799     0.0074485307 
      1500          99   0.33478846     0.33478846     0.18670496     0.0061673941 
      1600          99   0.29982872     0.29982872     0.16693769     0.0051747985 
      1700         100   0.2069625      0.2069625      0.12302495     0.005783623  
      1800         100   0.12902068     0.12902068     0.08608601     0.0019792233 
      1900         100   0.080857094    0.080857094    0.059672509    0.0022973108 
      2000         100   0.064403955    0.064403955    0.046429731    0.0011922926 
      2100         100   0.056475498    0.056475498    0.038678923    0.00085304992
      2200         100   0.050018256    0.050018256    0.034384821    0.0032112539 
      2300         100   0.021868304    0.021868304    0.017658151    0.0011526373 
      2400         100   0.022189236    0.022189236    0.016714436    0.00056488482
      2500         100   0.012569738    0.012569738    0.010200523    0.00061305414
      2600         100   0.010861951    0.010861951    0.0086986505   0.00028075976
      2700         100   0.0092647871   0.0092647871   0.0071124847   0.00043064637
      2800         100   0.0078527688   0.0078527688   0.0059155703   0.00016902461
      2900         100   0.0048376734   0.0048376734   0.0039864566   9.6898167e-05
      3000         100   0.004997394    0.004997394    0.0038195379   0.00012912771
      3100         100   0.0025381263   0.0025381263   0.0022290621   9.3139494e-05
      3200         100   0.0023614621   0.0023614621   0.0020627353   0.00043394794
      3300         100   0.0018926758   0.0018926758   0.0016726508   9.015816e-05 
      3400         100   0.0016956727   0.0016956727   0.0015060379   9.8437955e-05
      3500         100   0.0020822011   0.0020822011   0.0016148425   6.8104893e-05
      3600         100   0.0010660921   0.0010660921   0.0010106443  -4.0921854e-05
      3700         100   0.00093117128  0.00093117128  0.00086120243  3.9299397e-05
      3800         100   0.00083426775  0.00083426775  0.00075721786  3.2376e-05   
      3900         100   0.00076790351  0.00076790351  0.00070733354  3.2793518e-05
      4000         100   0.0006859536   0.0006859536   0.00062258677  3.0547763e-05
      4100         100   0.00050291116  0.00050291116  0.00047200581  0.00015040263
      4200         100   0.00038735513  0.00038735513  0.0003849192   0.00017016843
      4300         100   0.00031672623  0.00031672623  0.00032789248  7.1880229e-05
      4400         100   0.00027595545  0.00027595545  0.00029274116  3.120052e-05 
      4500         100   0.00027092394  0.00027092394  0.00028257706  4.1409733e-05
      4600         100   0.00026641048  0.00026641048  0.00027631265  3.2258687e-05
      4700         100   0.0002550395   0.0002550395   0.00026456068  4.4752996e-05
      4800         100   0.00023866037  0.00023866037  0.00025120225  3.3651155e-05
      4900         100   0.00019734428  0.00019734428  0.0002099377   2.7700004e-05
      5000         100   0.00019733184  0.00019733184  0.00020831062  2.6903281e-05
Loop time of 0.377792 on 1 procs for 5000 steps with 100 atoms

Performance: 5717435.568 tau/day, 13234.805 timesteps/s, 1.323 Matom-step/s
98.4% CPU use with 1 MPI tasks x no OpenMP threads

MPI task timing breakdown:
Section |  min time  |  avg time  |  max time  |%varavg| %total
---------------------------------------------------------------
Pair    | 0.0034096  | 0.0034096  | 0.0034096  |   0.0 |  0.90
Neigh   | 0.0046279  | 0.0046279  | 0.0046279  |   0.0 |  1.22
Comm    | 0.00036326 | 0.00036326 | 0.00036326 |   0.0 |  0.10
Output  | 0.31831    | 0.31831    | 0.31831    |   0.0 | 84.25
Modify  | 0.049948   | 0.049948   | 0.049948   |   0.0 | 13.22
Other   |            | 0.001137   |            |       |  0.30

Nlocal:            100 ave         100 max         100 min
Histogram: 1 0 0 0 0 0 0 0 0 0
Nghost:              0 ave           0 max           0 min
Histogram: 1 0 0 0 0 0 0 0 0 0
Neighs:            160 ave         160 max         160 min
Histogram: 1 0 0 0 0 0 0 0 0 0

Total # of neighbors = 160
Ave neighs/atom = 1.6
Neighbor list builds = 270
Dangerous builds = 0

fix_modify      20 move rotate 0 0 0 0 0 1 25
run	        5000
Generated 0 of 1 mixed pair_coeff terms from geometric mixing rule
Per MPI rank memory allocation (min/avg/max) = 4.714 | 4.714 | 4.714 Mbytes
   Step        Atoms         Temp           c_1            c_2           Press     
      5000         100   0.00019733184  0.00019733184  0.00020831062  2.6930089e-05
      5100         100   0.14755911     0.14755911     0.085321575    0.0037275005 
      5200         100   0.17345004     0.17345004     0.10013131     0.0029005613 
      5300         100   0.17839393     0.17839393     0.09955336     0.0024744353 
      5400         100   0.18892743     0.18892743     0.10178919     0.0032939874 
      5500         100   0.19613791     0.19613791     0.10380256     0.0027253339 
      5600         100   0.19978293     0.19978293     0.10442183     0.0031193701 
      5700         100   0.21239814     0.21239814     0.10965684     0.0027404998 
      5800         100   0.22432265     0.22432265     0.11476437     0.0031430877 
      5900         100   0.22942225     0.22942225     0.11733388     0.00357628   
      6000         100   0.24043354     0.24043354     0.12272731     0.003255827  
      6100         100   0.25159401     0.25159401     0.1279307      0.0040378705 
      6200         100   0.25902708     0.25902708     0.13158752     0.0036512959 
      6300         100   0.2659723      0.2659723      0.13535001     0.0037298324 
      6400         100   0.27607055     0.27607055     0.14001655     0.0043863861 
      6500         100   0.28259585     0.28259585     0.14337861     0.004432214  
      6600         100   0.29041535     0.29041535     0.14658628     0.0041374757 
      6700         100   0.29338383     0.29338383     0.14816762     0.0043726723 
      6800         100   0.29363497     0.29363497     0.14803605     0.0048496941 
      6900         100   0.29819446     0.29819446     0.14992058     0.0048661826 
      7000         100   0.30253288     0.30253288     0.15178707     0.0047893404 
      7100         100   0.30364521     0.30364521     0.15238027     0.0053735204 
      7200         100   0.30571022     0.30571022     0.15341639     0.0050547621 
      7300         100   0.30762729     0.30762729     0.15433251     0.0048579985 
      7400         100   0.30739457     0.30739457     0.15429161     0.0052840169 
      7500         100   0.3095106      0.3095106      0.15546551     0.0047742904 
      7600         100   0.30994994     0.30994994     0.15560402     0.0055289317 
      7700         100   0.3102136      0.3102136      0.1555494      0.0053911148 
      7800         100   0.31109652     0.31109652     0.15598755     0.0050957646 
      7900         100   0.31190144     0.31190144     0.15640137     0.0050144069 
      8000         100   0.3124433      0.3124433      0.15676067     0.0049291948 
      8100         100   0.31255831     0.31255831     0.15682783     0.0053772662 
      8200         100   0.31276764     0.31276764     0.15700445     0.0051137616 
      8300         100   0.31476621     0.31476621     0.15777763     0.0050115786 
      8400         100   0.31520108     0.31520108     0.1579466      0.0052663181 
      8500         100   0.31519638     0.31519638     0.15797839     0.0054592691 
      8600         100   0.31650736     0.31650736     0.15853548     0.006061159  
      8700         100   0.31783185     0.31783185     0.15910269     0.0055642729 
      8800         100   0.31962922     0.31962922     0.15981552     0.0051073677 
      8900         100   0.32028059     0.32028059     0.16016593     0.0051129724 
      9000         100   0.32067355     0.32067355     0.16033852     0.005334504  
      9100         100   0.32073134     0.32073134     0.16036476     0.0052193698 
      9200         100   0.32149618     0.32149618     0.16073834     0.0051959338 
      9300         100   0.32200413     0.32200413     0.16101431     0.0053371119 
      9400         100   0.32243427     0.32243427     0.16127313     0.0051442587 
      9500         100   0.32287887     0.32287887     0.16159452     0.0051133998 
      9600         100   0.32358279     0.32358279     0.16193072     0.0051698096 
      9700         100   0.32486591     0.32486591     0.16249108     0.0052421695 
      9800         100   0.32481094     0.32481094     0.16244971     0.0052881334 
      9900         100   0.32619742     0.32619742     0.16300857     0.0056091381 
     10000         100   0.32685101     0.32685101     0.16333907     0.0052565109 
Loop time of 0.395516 on 1 procs for 5000 steps with 100 atoms

Performance: 5461219.023 tau/day, 12641.711 timesteps/s, 1.264 Matom-step/s
100.0% CPU use with 1 MPI tasks x no OpenMP threads

MPI task timing breakdown:
Section |  min time  |  avg time  |  max time  |%varavg| %total
---------------------------------------------------------------
Pair    | 0.0097241  | 0.0097241  | 0.0097241  |   0.0 |  2.46
Neigh   | 0.0063725  | 0.0063725  | 0.0063725  |   0.0 |  1.61
Comm    | 0.00038378 | 0.00038378 | 0.00038378 |   0.0 |  0.10
Output  | 0.31516    | 0.31516    | 0.31516    |   0.0 | 79.68
Modify  | 0.062652   | 0.062652   | 0.062652   |   0.0 | 15.84
Other   |            | 0.001224   |            |       |  0.31

Nlocal:            100 ave         100 max         100 min
Histogram: 1 0 0 0 0 0 0 0 0 0
Nghost:              0 ave           0 max           0 min
Histogram: 1 0 0 0 0 0 0 0 0 0
Neighs:            190 ave         190 max         190 min
Histogram: 1 0 0 0 0 0 0 0 0 0

Total # of neighbors = 190
Ave neighs/atom = 1.9
Neighbor list builds = 334
Dangerous builds = 0

fix_modify      20 move none
run             5000
Generated 0 of 1 mixed pair_coeff terms from geometric mixing rule
Per MPI rank memory allocation (min/avg/max) = 4.714 | 4.714 | 4.714 Mbytes
   Step        Atoms         Temp           c_1            c_2           Press     
     10000         100   0.32685101     0.32685101     0.16333907     0.0052114688 
     10100         100   0.082150677    0.082150677    0.051495507    0.0065164512 
     10200         100   0.044140364    0.044140364    0.034724328    0.0010465239 
     10300         100   0.033122648    0.033122648    0.026625827    0.0022974917 
     10400         100   0.026649705    0.026649705    0.021846707    0.00035032509
     10500         100   0.022611369    0.022611369    0.018405546    0.0004069116 
     10600         100   0.018296124    0.018296124    0.014829351    0.00026270833
     10700         100   0.015248747    0.015248747    0.012084705    0.00023227455
     10800         100   0.014989372    0.014989372    0.011849067    0.00054473331
     10900         100   0.011865503    0.011865503    0.0094526639   0.00028431427
     11000         100   0.0096206477   0.0096206477   0.0077795159   0.00012996686
     11100         100   0.0085270379   0.0085270379   0.0069458369   0.00021692214
     11200         100   0.00760939     0.00760939     0.0062336019   0.00015816658
     11300         100   0.0070094711   0.0070094711   0.0056987409   9.7160075e-05
     11400         100   0.0064681327   0.0064681327   0.0053334513   0.0001693687 
     11500         100   0.0054400476   0.0054400476   0.0044705267   8.1382559e-05
     11600         100   0.005206949    0.005206949    0.0042892806   7.0309283e-05
     11700         100   0.0044637648   0.0044637648   0.0037251717   5.4172517e-05
     11800         100   0.0039969168   0.0039969168   0.003362444    2.0226315e-05
     11900         100   0.0033117132   0.0033117132   0.0027762101   5.2311253e-05
     12000         100   0.0031073405   0.0031073405   0.0025984799   3.9890528e-05
     12100         100   0.0029847617   0.0029847617   0.0025070771  -5.7259344e-06
     12200         100   0.0028458878   0.0028458878   0.0024108535   3.5217862e-05
     12300         100   0.0026501923   0.0026501923   0.0022711794   0.00012033569
     12400         100   0.0025425504   0.0025425504   0.0021847643   3.1464061e-05
     12500         100   0.0024161319   0.0024161319   0.0020843813   0.00014941327
     12600         100   0.002341327    0.002341327    0.0020232445   2.8973921e-05
     12700         100   0.0022334192   0.0022334192   0.0019425572   3.0790164e-05
     12800         100   0.0021889403   0.0021889403   0.0019088353   2.9638662e-05
     12900         100   0.0020442842   0.0020442842   0.0018049012   2.5298016e-05
     13000         100   0.001803154    0.001803154    0.0016328702   2.2314031e-05
     13100         100   0.0016791405   0.0016791405   0.0015327583   2.2967562e-05
     13200         100   0.001622137    0.001622137    0.0014810169   4.0326561e-05
     13300         100   0.001601531    0.001601531    0.0014650816   1.9818946e-05
     13400         100   0.0015591399   0.0015591399   0.0014123726   2.119773e-05 
     13500         100   0.0014546357   0.0014546357   0.0013328423   1.8001117e-05
     13600         100   0.0013998773   0.0013998773   0.0012913696   2.6202181e-05
     13700         100   0.001367574    0.001367574    0.0012631494   1.6923729e-05
     13800         100   0.001225732    0.001225732    0.0011125165   1.4445147e-05
     13900         100   0.0012086291   0.0012086291   0.0010972374   2.8597468e-05
     14000         100   0.0011916306   0.0011916306   0.0010833978   7.2381933e-05
     14100         100   0.0011461149   0.0011461149   0.0010110271   1.4183172e-05
     14200         100   0.0011209785   0.0011209785   0.00099190436  1.1546608e-05
     14300         100   0.0011050802   0.0011050802   0.00098070422  1.3675367e-05
     14400         100   0.0010910417   0.0010910417   0.00097025303  1.3501641e-05
     14500         100   0.0010645152   0.0010645152   0.00093785696  1.3173375e-05
     14600         100   0.0010479185   0.0010479185   0.00092353031  2.5164629e-05
     14700         100   0.00099034477  0.00099034477  0.0008638973   1.2874356e-05
     14800         100   0.00099115544  0.00099115544  0.00086195396  1.2265549e-05
     14900         100   0.00097510619  0.00097510619  0.00083043649  6.0289327e-05
     15000         100   0.00095883902  0.00095883902  0.00080522184  1.1865633e-05
Loop time of 0.389832 on 1 procs for 5000 steps with 100 atoms

Performance: 5540855.231 tau/day, 12826.054 timesteps/s, 1.283 Matom-step/s
96.0% CPU use with 1 MPI tasks x no OpenMP threads

MPI task timing breakdown:
Section |  min time  |  avg time  |  max time  |%varavg| %total
---------------------------------------------------------------
Pair    | 0.0031065  | 0.0031065  | 0.0031065  |   0.0 |  0.80
Neigh   | 0.0014317  | 0.0014317  | 0.0014317  |   0.0 |  0.37
Comm    | 0.000314   | 0.000314   | 0.000314   |   0.0 |  0.08
Output  | 0.32805    | 0.32805    | 0.32805    |   0.0 | 84.15
Modify  | 0.055756   | 0.055756   | 0.055756   |   0.0 | 14.30
Other   |            | 0.001173   |            |       |  0.30

Nlocal:            100 ave         100 max         100 min
Histogram: 1 0 0 0 0 0 0 0 0 0
Nghost:              0 ave           0 max           0 min
Histogram: 1 0 0 0 0 0 0 0 0 0
Neighs:            165 ave         165 max         165 min
Histogram: 1 0 0 0 0 0 0 0 0 0

Total # of neighbors = 165
Ave neighs/atom = 1.65
Neighbor list builds = 69
Dangerous builds = 0

fix_modify      20 move rotate 0 0 0 1 1 1 25
run	        5000
Generated 0 of 1 mixed pair_coeff terms from geometric mixing rule
Per MPI rank memory allocation (min/avg/max) = 4.714 | 4.714 | 4.714 Mbytes
   Step        Atoms         Temp           c_1            c_2           Press     
     15000         100   0.00095883902  0.00095883902  0.00080522184  1.1865633e-05
     15100         100   0.16225441     0.16225441     0.098498099    0.0064159333 
     15200         100   0.22482098     0.22482098     0.12948232     0.003576331  
     15300         100   0.2458026      0.2458026      0.1393646      0.006749306  
     15400         100   0.26239222     0.26239222     0.1469859      0.0089800228 
     15500         100   0.28687382     0.28687382     0.15847135     0.0079704333 
     15600         100   0.28622953     0.28622953     0.15902139     0.0082281462 
     15700         100   0.30668089     0.30668089     0.16265483     0.014688893  
     15800         100   0.33007713     0.33007713     0.17247344     0.0099574571 
     15900         100   0.35773029     0.35773029     0.18298391     0.01415523   
     16000         100   0.36309971     0.36309971     0.18514042     0.010763173  
     16100         100   0.36974105     0.36974105     0.18746237     0.010738235  
     16200         100   0.36988383     0.36988383     0.18775314     0.014768427  
     16300         100   0.37560588     0.37560588     0.19010652     0.014297415  
     16400         100   0.37747146     0.37747146     0.19143031     0.014086853  
     16500         100   0.38053331     0.38053331     0.19248441     0.01837541   
     16600         100   0.37315821     0.37315821     0.1881627      0.0098076132 
     16700         100   0.38286964     0.38286964     0.19289589     0.011785316  
     16800         100   0.38013501     0.38013501     0.19200912     0.0138546    
     16900         100   0.37496008     0.37496008     0.19035729     0.010235176  
     17000         100   0.365244       0.365244       0.18508129     0.011814705  
     17100         100   0.36324363     0.36324363     0.18539176     0.0077602876 
     17200         100   0.36563128     0.36563128     0.18828717     0.009760622  
     17300         100   0.41040797     0.41040797     0.21297576     0.0060030421 
     17400         100   0.42784496     0.42784496     0.22357917     0.0072328321 
     17500         100   0.44480315     0.44480315     0.23296103     0.0081208771 
     17600         100   0.49540498     0.49540498     0.26207461     0.0094193362 
     17700         100   0.53563972     0.53563972     0.28429788     0.0096153439 
     17800         100   0.59909402     0.59909402     0.31832665     0.0086897236 
     17900         100   0.65975736     0.65975736     0.35361646     0.010946403  
     18000         100   0.67883738     0.67883738     0.36868438     0.010453697  
     18100         100   0.67229859     0.67229859     0.37009573     0.011447688  
     18200         100   0.58740281     0.58740281     0.32918911     0.012430038  
     18300         100   0.51321184     0.51321184     0.29212329     0.014782894  
     18400         100   0.46432678     0.46432678     0.26861208     0.0074401518 
     18500         100   0.46083979     0.46083979     0.26638884     0.0090587319 
     18600         100   0.41968764     0.41968764     0.24616432     0.0091476182 
     18700         100   0.40749768     0.40749768     0.24073731     0.0073954099 
     18800         100   0.38490007     0.38490007     0.23057035     0.0056617504 
     18900         100   0.36115679     0.36115679     0.21996888     0.0069095868 
     19000         100   0.31118149     0.31118149     0.19549915     0.0066423887 
     19100         100   0.34419249     0.34419249     0.20736311     0.012418102  
     19200         100   0.33174248     0.33174248     0.19629654     0.0074405926 
     19300         100   0.33028394     0.33028394     0.19472996     0.0077286569 
     19400         100   0.33612501     0.33612501     0.19522775     0.0083424841 
     19500         100   0.32216161     0.32216161     0.18401278     0.0088692814 
     19600         100   0.33681829     0.33681829     0.18758804     0.0097379383 
     19700         100   0.33730835     0.33730835     0.18474995     0.009296681  
     19800         100   0.3351213      0.3351213      0.18164387     0.0061672199 
     19900         100   0.32674396     0.32674396     0.17780137     0.0062277401 
     20000         100   0.31549601     0.31549601     0.17276762     0.011954545  
Loop time of 0.416473 on 1 procs for 5000 steps with 100 atoms

Performance: 5186412.038 tau/day, 12005.583 timesteps/s, 1.201 Matom-step/s
95.2% CPU use with 1 MPI tasks x no OpenMP threads

MPI task timing breakdown:
Section |  min time  |  avg time  |  max time  |%varavg| %total
---------------------------------------------------------------
Pair    | 0.0092038  | 0.0092038  | 0.0092038  |   0.0 |  2.21
Neigh   | 0.0099854  | 0.0099854  | 0.0099854  |   0.0 |  2.40
Comm    | 0.00041171 | 0.00041171 | 0.00041171 |   0.0 |  0.10
Output  | 0.33871    | 0.33871    | 0.33871    |   0.0 | 81.33
Modify  | 0.056911   | 0.056911   | 0.056911   |   0.0 | 13.67
Other   |            | 0.001256   |            |       |  0.30

Nlocal:            100 ave         100 max         100 min
Histogram: 1 0 0 0 0 0 0 0 0 0
Nghost:              0 ave           0 max           0 min
Histogram: 1 0 0 0 0 0 0 0 0 0
Neighs:            242 ave         242 max         242 min
Histogram: 1 0 0 0 0 0 0 0 0 0

Total # of neighbors = 242
Ave neighs/atom = 2.42
Neighbor list builds = 435
Dangerous builds = 0

fix_modify      20 move none
run             5000
Generated 0 of 1 mixed pair_coeff terms from geometric mixing rule
Per MPI rank memory allocation (min/avg/max) = 4.714 | 4.714 | 4.714 Mbytes
   Step        Atoms         Temp           c_1            c_2           Press     
     20000         100   0.31549601     0.31549601     0.17276762     0.011924862  
     20100         100   0.067243668    0.067243668    0.051058315    0.0026847669 
     20200         100   0.064954648    0.064954648    0.04577406     0.0031985925 
     20300         100   0.081722159    0.081722159    0.052328099    0.003382093  
     20400         100   0.052538018    0.052538018    0.038041695    0.0080953559 
     20500         100   0.045138106    0.045138106    0.032227169    0.0035839274 
     20600         100   0.044187088    0.044187088    0.031849801    0.0032417719 
     20700         100   0.048791318    0.048791318    0.033838035    0.0030783015 
     20800         100   0.042228029    0.042228029    0.029496426    0.0026771471 
     20900         100   0.037884649    0.037884649    0.026659395    0.0016131444 
     21000         100   0.036121934    0.036121934    0.025961479    0.0033546991 
     21100         100   0.041151215    0.041151215    0.028554924    0.0014986709 
     21200         100   0.032352882    0.032352882    0.024166876    0.0018674452 
     21300         100   0.033808076    0.033808076    0.02501534     0.0014150028 
     21400         100   0.033233201    0.033233201    0.024762604    0.0015124318 
     21500         100   0.023344798    0.023344798    0.017595957    0.0020406313 
     21600         100   0.024137168    0.024137168    0.017835056    0.001648494  
     21700         100   0.020201901    0.020201901    0.015367789    0.0014089977 
     21800         100   0.019279358    0.019279358    0.014625498    0.0012643094 
     21900         100   0.01893081     0.01893081     0.014292746    0.0015049479 
     22000         100   0.017257227    0.017257227    0.01315079     0.0011652685 
     22100         100   0.015479952    0.015479952    0.011715026    0.0014536538 
     22200         100   0.016610168    0.016610168    0.012253776    0.00089466949
     22300         100   0.014924039    0.014924039    0.011273468    0.0010494839 
     22400         100   0.015991668    0.015991668    0.011902404    0.00082344174
     22500         100   0.011574074    0.011574074    0.0087681303   0.00081009385
     22600         100   0.012494171    0.012494171    0.0092328529   0.0005622816 
     22700         100   0.011070984    0.011070984    0.0083661745   0.00080065357
     22800         100   0.01131513     0.01131513     0.0084259241   0.00073680805
     22900         100   0.010217077    0.010217077    0.0077647566   0.00053727888
     23000         100   0.0099409381   0.0099409381   0.0074288509   0.00058448502
     23100         100   0.0091176585   0.0091176585   0.0069209665   0.00063336231
     23200         100   0.0083540727   0.0083540727   0.0063805491   0.0005281495 
     23300         100   0.008619666    0.008619666    0.0065404908   0.0005398125 
     23400         100   0.0088762213   0.0088762213   0.0065206851   0.00046304022
     23500         100   0.007364061    0.007364061    0.0055771232   0.00046541178
     23600         100   0.0074046272   0.0074046272   0.0055598275   0.00036522805
     23700         100   0.0073881556   0.0073881556   0.0055580858   0.0005353812 
     23800         100   0.0072954594   0.0072954594   0.0053965497   0.00041955961
     23900         100   0.006566226    0.006566226    0.0047704154   0.00037213632
     24000         100   0.0052279617   0.0052279617   0.0039151171   0.00039220479
     24100         100   0.004661037    0.004661037    0.0035353607   0.00036592087
     24200         100   0.0046822639   0.0046822639   0.0035561511   0.00036233017
     24300         100   0.0047878887   0.0047878887   0.0036222045   0.0003906286 
     24400         100   0.005705559    0.005705559    0.0041298188   0.00039793154
     24500         100   0.0038440196   0.0038440196   0.0030815263   0.00050064408
     24600         100   0.0035754817   0.0035754817   0.0030293001   0.00032292161
     24700         100   0.003446554    0.003446554    0.0027976688   0.00029115924
     24800         100   0.0028987207   0.0028987207   0.0023988341   0.00018959598
     24900         100   0.0027083267   0.0027083267   0.0021669208   0.0001799362 
     25000         100   0.0026561456   0.0026561456   0.0020638865   0.00014386648
Loop time of 0.394353 on 1 procs for 5000 steps with 100 atoms

Performance: 5477329.555 tau/day, 12679.004 timesteps/s, 1.268 Matom-step/s
82.6% CPU use with 1 MPI tasks x no OpenMP threads

MPI task timing breakdown:
Section |  min time  |  avg time  |  max time  |%varavg| %total
---------------------------------------------------------------
Pair    | 0.0073102  | 0.0073102  | 0.0073102  |   0.0 |  1.85
Neigh   | 0.00398    | 0.00398    | 0.00398    |   0.0 |  1.01
Comm    | 0.00033952 | 0.00033952 | 0.00033952 |   0.0 |  0.09
Output  | 0.32686    | 0.32686    | 0.32686    |   0.0 | 82.89
Modify  | 0.054687   | 0.054687   | 0.054687   |   0.0 | 13.87
Other   |            | 0.001176   |            |       |  0.30

Nlocal:            100 ave         100 max         100 min
Histogram: 1 0 0 0 0 0 0 0 0 0
Nghost:              0 ave           0 max           0 min
Histogram: 1 0 0 0 0 0 0 0 0 0
Neighs:            147 ave         147 max         147 min
Histogram: 1 0 0 0 0 0 0 0 0 0

Total # of neighbors = 147
Ave neighs/atom = 1.47
Neighbor list builds = 173
Dangerous builds = 0
Total wall time: 0:00:01
