LAMMPS (27 Jun 2024)
WARNING: Using I/O redirection is unreliable with parallel runs. Better to use the -in switch to read input files. (../lammps.cpp:551)
# pouring spheres into box made of triangles

units		lj
atom_style	tri
atom_modify     map array
boundary        f f f
dimension	3
comm_modify     vel yes

read_data	data.tribox
Reading data file ...
  orthogonal box = (-9 -9 -9) to (9 9 9)
  1 by 2 by 2 MPI processor grid
  reading atoms ...
  24 atoms
  24 triangles
  read_data CPU = 0.001 seconds

pair_style	hybrid gran/hooke 4000.0 NULL 100.0 NULL 0.5 1                 tri/gran/hooke 4000.0 NULL 100.0 NULL 0.5 1
pair_coeff	1 1 gran/hooke
pair_coeff	1 2 tri/gran/hooke
pair_coeff	2 2 none

group           sphere type 1
0 atoms in group sphere
group           tri type 2
24 atoms in group tri

fix             fsl all surface/local NULL
  matched 0 tri edge pairs in fix surface/local
  matched 0 tri corners in fix surface/local

neighbor	0.3 bin
neigh_modify	delay 0 every 1 check yes

#displace_atoms  all rotate 0 0 0 0 0 1 45

fix             2 sphere nve/sphere
fix		3 sphere gravity 1.0 vector 0 0 -1
#fix             4 sphere viscous 0.2

region          slab block -2 2 -2 2 -2 2 units box
fix             ins sphere pour 100 1 4767548 vol 0.4 10 	        diam one 1.0 region slab ignore
Particle insertion: 48 every 566 steps, 100 by step 1133

timestep	0.005

compute         1 sphere temp
compute_modify  1 dynamic yes

compute         2 sphere temp/sphere
compute_modify  2 dynamic yes

thermo		100
thermo_style	custom step atoms temp c_1 c_2 press
thermo_modify   lost ignore
compute_modify  thermo_temp dynamic yes

dump		2 all image 100 tmp.image.*.ppm type type 		zoom 1.4 adiam 1.0 tri type 2 0.2
dump_modify	2 pad 5

run	        5000

CITE-CITE-CITE-CITE-CITE-CITE-CITE-CITE-CITE-CITE-CITE-CITE-CITE

Your simulation uses code contributions which should be cited:

- Type Label Framework: https://doi.org/10.1021/acs.jpcb.3c08419

@Article{Gissinger24,
 author = {Jacob R. Gissinger, Ilia Nikiforov, Yaser Afshar, Brendon Waters, Moon-ki Choi, Daniel S. Karls, Alexander Stukowski, Wonpil Im, Hendrik Heinz, Axel Kohlmeyer, and Ellad B. Tadmor},
 title = {Type Label Framework for Bonded Force Fields in LAMMPS},
 journal = {J. Phys. Chem. B},
 year =    2024,
 volume =  128,
 number =  13,
 pages =   {3282–-3297}
}

CITE-CITE-CITE-CITE-CITE-CITE-CITE-CITE-CITE-CITE-CITE-CITE-CITE

Generated 0 of 1 mixed pair_coeff terms from geometric mixing rule
Neighbor list info ...
  update: every = 1 steps, delay = 0 steps, check = yes
  max neighbors/atom: 2000, page size: 100000
  master list distance cutoff = 7.1245553
  ghost atom cutoff = 7.1245553
  binsize = 3.5622777, bins = 6 6 6
  3 neighbor lists, perpetual/occasional/extra = 3 0 0
  (1) pair gran/hooke, perpetual, skip trim from (3)
      attributes: half, newton on, size, cut 1.3, off2on
      pair build: skip/trim/size/off2on
      stencil: none
      bin: none
  (2) pair tri/gran/hooke, perpetual, skip from (3)
      attributes: half, newton on, size, onesided, off2on
      pair build: skip/size/off2on/oneside
      stencil: none
      bin: none
  (3) neighbor class addition, perpetual
      attributes: half, newton off, size
      pair build: half/size/bin/atomonly/newtoff
      stencil: full/bin/3d
      bin: standard
Per MPI rank memory allocation (min/avg/max) = 7.33 | 7.33 | 7.33 Mbytes
   Step        Atoms         Temp           c_1            c_2           Press     
         0          24   0              0              0              0            
WARNING: Fewer insertions than requested (../fix_pour.cpp:683)
       100          54   0.43980579     0.803783       0.39507978     0.0039968633 
       200          54   0.65485258     1.1967995      0.5882574      0.0059511637 
       300          54   0.70132384     1.2817298      0.63010574     0.0063734849 
       400          54   0.45093341     0.82411969     0.41249751     0.0042561911 
       500          54   0.42525034     0.77718166     0.38820201     0.0078512135 
WARNING: Fewer insertions than requested (../fix_pour.cpp:683)
       600          88   0.3570538      0.4930743      0.25576282     0.005620152  
       700          88   0.41007042     0.56628773     0.29269184     0.01448171   
       800          88   0.43317653     0.59819616     0.31198979     0.0065330319 
       900          88   0.38387005     0.53010625     0.28469448     0.019673632  
      1000          88   0.34469998     0.47601425     0.26077114     0.0066033348 
      1100          88   0.32835256     0.45343924     0.24967619     0.010302919  
WARNING: Fewer insertions than requested (../fix_pour.cpp:683)
      1200         123   0.33911298     0.42216106     0.22789226     0.0074973488 
      1300         123   0.3379737      0.42074277     0.22568809     0.014433951  
      1400         123   0.2961553      0.36868313     0.20062598     0.011468971  
      1500         123   0.27200377     0.33861693     0.18739625     0.0064025495 
      1600         123   0.22759553     0.28333321     0.16069827     0.008363435  
      1700         124   0.15276587     0.18980002     0.11236672     0.011626496  
      1800         124   0.11107402     0.13800105     0.086465407    0.0087477917 
      1900         124   0.06142444     0.076315214    0.053019141    0.004037587  
      2000         124   0.049292967    0.061242778    0.041266304    0.0082147762 
      2100         124   0.048704546    0.060511708    0.039376114    0.0054753227 
      2200         124   0.044218373    0.054937979    0.034858584    0.0037227307 
      2300         124   0.02550556     0.031688725    0.023245828    0.0035321727 
      2400         124   0.016089995    0.0199906      0.01541243     0.0017189888 
      2500         124   0.012346398    0.015339465    0.01177677     0.0036963339 
      2600         124   0.0075404134   0.0093683924   0.0076293423   0.0034940779 
      2700         124   0.0067838727   0.0084284479   0.0068444383   0.0019665842 
      2800         124   0.006708765    0.0083351323   0.0064727347   0.0016615158 
      2900         124   0.004294753    0.0053359052   0.0048063567   0.0021963096 
      3000         124   0.0033431602   0.0041536233   0.0038401468   0.001994058  
      3100         124   0.0032269768   0.0040092742   0.0034184269   0.0014603714 
      3200         124   0.0023818698   0.0029592928   0.0027838863   0.001664891  
      3300         124   0.0018322161   0.0022763897   0.0021716339   0.002057366  
      3400         124   0.0014248827   0.0017703089   0.0016988338   0.001496636  
      3500         124   0.0013197088   0.0016396383   0.0015225367   0.0015388466 
      3600         124   0.00133024     0.0016527224   0.001426314    0.0020634105 
      3700         124   0.0010852347   0.0013483219   0.0012501392   0.0015821804 
      3800         124   0.00095625331  0.0011880723   0.0011136435   0.0016900873 
      3900         124   0.00082256476  0.0010219744   0.00096075381  0.001579234  
      4000         124   0.00080162571  0.00099595922  0.00093773706  0.0015605684 
      4100         124   0.00063266677  0.00078604054  0.00075570121  0.0016979612 
      4200         124   0.0010034468   0.0012467066   0.00097332607  0.0016415856 
      4300         124   0.00050595765  0.00062861405  0.00062574733  0.001574415  
      4400         124   0.00050252916  0.00062435441  0.00062306216  0.0015721724 
      4500         124   0.00046072237  0.00057241264  0.00057938328  0.0015779919 
      4600         124   0.00042811279  0.0005318977   0.00053568981  0.0016611222 
      4700         124   0.00040136333  0.00049866353  0.0005051089   0.0016297942 
      4800         124   0.00039562785  0.00049153763  0.00048615298  0.001574763  
      4900         124   0.00036111213  0.00044865446  0.00044122783  0.0015813131 
      5000         124   0.00033252382  0.00041313565  0.00041161699  0.0015271171 
Loop time of 0.428122 on 4 procs for 5000 steps with 124 atoms

Performance: 5045285.021 tau/day, 11678.901 timesteps/s, 1.448 Matom-step/s
92.1% CPU use with 4 MPI tasks x no OpenMP threads

MPI task timing breakdown:
Section |  min time  |  avg time  |  max time  |%varavg| %total
---------------------------------------------------------------
Pair    | 0.0020182  | 0.017219   | 0.034344   |  11.6 |  4.02
Neigh   | 0.0019958  | 0.0051706  | 0.0083142  |   4.1 |  1.21
Comm    | 0.069598   | 0.086964   | 0.10282    |   5.3 | 20.31
Output  | 0.21669    | 0.25027    | 0.30775    |   7.5 | 58.46
Modify  | 0.0014039  | 0.00278    | 0.0042316  |   2.5 |  0.65
Other   |            | 0.06572    |            |       | 15.35

Nlocal:             31 ave          54 max           6 min
Histogram: 2 0 0 0 0 0 0 0 0 2
Nghost:             93 ave         118 max          70 min
Histogram: 2 0 0 0 0 0 0 0 0 2
Neighs:              0 ave           0 max           0 min
Histogram: 4 0 0 0 0 0 0 0 0 0

Total # of neighbors = 0
Ave neighs/atom = 0
Neighbor list builds = 277
Dangerous builds = 0

fix             1 tri move rotate 0 0 0 0 0 1 25
run	        5000
Generated 0 of 1 mixed pair_coeff terms from geometric mixing rule
Per MPI rank memory allocation (min/avg/max) = 8.543 | 8.551 | 8.559 Mbytes
   Step        Atoms         Temp           c_1            c_2           Press     
      5000         124   0.00033252382  0.00041313565  0.00041161699  0.0015247193 
      5100         124   5.2643375      0.17039873     0.09705433     0.11416716   
      5200         124   5.277482       0.18672979     0.1043814      0.11257204   
      5300         124   5.2866144      0.19807608     0.10732851     0.11281682   
      5400         124   5.2934293      0.20654308     0.1095698      0.11346747   
      5500         124   5.3026608      0.21801259     0.11377017     0.11290113   
      5600         124   5.3085954      0.22538592     0.11711164     0.11384417   
      5700         124   5.3142314      0.23238818     0.11983059     0.11325438   
      5800         124   5.3189785      0.23828612     0.12227722     0.1153696    
      5900         124   5.3284855      0.25009776     0.12771734     0.11556317   
      6000         124   5.3330492      0.2557679      0.1303435      0.11515069   
      6100         124   5.3406349      0.2651925      0.13507525     0.11580707   
      6200         124   5.343194       0.26837195     0.13659258     0.11642911   
      6300         124   5.3465229      0.27250792     0.13831313     0.11900857   
      6400         124   5.3540671      0.28188101     0.14274641     0.1166946    
      6500         124   5.3609005      0.290371       0.14682786     0.11701196   
      6600         124   5.3644641      0.29479844     0.14849604     0.11719471   
      6700         124   5.3700864      0.30178381     0.15183822     0.11722006   
      6800         124   5.3700369      0.30172231     0.15162191     0.11689373   
      6900         124   5.372558       0.30485452     0.15313806     0.11685555   
      7000         124   5.3754804      0.30848547     0.15481671     0.11766123   
      7100         124   5.3776473      0.31117767     0.15594241     0.11698367   
      7200         124   5.3776466      0.31117679     0.15599897     0.11848619   
      7300         124   5.3789062      0.31274172     0.15697677     0.11796747   
      7400         124   5.379857       0.31392299     0.15756111     0.11729668   
      7500         124   5.380475       0.31469076     0.15793587     0.11773653   
      7600         124   5.3805918      0.31483596     0.15805742     0.11770083   
      7700         124   5.3814552      0.3159087      0.15848025     0.11770771   
      7800         124   5.381188       0.31557668     0.15826946     0.11787699   
      7900         124   5.3824275      0.31711671     0.15902043     0.11881888   
      8000         124   5.3826661      0.31741305     0.15919192     0.11876528   
      8100         124   5.3830587      0.31790081     0.15937952     0.1179143    
      8200         124   5.3835183      0.31847188     0.15972293     0.11850266   
      8300         124   5.383823       0.31885047     0.15990572     0.11823902   
      8400         124   5.3828419      0.31763153     0.15929109     0.11869359   
      8500         124   5.3829118      0.31771834     0.15938561     0.11815599   
      8600         124   5.3830822      0.31793007     0.15948527     0.11921097   
      8700         124   5.3831559      0.31802161     0.15950999     0.11821857   
      8800         124   5.3832481      0.3181362      0.15960074     0.11830636   
      8900         124   5.3834961      0.31844429     0.15978798     0.11836886   
      9000         124   5.3838958      0.31894088     0.15995407     0.11817503   
      9100         124   5.3849483      0.32024856     0.16054352     0.11981531   
      9200         124   5.3846287      0.31985146     0.16035357     0.1184693    
      9300         124   5.3845679      0.3197759      0.16033206     0.11791943   
      9400         124   5.3851552      0.32050563     0.16059904     0.11836958   
      9500         124   5.3852686      0.32064645     0.16070632     0.11794165   
      9600         124   5.3852721      0.32065083     0.16074725     0.11846839   
      9700         124   5.3862834      0.32190731     0.16134953     0.11782994   
      9800         124   5.3868126      0.32256485     0.16169218     0.11864821   
      9900         124   5.3872887      0.32315629     0.16201675     0.11777102   
     10000         124   5.3872864      0.32315342     0.16198084     0.11981416   
Loop time of 0.445784 on 4 procs for 5000 steps with 124 atoms

Performance: 4845392.710 tau/day, 11216.187 timesteps/s, 1.391 Matom-step/s
91.9% CPU use with 4 MPI tasks x no OpenMP threads

MPI task timing breakdown:
Section |  min time  |  avg time  |  max time  |%varavg| %total
---------------------------------------------------------------
Pair    | 0.0055602  | 0.027642   | 0.049738   |  13.3 |  6.20
Neigh   | 0.0019503  | 0.0071086  | 0.01248    |   6.1 |  1.59
Comm    | 0.079932   | 0.1033     | 0.12685    |   7.3 | 23.17
Output  | 0.20301    | 0.23655    | 0.29367    |   7.6 | 53.06
Modify  | 0.0027733  | 0.0044557  | 0.0062554  |   2.4 |  1.00
Other   |            | 0.06674    |            |       | 14.97

Nlocal:             31 ave          59 max           8 min
Histogram: 2 0 0 0 0 0 0 0 1 1
Nghost:             93 ave         116 max          65 min
Histogram: 1 1 0 0 0 0 0 0 0 2
Neighs:              0 ave           0 max           0 min
Histogram: 4 0 0 0 0 0 0 0 0 0

Total # of neighbors = 0
Ave neighs/atom = 0
Neighbor list builds = 315
Dangerous builds = 0

unfix           1
set             type 1 angmom 0.0 0.0 0.0
Setting atom values ...
  100 settings made for angmom
velocity        tri set 0.0 0.0 0.0
run             5000
Generated 0 of 1 mixed pair_coeff terms from geometric mixing rule
Per MPI rank memory allocation (min/avg/max) = 7.668 | 7.676 | 7.684 Mbytes
   Step        Atoms         Temp           c_1            c_2           Press     
     10000         124   0.2600991      0.32315342     0.16198084     0.010865493  
     10100         124   0.066368441    0.082457761    0.052119661    0.012810958  
     10200         124   0.043791718    0.054407892    0.040135448    0.01421329   
     10300         124   0.03215627     0.039951729    0.032582279    0.0063766704 
     10400         124   0.024946598    0.030994258    0.028164726    0.0075022386 
     10500         124   0.020345894    0.025278231    0.024253294    0.0052528906 
     10600         124   0.017057934    0.021193191    0.02342974     0.0027152398 
     10700         124   0.015303098    0.01901294     0.021967072    0.004009724  
     10800         124   0.013869416    0.017231699    0.020447543    0.00267729   
     10900         124   0.012812504    0.015918566    0.020195709    0.0037070682 
     11000         124   0.011109316    0.013802483    0.019027421    0.0029651035 
     11100         124   0.010555508    0.01311442     0.018842841    0.0024528091 
     11200         124   0.0091984846   0.01142842     0.017574138    0.0030683071 
     11300         124   0.0092548072   0.011498397    0.017944083    0.0026409151 
     11400         124   0.0086075455   0.010694223    0.017334985    0.0024429735 
     11500         124   0.0083745265   0.010404715    0.017561901    0.0029262215 
     11600         124   0.0080686232   0.010024653    0.016509646    0.0030615689 
     11700         124   0.0081129042   0.010079669    0.016489217    0.0023744539 
     11800         124   0.0068881386   0.0085579904   0.01518256     0.0035670457 
     11900         124   0.0069130685   0.0085889639   0.014847125    0.0036864649 
     12000         124   0.0073699745   0.009156635    0.015007401    0.0045903517 
     12100         124   0.0069168114   0.0085936141   0.014343352    0.0032438819 
     12200         124   0.0060302883   0.0074921764   0.013210158    0.0056716439 
     12300         124   0.0064199006   0.0079762402   0.013607262    0.004066038  
     12400         124   0.0071596635   0.0088953395   0.015156285    0.0023279891 
     12500         124   0.0071319507   0.0088609085   0.015057545    0.0035956742 
     12600         124   0.0072181871   0.0089680507   0.01504962     0.0029134997 
     12700         124   0.0080415975   0.0099910757   0.014973077    0.00238964   
     12800         124   0.0079921927   0.0099296939   0.014964056    0.0022992929 
     12900         124   0.0083321687   0.010352088    0.014855151    0.0034538854 
     13000         124   0.0072678897   0.0090298024   0.013776358    0.0032392223 
     13100         124   0.0073129979   0.0090858459   0.014718293    0.0029744766 
     13200         124   0.0073039225   0.0090745703   0.015283352    0.0022191198 
     13300         124   0.0074338849   0.0092360389   0.015689727    0.0025265978 
     13400         124   0.007305154    0.0090761004   0.015780441    0.0020881539 
     13500         124   0.0066980642   0.0083218374   0.014231057    0.0021938851 
     13600         124   0.0061093304   0.0075903802   0.013916559    0.0022806609 
     13700         124   0.0057214532   0.0071084722   0.014081587    0.0032373764 
     13800         124   0.0055436096   0.006887515    0.014673182    0.002679843  
     13900         124   0.0054605578   0.0067843294   0.015211406    0.002484717  
     14000         124   0.0054574854   0.0067805122   0.01525453     0.003657046  
     14100         124   0.004620076    0.0057400944   0.013858951    0.0027131375 
     14200         124   0.0045274415   0.005625003    0.014338987    0.0023449033 
     14300         124   0.0039831527   0.0049487655   0.013708865    0.0036900639 
     14400         124   0.0042596839   0.0052923346   0.014145169    0.0017575368 
     14500         124   0.0037467496   0.0046550526   0.013866228    0.002698453  
     14600         124   0.0035292814   0.0043848647   0.014164727    0.0022397453 
     14700         124   0.0037896184   0.0047083138   0.015158441    0.0020562484 
     14800         124   0.0034442281   0.0042791925   0.014479313    0.0033487756 
     14900         124   0.0034200332   0.0042491321   0.014328033    0.0024676157 
     15000         124   0.0035659302   0.0044303981   0.014702949    0.0020579722 
Loop time of 0.442643 on 4 procs for 5000 steps with 124 atoms

Performance: 4879776.533 tau/day, 11295.779 timesteps/s, 1.401 Matom-step/s
94.5% CPU use with 4 MPI tasks x no OpenMP threads

MPI task timing breakdown:
Section |  min time  |  avg time  |  max time  |%varavg| %total
---------------------------------------------------------------
Pair    | 0.0007349  | 0.020253   | 0.042723   |  13.7 |  4.58
Neigh   | 0.00062418 | 0.0022554  | 0.0040952  |   3.4 |  0.51
Comm    | 0.078399   | 0.098338   | 0.11556    |   5.5 | 22.22
Output  | 0.21268    | 0.24891    | 0.30925    |   8.0 | 56.23
Modify  | 0.0008371  | 0.0024452  | 0.0041685  |   3.2 |  0.55
Other   |            | 0.07044    |            |       | 15.91

Nlocal:             31 ave          56 max           8 min
Histogram: 2 0 0 0 0 0 0 0 0 2
Nghost:             93 ave         116 max          68 min
Histogram: 2 0 0 0 0 0 0 0 0 2
Neighs:              0 ave           0 max           0 min
Histogram: 4 0 0 0 0 0 0 0 0 0

Total # of neighbors = 0
Ave neighs/atom = 0
Neighbor list builds = 91
Dangerous builds = 0

fix             1 tri move rotate 0 0 0 1 1 1 25
run	        5000
Generated 0 of 1 mixed pair_coeff terms from geometric mixing rule
Per MPI rank memory allocation (min/avg/max) = 8.543 | 8.551 | 8.559 Mbytes
   Step        Atoms         Temp           c_1            c_2           Press     
     15000         124   0.0035659302   0.0044303981   0.014702949    0.0020319398 
     15100         124   5.2547243      0.1584551      0.099739172    0.11403116   
     15200         124   5.3122632      0.22994286     0.13610327     0.11322037   
     15300         124   5.3282633      0.24982173     0.14486        0.11613601   
     15400         124   5.3346881      0.25780409     0.14486957     0.11791262   
     15500         124   5.3379535      0.26186111     0.14681199     0.11870362   
     15600         124   5.368676       0.30003139     0.16161158     0.14415601   
     15700         123   5.4131604      0.30368915     0.15962537     0.12580771   
     15800         123   5.4364007      0.33262091     0.17139726     0.12562002   
     15900         123   5.4358172      0.33189449     0.17087496     0.12642534   
     16000         123   5.440143       0.33727974     0.17328583     0.12574551   
     16100         123   5.4429509      0.34077528     0.17328758     0.12986032   
     16200         123   5.4426217      0.34036538     0.17312962     0.12432652   
     16300         123   5.4341441      0.32981165     0.16855742     0.12788533   
     16400         123   5.4584543      0.36007546     0.18255497     0.12733659   
     16500         123   5.4522627      0.35236747     0.17930728     0.12701976   
     16600         123   5.4607991      0.36299451     0.18478073     0.12714712   
     16700         123   5.460591       0.36273541     0.18376821     0.1296781    
     16800         123   5.4671827      0.37094141     0.18752727     0.12952702   
     16900         123   5.4628373      0.36553178     0.18483266     0.12499224   
     17000         123   5.433693       0.32925009     0.16844901     0.12212479   
     17100         123   5.4235194      0.31658509     0.16341879     0.12406182   
     17200         123   5.4457237      0.3442271      0.17889435     0.12191664   
     17300         123   5.4708915      0.37555848     0.19746738     0.12272404   
     17400         122   5.543501       0.41360395     0.21835294     0.12398364   
     17500         122   5.5602158      0.43445435     0.231812       0.11665115   
     17600         122   5.6076214      0.49358922     0.26859449     0.11760782   
     17700         122   5.6748563      0.57745952     0.31395638     0.11868021   
     17800         122   5.6951883      0.60282215     0.33469524     0.12969655   
     17900         122   5.7288789      0.64484857     0.35800757     0.11891998   
     18000         122   5.7246125      0.63952657     0.35569862     0.12930391   
     18100         122   5.6538142      0.55121117     0.31245409     0.11916729   
     18200         122   5.6517961      0.54869378     0.31210151     0.13393219   
     18300         122   5.6163775      0.50451175     0.29090248     0.12429421   
     18400         122   5.5844102      0.464635       0.27226636     0.12083553   
     18500         122   5.5433917      0.41346769     0.25255257     0.12011499   
     18600         122   5.5218794      0.38663269     0.24296411     0.11975017   
     18700         122   5.5181634      0.38199725     0.24253749     0.12294399   
     18800         122   5.5095871      0.37129903     0.23318466     0.12216133   
     18900         122   5.5262262      0.39205497     0.24015502     0.12498969   
     19000         122   5.5033946      0.36357431     0.2227671      0.12580127   
     19100         120   5.5534095      0.31801791     0.20041894     0.11945774   
     19200         120   5.5664072      0.33429918     0.19791465     0.12876284   
     19300         120   5.5878809      0.36119776     0.21208607     0.12275138   
     19400         120   5.5852572      0.35791128     0.20778705     0.13077622   
     19500         120   5.6014616      0.37820946     0.21664025     0.12567822   
     19600         120   5.579515       0.35071844     0.20052972     0.12193933   
     19700         120   5.5969692      0.37258209     0.20684999     0.12476004   
     19800         120   5.5922744      0.36670131     0.19876045     0.12661865   
     19900         120   5.6067037      0.38477589     0.20487589     0.12286679   
     20000         120   5.5975726      0.37333797     0.19829877     0.12185506   
Loop time of 0.488601 on 4 procs for 5000 steps with 120 atoms

Performance: 4420784.049 tau/day, 10233.296 timesteps/s, 1.228 Matom-step/s
94.3% CPU use with 4 MPI tasks x no OpenMP threads

MPI task timing breakdown:
Section |  min time  |  avg time  |  max time  |%varavg| %total
---------------------------------------------------------------
Pair    | 0.0099748  | 0.025314   | 0.043024   |   9.3 |  5.18
Neigh   | 0.004434   | 0.010673   | 0.01972    |   6.2 |  2.18
Comm    | 0.087937   | 0.11215    | 0.13122    |   5.5 | 22.95
Output  | 0.20823    | 0.26114    | 0.32569    |   8.6 | 53.45
Modify  | 0.0032995  | 0.0049531  | 0.0071817  |   2.3 |  1.01
Other   |            | 0.07437    |            |       | 15.22

Nlocal:             30 ave          72 max           6 min
Histogram: 2 0 0 0 1 0 0 0 0 1
Nghost:             90 ave         114 max          48 min
Histogram: 1 0 0 0 0 1 0 0 0 2
Neighs:              0 ave           0 max           0 min
Histogram: 4 0 0 0 0 0 0 0 0 0

Total # of neighbors = 0
Ave neighs/atom = 0
Neighbor list builds = 427
Dangerous builds = 0

unfix           1
set             type 1 angmom 0.0 0.0 0.0
Setting atom values ...
  96 settings made for angmom
velocity        tri set 0.0 0.0 0.0
run             5000
Generated 0 of 1 mixed pair_coeff terms from geometric mixing rule
Per MPI rank memory allocation (min/avg/max) = 7.684 | 7.69 | 7.708 Mbytes
   Step        Atoms         Temp           c_1            c_2           Press     
     20000         120   0.29804292     0.37333797     0.19829877    -0.0075135512 
     20100         120   0.099168548    0.12422165     0.074449075    0.0039430972 
     20200         120   0.079938513    0.10013351     0.064207857    0.0022458891 
     20300         120   0.06246192     0.078241773    0.052472944    0.0065101492 
     20400         120   0.058257795    0.072975553    0.048673472    0.002896923  
     20500         120   0.060372344    0.075624305    0.050156287    0.0089246769 
     20600         120   0.050393197    0.06312411     0.043796133    0.0037074312 
     20700         120   0.042673197    0.053453795    0.038357052    0.010341738  
     20800         120   0.03889639     0.048722847    0.035990013    0.0050270074 
     20900         120   0.026539585    0.033244322    0.026598676    0.0013694876 
     21000         120   0.020009993    0.025065149    0.02205383    -0.00031463213
     21100         120   0.020885106    0.026161344    0.023457063    0.002821486  
     21200         120   0.023766237    0.029770339    0.025317904    0.0066282704 
     21300         120   0.02047574     0.025648559    0.022924676    0.0021277511 
     21400         120   0.015244657    0.019095939    0.018485203    0.0010707898 
     21500         120   0.013018609    0.016307521    0.015768887    0.0017102049 
     21600         120   0.012673417    0.015875123    0.015571044    0.0058134645 
     21700         120   0.014305083    0.017918999    0.01675602     0.0078246333 
     21800         120   0.013411615    0.016799812    0.016128759    0.007214508  
     21900         120   0.012158173    0.015229712    0.014905698    0.0047422646 
     22000         120   0.014525289    0.018194836    0.017727817    0.0082375584 
     22100         120   0.014519845    0.018188016    0.019814956    0.0089682484 
     22200         120   0.011688348    0.014641194    0.017562447    0.0150193    
     22300         120   0.010564281    0.013233152    0.01815956     0.010295581  
     22400         120   0.0077423459   0.009698307    0.016956118    0.012667384  
     22500         120   0.0064641259   0.0080971682   0.016634625    0.0057363657 
     22600         120   0.0065741126   0.008234941    0.014435758    0.0058932661 
     22700         120   0.0071549477   0.0089625135   0.016799409    0.0056861824 
     22800         120   0.0066388472   0.0083160297   0.020335517    0.0086734607 
     22900         120   0.0061395295   0.0076905685   0.020483529    0.0043408404 
     23000         120   0.0064116678   0.0080314575   0.023361948    0.0049207698 
     23100         120   0.0047699609   0.0059750037   0.018067249    0.0019512471 
     23200         120   0.0043178427   0.0054086661   0.018727997    0.0043319523 
     23300         120   0.0039343051   0.0049282348   0.021133326    0.0069703549 
     23400         120   0.0044626388   0.0055900422   0.023353742    0.011253603  
     23500         120   0.0048856942   0.0061199748   0.025899841    0.0079807605 
     23600         120   0.0046133626   0.0057788437   0.025535519    0.0091771276 
     23700         120   0.0046286513   0.0057979947   0.027254627    0.0027804676 
     23800         120   0.0043244746   0.0054169734   0.027333297   -0.00094168356
     23900         120   0.0047059311   0.0058947979   0.028659183    0.0042519026 
     24000         120   0.0042181223   0.0052837532   0.029507901    0.0082379688 
     24100         120   0.0043403821   0.0054368997   0.028943696    0.0030740724 
     24200         120   0.0046064155   0.0057701416   0.030420291    0.01000768   
     24300         120   0.0039828994   0.0049891056   0.030952596    0.0097309766 
     24400         120   0.0034796874   0.0043587664   0.030333719    0.0034153139 
     24500         120   0.0037583886   0.0047078762   0.030631808    0.0068964118 
     24600         120   0.0031919912   0.003998389    0.029248855    0.014913611  
     24700         120   0.0031436105   0.0039377857   0.029822575    0.0030379184 
     24800         120   0.0035246366   0.0044150711   0.031941778    0.0091451719 
     24900         120   0.0035918219   0.0044992295   0.030721352    0.0098059019 
     25000         120   0.0036002288   0.0045097602   0.032271616    0.00099658127
Loop time of 0.466761 on 4 procs for 5000 steps with 120 atoms

Performance: 4627635.214 tau/day, 10712.119 timesteps/s, 1.285 Matom-step/s
93.4% CPU use with 4 MPI tasks x no OpenMP threads

MPI task timing breakdown:
Section |  min time  |  avg time  |  max time  |%varavg| %total
---------------------------------------------------------------
Pair    | 0.00087458 | 0.01968    | 0.050164   |  14.6 |  4.22
Neigh   | 0.00076042 | 0.0041412  | 0.0091509  |   5.4 |  0.89
Comm    | 0.078198   | 0.10888    | 0.12656    |   6.0 | 23.33
Output  | 0.20206    | 0.2554     | 0.32055    |   8.8 | 54.72
Modify  | 0.00098357 | 0.0026153  | 0.0049464  |   3.3 |  0.56
Other   |            | 0.07604    |            |       | 16.29

Nlocal:             30 ave          71 max           5 min
Histogram: 2 0 0 0 1 0 0 0 0 1
Nghost:             90 ave         115 max          49 min
Histogram: 1 0 0 0 0 1 0 0 0 2
Neighs:              0 ave           0 max           0 min
Histogram: 4 0 0 0 0 0 0 0 0 0

Total # of neighbors = 0
Ave neighs/atom = 0
Neighbor list builds = 173
Dangerous builds = 0

Total wall time: 0:00:02
