ITEM: TIMESTEP
0
ITEM: NUMBER OF ATOMS
24
ITEM: BOX BOUNDS ff ff ff
-1.0000000000000000e+01 1.0000000000000000e+01
-1.0000000000000000e+01 1.0000000000000000e+01
-1.0000000000000000e+01 1.0000000000000000e+01
ITEM: ATOMS id type x y z radius
5 2 0 -4 -6 6.32456
15 2 0 -6 -4 6.32456
6 2 -4 0 -6 6.32456
20 2 -6 0 -4 6.32456
1 2 4 0 -6 6.32456
18 2 6 0 -4 6.32456
8 2 0 4 -6 6.32456
13 2 0 6 -4 6.32456
16 2 -4 -6 0 6.32456
24 2 -6 -4 0 6.32456
11 2 4 -6 0 6.32456
22 2 6 -4 0 6.32456
19 2 -6 4 0 6.32456
17 2 6 4 0 6.32456
14 2 -4 6 0 6.32456
9 2 4 6 0 6.32456
12 2 0 -6 4 6.32456
23 2 -6 0 4 6.32456
21 2 6 0 4 6.32456
10 2 0 6 4 6.32456
3 2 0 -4 6 6.32456
4 2 -4 0 6 6.32456
2 2 4 0 6 6.32456
7 2 0 4 6 6.32456
ITEM: TIMESTEP
50
ITEM: NUMBER OF ATOMS
54
ITEM: BOX BOUNDS ff ff ff
-1.0000000000000000e+01 1.0000000000000000e+01
-1.0000000000000000e+01 1.0000000000000000e+01
-1.0000000000000000e+01 1.0000000000000000e+01
ITEM: ATOMS id type x y z radius
5 2 0 -4 -6 6.32456
15 2 0 -6 -4 6.32456
6 2 -4 0 -6 6.32456
20 2 -6 0 -4 6.32456
1 2 4 0 -6 6.32456
18 2 6 0 -4 6.32456
8 2 0 4 -6 6.32456
13 2 0 6 -4 6.32456
16 2 -4 -6 0 6.32456
24 2 -6 -4 0 6.32456
11 2 4 -6 0 6.32456
22 2 6 -4 0 6.32456
19 2 -6 4 0 6.32456
17 2 6 4 0 6.32456
14 2 -4 6 0 6.32456
9 2 4 6 0 6.32456
12 2 0 -6 4 6.32456
23 2 -6 0 4 6.32456
21 2 6 0 4 6.32456
10 2 0 6 4 6.32456
3 2 0 -4 6 6.32456
4 2 -4 0 6 6.32456
2 2 4 0 6 6.32456
7 2 0 4 6 6.32456
25 1 0.958825 -1.01985 1.53323 0.5
26 1 -0.802093 -0.778688 -0.727574 0.5
27 1 -1.58254 -1.68788 1.77845 0.5
28 1 -0.703244 0.581096 -1.55947 0.5
29 1 -1.71869 1.90538 1.94161 0.5
30 1 -1.52883 0.874721 1.93418 0.5
31 1 -0.273921 0.21747 -0.558961 0.5
32 1 0.0715481 -1.49074 -1.02418 0.5
33 1 0.777147 1.50603 -1.12837 0.5
34 1 0.720242 1.10514 1.00461 0.5
35 1 -0.535605 -1.90938 1.13531 0.5
36 1 1.55289 -0.522818 -0.917284 0.5
37 1 -0.917753 -0.669588 1.4871 0.5
38 1 -1.92455 -1.97406 -1.12754 0.5
39 1 1.92945 0.229329 -2.12089 0.5
40 1 1.33065 0.270857 1.83016 0.5
41 1 -1.13538 1.66919 -1.28004 0.5
42 1 -1.77855 -0.083539 1.40307 0.5
43 1 -0.471123 1.83111 1.93601 0.5
44 1 1.68274 1.86711 1.32693 0.5
45 1 -1.50583 -0.4358 -2.59727 0.5
46 1 1.44214 -1.98051 0.361837 0.5
47 1 -0.0916352 -0.112247 1.63129 0.5
48 1 1.70132 -1.83675 -1.6324 0.5
49 1 1.90217 1.71544 -1.2237 0.5
50 1 1.65468 -1.71957 1.78657 0.5
51 1 -1.69782 0.65636 -1.18205 0.5
52 1 -0.546628 0.822648 1.4344 0.5
53 1 -0.76563 0.0600857 0.644637 0.5
54 1 1.72973 -0.457119 0.753419 0.5
ITEM: TIMESTEP
100
ITEM: NUMBER OF ATOMS
54
ITEM: BOX BOUNDS ff ff ff
-1.0000000000000000e+01 1.0000000000000000e+01
-1.0000000000000000e+01 1.0000000000000000e+01
-1.0000000000000000e+01 1.0000000000000000e+01
ITEM: ATOMS id type x y z radius
5 2 0 -4 -6 6.32456
15 2 0 -6 -4 6.32456
6 2 -4 0 -6 6.32456
20 2 -6 0 -4 6.32456
1 2 4 0 -6 6.32456
18 2 6 0 -4 6.32456
8 2 0 4 -6 6.32456
13 2 0 6 -4 6.32456
16 2 -4 -6 0 6.32456
24 2 -6 -4 0 6.32456
11 2 4 -6 0 6.32456
22 2 6 -4 0 6.32456
19 2 -6 4 0 6.32456
17 2 6 4 0 6.32456
14 2 -4 6 0 6.32456
9 2 4 6 0 6.32456
12 2 0 -6 4 6.32456
23 2 -6 0 4 6.32456
21 2 6 0 4 6.32456
10 2 0 6 4 6.32456
3 2 0 -4 6 6.32456
4 2 -4 0 6 6.32456
2 2 4 0 6 6.32456
7 2 0 4 6 6.32456
25 1 0.958825 -1.01985 1.25996 0.5
26 1 -0.802093 -0.778688 -1.34329 0.5
27 1 -1.58254 -1.68788 1.5804 0.5
28 1 -0.703244 0.581096 -2.25833 0.5
29 1 -1.71869 1.90538 1.82476 0.5
30 1 -1.52883 0.874721 1.81202 0.5
31 1 -0.273921 0.21747 -1.15634 0.5
32 1 0.0715481 -1.49074 -1.67083 0.5
33 1 0.777147 1.50603 -1.78552 0.5
34 1 0.720242 1.10514 0.62011 0.5
35 1 -0.535605 -1.90938 0.77479 0.5
36 1 1.55289 -0.522818 -1.55297 0.5
37 1 -0.917753 -0.669588 1.20218 0.5
38 1 -1.92455 -1.97406 -1.78461 0.5
39 1 1.92945 0.229329 -2.87042 0.5
40 1 1.33065 0.270857 1.65284 0.5
41 1 -1.13538 1.66919 -1.95217 0.5
42 1 -1.77855 -0.083539 1.09818 0.5
43 1 -0.471123 1.83111 1.81513 0.5
44 1 1.68274 1.86711 1.00513 0.5
45 1 -1.50583 -0.4358 -3.38716 0.5
46 1 1.44214 -1.98051 -0.12247 0.5
47 1 -0.0916352 -0.112247 1.38491 0.5
48 1 1.70132 -1.83675 -2.33805 0.5
49 1 1.90217 1.71544 -1.89031 0.5
50 1 1.65468 -1.71957 1.59159 0.5
51 1 -1.69782 0.65636 -1.84455 0.5
52 1 -0.546628 0.822648 1.13677 0.5
53 1 -0.76563 0.0600857 0.201248 0.5
54 1 1.72973 -0.457119 0.326897 0.5
ITEM: TIMESTEP
150
ITEM: NUMBER OF ATOMS
54
ITEM: BOX BOUNDS ff ff ff
-1.0000000000000000e+01 1.0000000000000000e+01
-1.0000000000000000e+01 1.0000000000000000e+01
-1.0000000000000000e+01 1.0000000000000000e+01
ITEM: ATOMS id type x y z radius
5 2 0 -4 -6 6.32456
15 2 0 -6 -4 6.32456
6 2 -4 0 -6 6.32456
20 2 -6 0 -4 6.32456
1 2 4 0 -6 6.32456
18 2 6 0 -4 6.32456
8 2 0 4 -6 6.32456
13 2 0 6 -4 6.32456
16 2 -4 -6 0 6.32456
24 2 -6 -4 0 6.32456
11 2 4 -6 0 6.32456
22 2 6 -4 0 6.32456
19 2 -6 4 0 6.32456
17 2 6 4 0 6.32456
14 2 -4 6 0 6.32456
9 2 4 6 0 6.32456
12 2 0 -6 4 6.32456
23 2 -6 0 4 6.32456
21 2 6 0 4 6.32456
10 2 0 6 4 6.32456
3 2 0 -4 6 6.32456
4 2 -4 0 6 6.32456
2 2 4 0 6 6.32456
7 2 0 4 6 6.32456
25 1 0.958825 -1.01985 0.924193 0.5
26 1 -0.802093 -0.778688 -2.02151 0.5
27 1 -1.58254 -1.68788 1.31984 0.5
28 1 -0.703244 0.581096 -3.01968 0.5
29 1 -1.71869 1.90538 1.6454 0.5
30 1 -1.52883 0.874721 1.62736 0.5
31 1 -0.273921 0.21747 -1.81622 0.5
32 1 0.0715481 -1.49074 -2.37998 0.5
33 1 0.777147 1.50603 -2.50517 0.5
34 1 0.720242 1.10514 0.173107 0.5
35 1 -0.535605 -1.90938 0.351767 0.5
36 1 1.55289 -0.522818 -2.25115 0.5
37 1 -0.917753 -0.669588 0.854748 0.5
38 1 -1.92455 -1.97406 -2.50417 0.5
39 1 1.92945 0.229329 -3.68246 0.5
40 1 1.33065 0.270857 1.41302 0.5
41 1 -1.13538 1.66919 -2.6868 0.5
42 1 -1.77855 -0.083539 0.730784 0.5
43 1 -0.471123 1.83111 1.63175 0.5
44 1 1.68274 1.86711 0.620828 0.5
45 1 -1.50583 -0.4358 -4.23955 0.5
46 1 1.44214 -1.98051 -0.669276 0.5
47 1 -0.0916352 -0.112247 1.07603 0.5
48 1 1.70132 -1.83675 -3.1062 0.5
49 1 1.90217 1.71544 -2.61942 0.5
50 1 1.65468 -1.71957 1.33411 0.5
51 1 -1.69782 0.65636 -2.56954 0.5
52 1 -0.546628 0.822648 0.776648 0.5
53 1 -0.76563 0.0600857 -0.304641 0.5
54 1 1.72973 -0.457119 -0.162125 0.5
ITEM: TIMESTEP
200
ITEM: NUMBER OF ATOMS
54
ITEM: BOX BOUNDS ff ff ff
-1.0000000000000000e+01 1.0000000000000000e+01
-1.0000000000000000e+01 1.0000000000000000e+01
-1.0000000000000000e+01 1.0000000000000000e+01
ITEM: ATOMS id type x y z radius
5 2 0 -4 -6 6.32456
15 2 0 -6 -4 6.32456
6 2 -4 0 -6 6.32456
20 2 -6 0 -4 6.32456
1 2 4 0 -6 6.32456
18 2 6 0 -4 6.32456
8 2 0 4 -6 6.32456
13 2 0 6 -4 6.32456
16 2 -4 -6 0 6.32456
24 2 -6 -4 0 6.32456
11 2 4 -6 0 6.32456
22 2 6 -4 0 6.32456
19 2 -6 4 0 6.32456
17 2 6 4 0 6.32456
14 2 -4 6 0 6.32456
9 2 4 6 0 6.32456
12 2 0 -6 4 6.32456
23 2 -6 0 4 6.32456
21 2 6 0 4 6.32456
10 2 0 6 4 6.32456
3 2 0 -4 6 6.32456
4 2 -4 0 6 6.32456
2 2 4 0 6 6.32456
7 2 0 4 6 6.32456
25 1 0.958825 -1.01985 0.525925 0.5
26 1 -0.802093 -0.778688 -2.76222 0.5
27 1 -1.58254 -1.68788 0.996783 0.5
28 1 -0.703244 0.581096 -3.84353 0.5
29 1 -1.71869 1.90538 1.40354 0.5
30 1 -1.52883 0.874721 1.3802 0.5
31 1 -0.273921 0.21747 -2.5386 0.5
32 1 0.0715481 -1.49074 -3.15162 0.5
33 1 0.777147 1.50603 -3.28732 0.5
34 1 0.720242 1.10514 -0.336396 0.5
35 1 -0.535605 -1.90938 -0.133756 0.5
36 1 1.55289 -0.522818 -3.01183 0.5
37 1 -0.917753 -0.669588 0.44482 0.5
38 1 -1.92455 -1.97406 -3.28624 0.5
39 1 1.92945 0.229329 -4.55699 0.5
40 1 1.33065 0.270857 1.1107 0.5
41 1 -1.13538 1.66919 -3.48393 0.5
42 1 -1.77855 -0.083539 0.30089 0.5
43 1 -0.471123 1.83111 1.38587 0.5
44 1 1.68274 1.86711 0.174027 0.5
45 1 -1.50583 -0.4358 -5.15443 0.5
46 1 1.44214 -1.98051 -1.27858 0.5
47 1 -0.0916352 -0.112247 0.704649 0.5
48 1 1.70132 -1.83675 -3.93685 0.5
49 1 1.90217 1.71544 -3.41103 0.5
50 1 1.65468 -1.71957 1.01413 0.5
51 1 -1.69782 0.65636 -3.35704 0.5
52 1 -0.546628 0.822648 0.354022 0.5
53 1 -0.76563 0.0600857 -0.87303 0.5
54 1 1.72973 -0.457119 -0.713647 0.5
ITEM: TIMESTEP
250
ITEM: NUMBER OF ATOMS
54
ITEM: BOX BOUNDS ff ff ff
-1.0000000000000000e+01 1.0000000000000000e+01
-1.0000000000000000e+01 1.0000000000000000e+01
-1.0000000000000000e+01 1.0000000000000000e+01
ITEM: ATOMS id type x y z radius
5 2 0 -4 -6 6.32456
15 2 0 -6 -4 6.32456
6 2 -4 0 -6 6.32456
20 2 -6 0 -4 6.32456
1 2 4 0 -6 6.32456
18 2 6 0 -4 6.32456
8 2 0 4 -6 6.32456
13 2 0 6 -4 6.32456
16 2 -4 -6 0 6.32456
24 2 -6 -4 0 6.32456
11 2 4 -6 0 6.32456
22 2 6 -4 0 6.32456
19 2 -6 4 0 6.32456
17 2 6 4 0 6.32456
14 2 -4 6 0 6.32456
9 2 4 6 0 6.32456
12 2 0 -6 4 6.32456
23 2 -6 0 4 6.32456
21 2 6 0 4 6.32456
10 2 0 6 4 6.32456
3 2 0 -4 6 6.32456
4 2 -4 0 6 6.32456
2 2 4 0 6 6.32456
7 2 0 4 6 6.32456
25 1 0.958825 -1.01985 0.0651584 0.5
26 1 -0.802093 -0.778688 -3.56544 0.5
27 1 -1.58254 -1.68788 0.611225 0.5
28 1 -0.703244 0.581096 -4.72988 0.5
29 1 -1.71869 1.90538 1.09919 0.5
30 1 -1.52883 0.874721 1.07054 0.5
31 1 -0.273921 0.21747 -3.32347 0.5
32 1 0.0715481 -1.49074 -3.98577 0.5
33 1 0.777147 1.50603 -4.13197 0.5
34 1 0.720242 1.10514 -0.9084 0.5
35 1 -0.535605 -1.90938 -0.681779 0.5
36 1 1.55289 -0.522818 -3.83502 0.5
37 1 -0.917753 -0.669588 -0.0276074 0.5
38 1 -1.92455 -1.97406 -4.13081 0.5
39 1 1.92945 0.229329 -5.49403 0.5
40 1 1.33065 0.270857 0.745887 0.5
41 1 -1.13538 1.66919 -4.34356 0.5
42 1 -1.77855 -0.083539 -0.191504 0.5
43 1 -0.471123 1.83111 1.0775 0.5
44 1 1.68274 1.86711 -0.335274 0.5
45 1 -1.50583 -0.4358 -5.47687 0.5
46 1 1.44214 -1.98051 -1.95039 0.5
47 1 -0.0916352 -0.112247 0.270769 0.5
48 1 1.70132 -1.83675 -4.83 0.5
49 1 1.90217 1.71544 -4.26514 0.5
50 1 1.65468 -1.71957 0.631654 0.5
51 1 -1.69782 0.65636 -4.20703 0.5
52 1 -0.546628 0.822648 -0.131103 0.5
53 1 -0.76563 0.0600857 -1.50392 0.5
54 1 1.72973 -0.457119 -1.32767 0.5
ITEM: TIMESTEP
300
ITEM: NUMBER OF ATOMS
54
ITEM: BOX BOUNDS ff ff ff
-1.0000000000000000e+01 1.0000000000000000e+01
-1.0000000000000000e+01 1.0000000000000000e+01
-1.0000000000000000e+01 1.0000000000000000e+01
ITEM: ATOMS id type x y z radius
5 2 0 -4 -6 6.32456
15 2 0 -6 -4 6.32456
6 2 -4 0 -6 6.32456
20 2 -6 0 -4 6.32456
1 2 4 0 -6 6.32456
18 2 6 0 -4 6.32456
8 2 0 4 -6 6.32456
13 2 0 6 -4 6.32456
16 2 -4 -6 0 6.32456
24 2 -6 -4 0 6.32456
11 2 4 -6 0 6.32456
22 2 6 -4 0 6.32456
19 2 -6 4 0 6.32456
17 2 6 4 0 6.32456
14 2 -4 6 0 6.32456
9 2 4 6 0 6.32456
12 2 0 -6 4 6.32456
23 2 -6 0 4 6.32456
21 2 6 0 4 6.32456
10 2 0 6 4 6.32456
3 2 0 -4 6 6.32456
4 2 -4 0 6 6.32456
2 2 4 0 6 6.32456
7 2 0 4 6 6.32456
25 1 0.958825 -1.01985 -0.458109 0.5
26 1 -0.802093 -0.778688 -4.43115 0.5
27 1 -1.58254 -1.68788 0.163168 0.5
28 1 -0.703244 0.581096 -5.49942 0.5
29 1 -1.71869 1.90538 0.732329 0.5
30 1 -1.52883 0.874721 0.698378 0.5
31 1 -0.273921 0.21747 -4.17085 0.5
32 1 0.0715481 -1.49074 -4.88242 0.5
33 1 0.777147 1.50603 -5.03912 0.5
34 1 0.720242 1.10514 -1.5429 0.5
35 1 -0.535605 -1.90938 -1.2923 0.5
36 1 1.55289 -0.522818 -4.7207 0.5
37 1 -0.917753 -0.669588 -0.562535 0.5
38 1 -1.92455 -1.97406 -5.03788 0.5
39 1 1.92945 0.229329 -5.46937 0.5
40 1 1.33065 0.270857 0.318569 0.5
41 1 -1.13538 1.66919 -5.26569 0.5
42 1 -1.77855 -0.083539 -0.746398 0.5
43 1 -0.471123 1.83111 0.706616 0.5
44 1 1.68274 1.86711 -0.907076 0.5
45 1 -1.50583 -0.4358 -5.47419 0.5
46 1 1.44214 -1.98051 -2.68469 0.5
47 1 -0.0916352 -0.112247 -0.22561 0.5
48 1 1.70132 -1.83675 -5.4925 0.5
49 1 1.90217 1.71544 -5.18175 0.5
50 1 1.65468 -1.71957 0.186676 0.5
51 1 -1.69782 0.65636 -5.11952 0.5
52 1 -0.546628 0.822648 -0.678729 0.5
53 1 -0.76563 0.0600857 -2.19731 0.5
54 1 1.72973 -0.457119 -2.00419 0.5
ITEM: TIMESTEP
350
ITEM: NUMBER OF ATOMS
54
ITEM: BOX BOUNDS ff ff ff
-1.0000000000000000e+01 1.0000000000000000e+01
-1.0000000000000000e+01 1.0000000000000000e+01
-1.0000000000000000e+01 1.0000000000000000e+01
ITEM: ATOMS id type x y z radius
5 2 0 -4 -6 6.32456
15 2 0 -6 -4 6.32456
6 2 -4 0 -6 6.32456
20 2 -6 0 -4 6.32456
1 2 4 0 -6 6.32456
18 2 6 0 -4 6.32456
8 2 0 4 -6 6.32456
13 2 0 6 -4 6.32456
16 2 -4 -6 0 6.32456
24 2 -6 -4 0 6.32456
11 2 4 -6 0 6.32456
22 2 6 -4 0 6.32456
19 2 -6 4 0 6.32456
17 2 6 4 0 6.32456
14 2 -4 6 0 6.32456
9 2 4 6 0 6.32456
12 2 0 -6 4 6.32456
23 2 -6 0 4 6.32456
21 2 6 0 4 6.32456
10 2 0 6 4 6.32456
3 2 0 -4 6 6.32456
4 2 -4 0 6 6.32456
2 2 4 0 6 6.32456
7 2 0 4 6 6.32456
25 1 0.958825 -1.01985 -1.04388 0.5
26 1 -0.666808 -0.844604 -5.12468 0.5
27 1 -1.58254 -1.68788 -0.347389 0.5
28 1 -0.72488 0.60855 -5.49569 0.5
29 1 -1.71869 1.90538 0.302973 0.5
30 1 -1.52883 0.874721 0.263718 0.5
31 1 -0.171853 0.130628 -4.75828 0.5
32 1 0.0715481 -1.49074 -5.48959 0.5
33 1 0.777147 1.50603 -5.48161 0.5
34 1 0.720242 1.10514 -2.23991 0.5
35 1 -0.535605 -1.90938 -1.96532 0.5
36 1 1.48273 -0.662958 -5.47181 0.5
37 1 -0.917753 -0.669588 -1.15996 0.5
38 1 -1.92455 -1.97406 -5.48172 0.5
39 1 1.96139 0.293137 -5.49856 0.5
40 1 1.33065 0.270857 -0.171249 0.5
41 1 -1.13538 1.66919 -5.47356 0.5
42 1 -1.77855 -0.083539 -1.36379 0.5
43 1 -0.471123 1.83111 0.273236 0.5
44 1 1.68274 1.86711 -1.54138 0.5
45 1 -1.54584 -0.416302 -5.49297 0.5
46 1 1.44214 -1.98051 -3.4815 0.5
47 1 -0.0916352 -0.112247 -0.78449 0.5
48 1 1.70132 -1.83675 -5.46915 0.5
49 1 1.90217 1.71544 -5.47669 0.5
50 1 1.65468 -1.71957 -0.320802 0.5
51 1 -1.72525 0.660846 -5.49242 0.5
52 1 -0.546628 0.822648 -1.28885 0.5
53 1 -0.76563 0.0600857 -2.9532 0.5
54 1 1.72973 -0.457119 -2.74321 0.5
ITEM: TIMESTEP
400
ITEM: NUMBER OF ATOMS
54
ITEM: BOX BOUNDS ff ff ff
-1.0000000000000000e+01 1.0000000000000000e+01
-1.0000000000000000e+01 1.0000000000000000e+01
-1.0000000000000000e+01 1.0000000000000000e+01
ITEM: ATOMS id type x y z radius
5 2 0 -4 -6 6.32456
15 2 0 -6 -4 6.32456
6 2 -4 0 -6 6.32456
20 2 -6 0 -4 6.32456
1 2 4 0 -6 6.32456
18 2 6 0 -4 6.32456
8 2 0 4 -6 6.32456
13 2 0 6 -4 6.32456
16 2 -4 -6 0 6.32456
24 2 -6 -4 0 6.32456
11 2 4 -6 0 6.32456
22 2 6 -4 0 6.32456
19 2 -6 4 0 6.32456
17 2 6 4 0 6.32456
14 2 -4 6 0 6.32456
9 2 4 6 0 6.32456
12 2 0 -6 4 6.32456
23 2 -6 0 4 6.32456
21 2 6 0 4 6.32456
10 2 0 6 4 6.32456
3 2 0 -4 6 6.32456
4 2 -4 0 6 6.32456
2 2 4 0 6 6.32456
7 2 0 4 6 6.32456
25 1 0.958825 -1.01985 -1.69214 0.5
26 1 -0.545034 -0.846258 -5.43167 0.5
27 1 -1.58254 -1.68788 -0.920447 0.5
28 1 -0.772711 0.662004 -5.50013 0.5
29 1 -1.71869 1.90538 -0.188884 0.5
30 1 -1.52883 0.874721 -0.233441 0.5
31 1 0.0813681 -0.0842917 -4.91742 0.5
32 1 0.155809 -1.55942 -5.50012 0.5
33 1 0.777147 1.50603 -5.47163 0.5
34 1 0.720242 1.10514 -2.99941 0.5
35 1 -0.535605 -1.90938 -2.70085 0.5
36 1 1.38081 -0.866548 -5.50038 0.5
37 1 -0.917753 -0.669588 -1.81989 0.5
38 1 -1.92455 -1.97406 -5.47186 0.5
39 1 1.99209 0.354451 -5.50013 0.5
40 1 1.33065 0.270857 -0.723567 0.5
41 1 -1.13538 1.66919 -5.47863 0.5
42 1 -1.77855 -0.083539 -2.04369 0.5
43 1 -0.471123 1.83111 -0.222643 0.5
44 1 1.68274 1.86711 -2.23818 0.5
45 1 -1.61153 -0.384297 -5.50009 0.5
46 1 1.44214 -1.98051 -4.34081 0.5
47 1 -0.0916352 -0.112247 -1.40587 0.5
48 1 1.70132 -1.83675 -5.50034 0.5
49 1 1.90217 1.71544 -5.47745 0.5
50 1 1.65468 -1.71957 -0.89078 0.5
51 1 -1.78054 0.672502 -5.50013 0.5
52 1 -0.546628 0.822648 -1.96148 0.5
53 1 -0.76563 0.0600857 -3.77159 0.5
54 1 1.72973 -0.457119 -3.54473 0.5
ITEM: TIMESTEP
450
ITEM: NUMBER OF ATOMS
54
ITEM: BOX BOUNDS ff ff ff
-1.0000000000000000e+01 1.0000000000000000e+01
-1.0000000000000000e+01 1.0000000000000000e+01
-1.0000000000000000e+01 1.0000000000000000e+01
ITEM: ATOMS id type x y z radius
5 2 0 -4 -6 6.32456
15 2 0 -6 -4 6.32456
6 2 -4 0 -6 6.32456
20 2 -6 0 -4 6.32456
1 2 4 0 -6 6.32456
18 2 6 0 -4 6.32456
8 2 0 4 -6 6.32456
13 2 0 6 -4 6.32456
16 2 -4 -6 0 6.32456
24 2 -6 -4 0 6.32456
11 2 4 -6 0 6.32456
22 2 6 -4 0 6.32456
19 2 -6 4 0 6.32456
17 2 6 4 0 6.32456
14 2 -4 6 0 6.32456
9 2 4 6 0 6.32456
12 2 0 -6 4 6.32456
23 2 -6 0 4 6.32456
21 2 6 0 4 6.32456
10 2 0 6 4 6.32456
3 2 0 -4 6 6.32456
4 2 -4 0 6 6.32456
2 2 4 0 6 6.32456
7 2 0 4 6 6.32456
25 1 0.958825 -1.01985 -2.40291 0.5
26 1 -0.418726 -0.8376 -5.50103 0.5
27 1 -1.58254 -1.68788 -1.556 0.5
28 1 -0.818801 0.715343 -5.50013 0.5
29 1 -1.71869 1.90538 -0.743241 0.5
30 1 -1.52883 0.874721 -0.793101 0.5
31 1 0.337881 -0.296515 -5.13734 0.5
32 1 0.220426 -1.60968 -5.50013 0.5
33 1 0.777147 1.50603 -5.50013 0.5
34 1 0.720242 1.10514 -3.82141 0.5
35 1 -0.535605 -1.90938 -3.49887 0.5
36 1 1.26881 -0.961151 -5.49832 0.5
37 1 -0.917753 -0.669588 -2.54232 0.5
38 1 -1.92455 -1.97406 -5.50013 0.5
39 1 2.02278 0.415765 -5.50013 0.5
40 1 1.33065 0.270857 -1.33839 0.5
41 1 -1.13538 1.66919 -5.50013 0.5
42 1 -1.77855 -0.083539 -2.78608 0.5
43 1 -0.471123 1.83111 -0.781022 0.5
44 1 1.68274 1.86711 -2.99748 0.5
45 1 -1.6772 -0.352298 -5.50013 0.5
46 1 1.30165 -2.07379 -4.47119 0.5
47 1 -0.0916352 -0.112247 -2.08975 0.5
48 1 1.74922 -1.85097 -5.47485 0.5
49 1 1.90217 1.71544 -5.50013 0.5
50 1 1.65468 -1.71957 -1.52326 0.5
51 1 -1.83028 0.682326 -5.50013 0.5
52 1 -0.546628 0.822648 -2.69661 0.5
53 1 -0.76563 0.0600857 -4.65247 0.5
54 1 1.72973 -0.457119 -4.40876 0.5
ITEM: TIMESTEP
500
ITEM: NUMBER OF ATOMS
54
ITEM: BOX BOUNDS ff ff ff
-1.0000000000000000e+01 1.0000000000000000e+01
-1.0000000000000000e+01 1.0000000000000000e+01
-1.0000000000000000e+01 1.0000000000000000e+01
ITEM: ATOMS id type x y z radius
5 2 0 -4 -6 6.32456
15 2 0 -6 -4 6.32456
6 2 -4 0 -6 6.32456
20 2 -6 0 -4 6.32456
1 2 4 0 -6 6.32456
18 2 6 0 -4 6.32456
8 2 0 4 -6 6.32456
13 2 0 6 -4 6.32456
16 2 -4 -6 0 6.32456
24 2 -6 -4 0 6.32456
11 2 4 -6 0 6.32456
22 2 6 -4 0 6.32456
19 2 -6 4 0 6.32456
17 2 6 4 0 6.32456
14 2 -4 6 0 6.32456
9 2 4 6 0 6.32456
12 2 0 -6 4 6.32456
23 2 -6 0 4 6.32456
21 2 6 0 4 6.32456
10 2 0 6 4 6.32456
3 2 0 -4 6 6.32456
4 2 -4 0 6 6.32456
2 2 4 0 6 6.32456
7 2 0 4 6 6.32456
25 1 0.958825 -1.01985 -3.17618 0.5
26 1 -0.327655 -0.874039 -5.49923 0.5
27 1 -1.58254 -1.68788 -2.25406 0.5
28 1 -0.836301 0.773555 -5.49549 0.5
29 1 -1.71869 1.90538 -1.3601 0.5
30 1 -1.52883 0.874721 -1.41526 0.5
31 1 0.507459 -0.374699 -5.26096 0.5
32 1 0.291891 -1.66906 -5.5001 0.5
33 1 0.779121 1.51994 -5.51444 0.5
34 1 0.716809 1.08096 -4.62759 0.5
35 1 -0.535605 -1.90938 -4.35939 0.5
36 1 1.19174 -1.07683 -5.48992 0.5
37 1 -0.917753 -0.669588 -3.32725 0.5
38 1 -1.92455 -1.97406 -5.50013 0.5
39 1 2.05504 0.48351 -5.5064 0.5
40 1 1.33065 0.270857 -2.0157 0.5
41 1 -1.16919 1.76923 -5.50013 0.5
42 1 -1.77855 -0.083539 -3.59097 0.5
43 1 -0.471123 1.83111 -1.4019 0.5
44 1 1.68274 1.86711 -3.81928 0.5
45 1 -1.74288 -0.3203 -5.50013 0.5
46 1 1.1096 -2.20191 -4.3541 0.5
47 1 -0.0916352 -0.112247 -2.83613 0.5
48 1 1.80665 -1.86692 -5.47654 0.5
49 1 1.90217 1.71544 -5.50013 0.5
50 1 1.65468 -1.71957 -2.21824 0.5
51 1 -1.88002 0.69215 -5.50013 0.5
52 1 -0.546628 0.822648 -3.49423 0.5
53 1 -0.768712 -0.193906 -4.90024 0.5
54 1 1.83747 -0.370608 -5.04437 0.5
ITEM: TIMESTEP
550
ITEM: NUMBER OF ATOMS
54
ITEM: BOX BOUNDS ff ff ff
-1.0000000000000000e+01 1.0000000000000000e+01
-1.0000000000000000e+01 1.0000000000000000e+01
-1.0000000000000000e+01 1.0000000000000000e+01
ITEM: ATOMS id type x y z radius
5 2 0 -4 -6 6.32456
15 2 0 -6 -4 6.32456
6 2 -4 0 -6 6.32456
20 2 -6 0 -4 6.32456
1 2 4 0 -6 6.32456
18 2 6 0 -4 6.32456
8 2 0 4 -6 6.32456
13 2 0 6 -4 6.32456
16 2 -4 -6 0 6.32456
24 2 -6 -4 0 6.32456
11 2 4 -6 0 6.32456
22 2 6 -4 0 6.32456
19 2 -6 4 0 6.32456
17 2 6 4 0 6.32456
14 2 -4 6 0 6.32456
9 2 4 6 0 6.32456
12 2 0 -6 4 6.32456
23 2 -6 0 4 6.32456
21 2 6 0 4 6.32456
10 2 0 6 4 6.32456
3 2 0 -4 6 6.32456
4 2 -4 0 6 6.32456
2 2 4 0 6 6.32456
7 2 0 4 6 6.32456
25 1 0.958825 -1.01985 -4.01194 0.5
26 1 -0.27239 -0.91771 -5.50013 0.5
27 1 -1.58254 -1.68788 -3.01462 0.5
28 1 -0.849799 0.825038 -5.50013 0.5
29 1 -1.71869 1.90538 -2.03945 0.5
30 1 -1.52883 0.874721 -2.09992 0.5
31 1 0.545489 -0.369354 -5.32585 0.5
32 1 0.364994 -1.74933 -5.50006 0.5
33 1 0.790226 1.59817 -5.47517 0.5
34 1 0.677996 0.807524 -4.58251 0.5
35 1 -0.584777 -1.92355 -5.21849 0.5
36 1 1.18141 -1.16532 -5.47933 0.5
37 1 -0.938163 -0.731016 -4.02486 0.5
38 1 -1.92455 -1.97406 -5.50013 0.5
39 1 2.09213 0.577797 -5.50013 0.5
40 1 1.33065 0.270857 -2.75552 0.5
41 1 -1.20029 1.86121 -5.50013 0.5
42 1 -1.77855 -0.083539 -4.45837 0.5
43 1 -0.471123 1.83111 -2.08528 0.5
44 1 1.65989 1.8829 -4.55978 0.5
45 1 -1.80812 -0.289505 -5.49985 0.5
46 1 0.91755 -2.33004 -4.29951 0.5
47 1 -0.0916352 -0.112247 -3.64501 0.5
48 1 1.86575 -1.89833 -5.50013 0.5
49 1 1.91356 1.70757 -5.50819 0.5
50 1 1.65468 -1.71957 -2.97571 0.5
51 1 -1.93017 0.702918 -5.5003 0.5
52 1 -0.546628 0.822648 -4.35436 0.5
53 1 -0.831834 -0.261515 -4.96856 0.5
54 1 2.00981 -0.40063 -5.10898 0.5
ITEM: TIMESTEP
600
ITEM: NUMBER OF ATOMS
88
ITEM: BOX BOUNDS ff ff ff
-1.0000000000000000e+01 1.0000000000000000e+01
-1.0000000000000000e+01 1.0000000000000000e+01
-1.0000000000000000e+01 1.0000000000000000e+01
ITEM: ATOMS id type x y z radius
5 2 0 -4 -6 6.32456
15 2 0 -6 -4 6.32456
6 2 -4 0 -6 6.32456
20 2 -6 0 -4 6.32456
1 2 4 0 -6 6.32456
18 2 6 0 -4 6.32456
8 2 0 4 -6 6.32456
13 2 0 6 -4 6.32456
16 2 -4 -6 0 6.32456
24 2 -6 -4 0 6.32456
11 2 4 -6 0 6.32456
22 2 6 -4 0 6.32456
19 2 -6 4 0 6.32456
17 2 6 4 0 6.32456
14 2 -4 6 0 6.32456
9 2 4 6 0 6.32456
12 2 0 -6 4 6.32456
23 2 -6 0 4 6.32456
21 2 6 0 4 6.32456
10 2 0 6 4 6.32456
3 2 0 -4 6 6.32456
4 2 -4 0 6 6.32456
2 2 4 0 6 6.32456
7 2 0 4 6 6.32456
25 1 0.891285 -0.977041 -4.55808 0.5
26 1 -0.211408 -0.958085 -5.50013 0.5
27 1 -1.58254 -1.68788 -3.83768 0.5
28 1 -0.910284 0.862475 -5.46219 0.5
29 1 -1.71869 1.90538 -2.78131 0.5
30 1 -1.52883 0.874721 -2.84708 0.5
31 1 0.599309 -0.363171 -5.45171 0.5
32 1 0.414841 -1.82226 -5.50013 0.5
33 1 0.801065 1.67453 -5.50047 0.5
34 1 0.644178 0.540659 -4.60419 0.5
35 1 -0.876507 -1.99659 -5.48873 0.5
36 1 1.24747 -1.19698 -5.49727 0.5
37 1 -1.01263 -0.956344 -4.38574 0.5
38 1 -1.92455 -1.97406 -5.50013 0.5
39 1 2.1288 0.670437 -5.50013 0.5
40 1 1.33065 0.270857 -3.55784 0.5
41 1 -1.2302 1.94934 -5.50013 0.5
42 1 -1.7706 0.0616683 -4.378 0.5
43 1 -0.471123 1.83111 -2.83116 0.5
44 1 1.50041 1.99313 -4.41591 0.5
45 1 -1.86314 -0.32822 -5.49455 0.5
46 1 0.7255 -2.45816 -4.30741 0.5
47 1 -0.0922807 -0.125793 -4.50623 0.5
48 1 1.94323 -1.93175 -5.50013 0.5
49 1 1.95936 1.67592 -5.48421 0.5
50 1 1.65468 -1.71957 -3.79569 0.5
51 1 -1.98403 0.718434 -5.50013 0.5
52 1 -0.393254 0.835649 -4.50776 0.5
53 1 -0.878824 -0.133122 -5.40835 0.5
54 1 2.18217 -0.430507 -5.2353 0.5
55 1 1.94426 1.16576 1.19999 0.5
56 1 0.169583 -1.8226 -0.569713 0.5
57 1 1.99414 -0.530639 -0.51751 0.5
58 1 -0.441339 -1.58304 1.86317 0.5
59 1 0.185872 -0.0543865 1.62954 0.5
60 1 1.13043 -0.941106 1.86278 0.5
61 1 -1.78429 -0.613664 1.96315 0.5
62 1 -1.09888 -0.860351 0.316346 0.5
63 1 1.72556 1.48013 -0.946696 0.5
64 1 -1.52615 1.9938 -0.38162 0.5
65 1 1.18693 0.806304 0.472324 0.5
66 1 -0.388149 0.377316 -1.82105 0.5
67 1 1.81687 0.0925185 1.75339 0.5
68 1 0.70768 1.97922 1.0299 0.5
69 1 -0.153322 -0.879272 -0.687741 0.5
70 1 1.57758 -1.56766 0.1378 0.5
71 1 -1.86099 -1.71207 1.87629 0.5
72 1 -0.784149 0.810233 1.62387 0.5
73 1 0.531759 1.28069 -0.895732 0.5
74 1 0.647715 -1.84708 1.45357 0.5
75 1 -1.43594 -1.88933 0.345046 0.5
76 1 0.969891 0.957725 1.85103 0.5
77 1 -1.91909 1.80192 1.62918 0.5
78 1 -1.22376 0.302541 -0.589627 0.5
79 1 1.95597 -1.94183 1.5694 0.5
80 1 0.856723 -1.05246 -0.575115 0.5
81 1 -0.798255 -0.276914 1.79566 0.5
82 1 -0.452074 1.98727 1.66335 0.5
83 1 1.09454 -0.0748367 -0.199844 0.5
84 1 0.118585 1.05 1.09182 0.5
85 1 -0.878611 1.18245 0.221144 0.5
86 1 -1.85967 0.579497 1.7033 0.5
87 1 -0.153969 0.239602 -0.203592 0.5
88 1 -0.0608342 1.55919 -1.83123 0.5
ITEM: TIMESTEP
650
ITEM: NUMBER OF ATOMS
88
ITEM: BOX BOUNDS ff ff ff
-1.0000000000000000e+01 1.0000000000000000e+01
-1.0000000000000000e+01 1.0000000000000000e+01
-1.0000000000000000e+01 1.0000000000000000e+01
ITEM: ATOMS id type x y z radius
5 2 0 -4 -6 6.32456
15 2 0 -6 -4 6.32456
6 2 -4 0 -6 6.32456
20 2 -6 0 -4 6.32456
1 2 4 0 -6 6.32456
18 2 6 0 -4 6.32456
8 2 0 4 -6 6.32456
13 2 0 6 -4 6.32456
16 2 -4 -6 0 6.32456
24 2 -6 -4 0 6.32456
11 2 4 -6 0 6.32456
22 2 6 -4 0 6.32456
19 2 -6 4 0 6.32456
17 2 6 4 0 6.32456
14 2 -4 6 0 6.32456
9 2 4 6 0 6.32456
12 2 0 -6 4 6.32456
23 2 -6 0 4 6.32456
21 2 6 0 4 6.32456
10 2 0 6 4 6.32456
3 2 0 -4 6 6.32456
4 2 -4 0 6 6.32456
2 2 4 0 6 6.32456
7 2 0 4 6 6.32456
25 1 0.699325 -0.854426 -4.48797 0.5
26 1 -0.164167 -1.01473 -5.4997 0.5
27 1 -1.68018 -1.83106 -4.59309 0.5
28 1 -0.979251 0.97165 -5.49151 0.5
29 1 -1.71869 1.90538 -3.58567 0.5
30 1 -1.51652 0.912057 -3.60904 0.5
31 1 0.67472 -0.38626 -5.50027 0.5
32 1 0.464688 -1.89519 -5.50013 0.5
33 1 0.8119 1.75086 -5.50013 0.5
34 1 0.628063 0.454863 -4.90675 0.5
35 1 -1.02858 -2.07216 -5.4508 0.5
36 1 1.292 -1.21756 -5.50012 0.5
37 1 -0.989454 -1.03849 -4.93926 0.5
38 1 -2.05583 -1.97273 -5.50013 0.5
39 1 2.17267 0.710245 -5.50005 0.5
40 1 1.41551 0.202555 -4.26994 0.5
41 1 -1.26011 2.03748 -5.50013 0.5
42 1 -1.77325 0.188565 -4.26123 0.5
43 1 -0.471123 1.83111 -3.63954 0.5
44 1 1.34108 2.10326 -4.33505 0.5
45 1 -1.92021 -0.364538 -5.50013 0.5
46 1 0.533451 -2.58628 -4.37782 0.5
47 1 -0.13573 -0.192571 -4.89061 0.5
48 1 2.03201 -1.96506 -5.51488 0.5
49 1 1.99821 1.69489 -5.50014 0.5
50 1 1.64633 -1.71381 -4.64111 0.5
51 1 -2.03783 0.733697 -5.50013 0.5
52 1 -0.218745 0.908147 -4.49497 0.5
53 1 -0.931843 -0.132123 -5.50023 0.5
54 1 2.35454 -0.460384 -5.42412 0.5
55 1 1.94426 1.16576 0.851963 0.5
56 1 0.169583 -1.8226 -1.1683 0.5
57 1 1.99414 -0.530639 -1.11031 0.5
58 1 -0.441339 -1.58304 1.70071 0.5
59 1 0.185872 -0.0543865 1.38259 0.5
60 1 1.13043 -0.941106 1.70013 0.5
61 1 -1.78429 -0.613664 1.86378 0.5
62 1 -1.09888 -0.860351 -0.174228 0.5
63 1 1.72556 1.48013 -1.58544 0.5
64 1 -1.52615 1.9938 -0.959069 0.5
65 1 1.18693 0.806304 0.00351905 0.5
66 1 -0.388149 0.377316 -2.544 0.5
67 1 1.81687 0.0925185 1.54609 0.5
68 1 0.70768 1.97922 0.649877 0.5
69 1 -0.153322 -0.879272 -1.2992 0.5
70 1 1.57758 -1.56766 -0.37649 0.5
71 1 -1.86099 -1.71207 1.72027 0.5
72 1 -0.784149 0.810233 1.37528 0.5
73 1 0.531759 1.28069 -1.5292 0.5
74 1 0.647715 -1.84708 1.16044 0.5
75 1 -1.43594 -1.88933 -0.141601 0.5
76 1 0.969891 0.957725 1.68288 0.5
77 1 -1.91909 1.80192 1.38213 0.5
78 1 -1.22376 0.302541 -1.19041 0.5
79 1 1.95597 -1.94183 1.30564 0.5
80 1 0.856723 -1.05246 -1.1743 0.5
81 1 -0.798255 -0.276914 1.60412 0.5
82 1 -0.452074 1.98727 1.42646 0.5
83 1 1.09454 -0.0748367 -0.756055 0.5
84 1 0.118585 1.05 0.723086 0.5
85 1 -0.878611 1.18245 -0.282224 0.5
86 1 -1.85967 0.579497 1.47898 0.5
87 1 -0.153969 0.239602 -0.760251 0.5
88 1 -0.0608342 1.55919 -2.5551 0.5
ITEM: TIMESTEP
700
ITEM: NUMBER OF ATOMS
88
ITEM: BOX BOUNDS ff ff ff
-1.0000000000000000e+01 1.0000000000000000e+01
-1.0000000000000000e+01 1.0000000000000000e+01
-1.0000000000000000e+01 1.0000000000000000e+01
ITEM: ATOMS id type x y z radius
5 2 0 -4 -6 6.32456
15 2 0 -6 -4 6.32456
6 2 -4 0 -6 6.32456
20 2 -6 0 -4 6.32456
1 2 4 0 -6 6.32456
18 2 6 0 -4 6.32456
8 2 0 4 -6 6.32456
13 2 0 6 -4 6.32456
16 2 -4 -6 0 6.32456
24 2 -6 -4 0 6.32456
11 2 4 -6 0 6.32456
22 2 6 -4 0 6.32456
19 2 -6 4 0 6.32456
17 2 6 4 0 6.32456
14 2 -4 6 0 6.32456
9 2 4 6 0 6.32456
12 2 0 -6 4 6.32456
23 2 -6 0 4 6.32456
21 2 6 0 4 6.32456
10 2 0 6 4 6.32456
3 2 0 -4 6 6.32456
4 2 -4 0 6 6.32456
2 2 4 0 6 6.32456
7 2 0 4 6 6.32456
25 1 0.514806 -0.736432 -4.47324 0.5
26 1 -0.0727162 -1.05828 -5.50013 0.5
27 1 -1.60493 -1.91793 -4.51572 0.5
28 1 -1.04715 1.03631 -5.50013 0.5
29 1 -1.7263 2.03842 -4.42028 0.5
30 1 -1.41889 1.05202 -4.16429 0.5
31 1 0.738661 -0.439773 -5.49957 0.5
32 1 0.514535 -1.96812 -5.50013 0.5
33 1 0.822736 1.8272 -5.50013 0.5
34 1 0.593368 0.55287 -5.24071 0.5
35 1 -1.1455 -2.14822 -5.46416 0.5
36 1 1.34079 -1.23811 -5.50034 0.5
37 1 -1.15607 -1.12534 -5.27033 0.5
38 1 -2.19911 -2.0154 -5.49701 0.5
39 1 2.21928 0.733599 -5.50013 0.5
40 1 1.57396 0.0753603 -4.91241 0.5
41 1 -1.29002 2.12561 -5.50013 0.5
42 1 -1.85362 0.0797877 -4.50842 0.5
43 1 -0.477533 1.86479 -4.47339 0.5
44 1 1.18175 2.21338 -4.31669 0.5
45 1 -1.97193 -0.4002 -5.50013 0.5
46 1 0.341402 -2.71441 -4.51073 0.5
47 1 -0.166305 -0.18367 -4.95158 0.5
48 1 2.1527 -2.02307 -5.4947 0.5
49 1 2.03649 1.71752 -5.50013 0.5
50 1 1.4403 -1.59237 -4.54801 0.5
51 1 -2.09162 0.74896 -5.50013 0.5
52 1 -0.0413732 0.948581 -4.57675 0.5
53 1 -0.999378 -0.160105 -5.50133 0.5
54 1 2.54208 -0.484199 -5.50013 0.5
55 1 1.94426 1.16576 0.441439 0.5
56 1 0.169583 -1.8226 -1.82939 0.5
57 1 1.99414 -0.530639 -1.76561 0.5
58 1 -0.441339 -1.58304 1.47575 0.5
59 1 0.185872 -0.0543865 1.07314 0.5
60 1 1.13043 -0.941106 1.47499 0.5
61 1 -1.78429 -0.613664 1.70192 0.5
62 1 -1.09888 -0.860351 -0.727303 0.5
63 1 1.72556 1.48013 -2.28668 0.5
64 1 -1.52615 1.9938 -1.59902 0.5
65 1 1.18693 0.806304 -0.527786 0.5
66 1 -0.388149 0.377316 -3.32944 0.5
67 1 1.81687 0.0925185 1.27629 0.5
68 1 0.70768 1.97922 0.207349 0.5
69 1 -0.153322 -0.879272 -1.97316 0.5
70 1 1.57758 -1.56766 -0.953279 0.5
71 1 -1.86099 -1.71207 1.50174 0.5
72 1 -0.784149 0.810233 1.06419 0.5
73 1 0.531759 1.28069 -2.22517 0.5
74 1 0.647715 -1.84708 0.804812 0.5
75 1 -1.43594 -1.88933 -0.690748 0.5
76 1 0.969891 0.957725 1.45224 0.5
77 1 -1.91909 1.80192 1.07257 0.5
78 1 -1.22376 0.302541 -1.85369 0.5
79 1 1.95597 -1.94183 0.979374 0.5
80 1 0.856723 -1.05246 -1.83598 0.5
81 1 -0.798255 -0.276914 1.35009 0.5
82 1 -0.452074 1.98727 1.12708 0.5
83 1 1.09454 -0.0748367 -1.37477 0.5
84 1 0.118585 1.05 0.291856 0.5
85 1 -0.878611 1.18245 -0.848092 0.5
86 1 -1.85967 0.579497 1.19216 0.5
87 1 -0.153969 0.239602 -1.37941 0.5
88 1 -0.0608342 1.55919 -3.34147 0.5
ITEM: TIMESTEP
750
ITEM: NUMBER OF ATOMS
88
ITEM: BOX BOUNDS ff ff ff
-1.0000000000000000e+01 1.0000000000000000e+01
-1.0000000000000000e+01 1.0000000000000000e+01
-1.0000000000000000e+01 1.0000000000000000e+01
ITEM: ATOMS id type x y z radius
5 2 0 -4 -6 6.32456
15 2 0 -6 -4 6.32456
6 2 -4 0 -6 6.32456
20 2 -6 0 -4 6.32456
1 2 4 0 -6 6.32456
18 2 6 0 -4 6.32456
8 2 0 4 -6 6.32456
13 2 0 6 -4 6.32456
16 2 -4 -6 0 6.32456
24 2 -6 -4 0 6.32456
11 2 4 -6 0 6.32456
22 2 6 -4 0 6.32456
19 2 -6 4 0 6.32456
17 2 6 4 0 6.32456
14 2 -4 6 0 6.32456
9 2 4 6 0 6.32456
12 2 0 -6 4 6.32456
23 2 -6 0 4 6.32456
21 2 6 0 4 6.32456