 Start File for LAMMPS   1298.88171

 2000 atoms

 2 atom types

 -0.5  35.5400009 xlo xhi
 -0.5  35.5400009 ylo yhi
 -0.5  35.5400009 zlo zhi

 Masses

 1  22.9899998
 2  35.4500008

 Atoms

 1 1  10.8120003  32.4360008  7.20800018
 2 2  30.6340008  23.4260006  5.40600014
 3 2  27.0300007  23.4260006  16.2180004
 4 2  30.6340008  30.6340008  9.01000023
 5 1  21.6240005  7.20800018  7.20800018
 6 2  1.80200005  5.40600014  12.6140003
 7 1  25.2280006  3.60400009  14.4160004
 8 1  0.  0.  18.0200005
 9 2  27.0300007  30.6340008  34.237999
 10 2  23.4260006  1.80200005  16.2180004
 11 2  23.4260006  1.80200005  5.40600014
 12 1  18.0200005  21.6240005  3.60400009
 13 2  30.6340008  34.237999  19.8220005
 14 2  23.4260006  12.6140003  5.40600014
 15 1  14.4160004  7.20800018  14.4160004
 16 2  19.8220005  19.8220005  30.6340008
 17 1  32.4360008  10.8120003  25.2280006
 18 2  1.80200005  34.237999  19.8220005
 19 2  5.40600014  30.6340008  23.4260006
 20 1  32.4360008  32.4360008  3.60400009
 21 1  32.4360008  3.60400009  25.2280006
 22 2  34.237999  34.237999  34.237999
 23 2  30.6340008  30.6340008  19.8220005
 24 1  28.8320007  21.6240005  0.
 25 2  30.6340008  12.6140003  27.0300007
 26 1  10.8120003  10.8120003  28.8320007
 27 1  18.0200005  7.20800018  7.20800018
 28 2  5.40600014  27.0300007  5.40600014
 29 2  23.4260006  34.237999  5.40600014
 30 1  3.60400009  3.60400009  21.6240005
 31 2  1.80200005  34.237999  23.4260006
 32 2  34.237999  5.40600014  30.6340008
 33 1  14.4160004  28.8320007  18.0200005
 34 2  12.6140003  9.01000023  34.237999
 35 2  23.4260006  1.80200005  34.237999
 36 2  5.40600014  1.80200005  1.80200005
 37 1  7.20800018  3.60400009  14.4160004
 38 2  34.237999  30.6340008  12.6140003
 39 1  0.  18.0200005  32.4360008
 40 1  25.2280006  7.20800018  10.8120003
 41 1  28.8320007  28.8320007  3.60400009
 42 1  0.  25.2280006  10.8120003
 43 1  14.4160004  14.4160004  14.4160004
 44 1  25.2280006  25.2280006  28.8320007
 45 1  14.4160004  28.8320007  32.4360008
 46 2  23.4260006  1.80200005  1.80200005
 47 1  25.2280006  21.6240005  18.0200005
 48 2  9.01000023  27.0300007  30.6340008
 49 2  1.80200005  12.6140003  1.80200005
 50 1  18.0200005  21.6240005  10.8120003
 51 2  1.80200005  9.01000023  30.6340008
 52 1  7.20800018  0.  32.4360008
 53 1  18.0200005  3.60400009  7.20800018
 54 1  32.4360008  21.6240005  18.0200005
 55 2  9.01000023  9.01000023  34.237999
 56 2  19.8220005  30.6340008  9.01000023
 57 1  32.4360008  7.20800018  32.4360008
 58 1  28.8320007  0.  14.4160004
 59 2  12.6140003  23.4260006  19.8220005
 60 2  12.6140003  30.6340008  34.237999
 61 1  7.20800018  28.8320007  21.6240005
 62 1  0.  28.8320007  14.4160004
 63 2  16.2180004  12.6140003  30.6340008
 64 2  23.4260006  12.6140003  27.0300007
 65 1  18.0200005  25.2280006  28.8320007
 66 1  25.2280006  32.4360008  21.6240005
 67 2  16.2180004  19.8220005  1.80200005
 68 1  10.8120003  7.20800018  0.
 69 2  30.6340008  1.80200005  34.237999
 70 1  32.4360008  18.0200005  0.
 71 2  12.6140003  34.237999  34.237999
 72 2  16.2180004  12.6140003  34.237999
 73 2  34.237999  27.0300007  30.6340008
 74 1  18.0200005  14.4160004  3.60400009
 75 2  9.01000023  30.6340008  30.6340008
 76 1  32.4360008  32.4360008  32.4360008
 77 2  1.80200005  30.6340008  9.01000023
 78 2  19.8220005  23.4260006  30.6340008
 79 2  5.40600014  5.40600014  5.40600014
 80 1  32.4360008  32.4360008  18.0200005
 81 2  5.40600014  9.01000023  19.8220005
 82 1  0.  10.8120003  18.0200005
 83 1  28.8320007  25.2280006  3.60400009
 84 2  16.2180004  9.01000023  27.0300007
 85 1  3.60400009  0.  25.2280006
 86 2  34.237999  12.6140003  19.8220005
 87 1  18.0200005  25.2280006  7.20800018
 88 1  10.8120003  0.  0.
 89 1  0.  7.20800018  21.6240005
 90 2  9.01000023  27.0300007  23.4260006
 91 1  7.20800018  0.  28.8320007
 92 2  23.4260006  5.40600014  1.80200005
 93 1  28.8320007  25.2280006  25.2280006
 94 1  0.  18.0200005  14.4160004
 95 2  27.0300007  30.6340008  12.6140003
 96 2  12.6140003  19.8220005  16.2180004
 97 1  21.6240005  25.2280006  10.8120003
 98 1  7.20800018  21.6240005  25.2280006
 99 2  9.01000023  34.237999  23.4260006
 100 2  19.8220005  12.6140003  30.6340008
 101 2  16.2180004  1.80200005  5.40600014
 102 2  34.237999  9.01000023  1.80200005
 103 1  25.2280006  14.4160004  14.4160004
 104 1  3.60400009  18.0200005  32.4360008
 105 2  1.80200005  27.0300007  1.80200005
 106 2  1.80200005  1.80200005  34.237999
 107 1  3.60400009  10.8120003  10.8120003
 108 2  9.01000023  5.40600014  30.6340008
 109 2  23.4260006  27.0300007  23.4260006
 110 2  19.8220005  12.6140003  23.4260006
 111 2  16.2180004  19.8220005  16.2180004
 112 1  25.2280006  3.60400009  18.0200005
 113 2  9.01000023  5.40600014  34.237999
 114 2  19.8220005  1.80200005  1.80200005
 115 1  25.2280006  3.60400009  28.8320007
 116 1  21.6240005  14.4160004  32.4360008
 117 2  23.4260006  34.237999  34.237999
 118 1  32.4360008  0.  7.20800018
 119 2  34.237999  5.40600014  27.0300007
 120 2  1.80200005  5.40600014  34.237999
 121 2  5.40600014  5.40600014  27.0300007
 122 2  27.0300007  16.2180004  12.6140003
 123 2  1.80200005  19.8220005  9.01000023
 124 2  30.6340008  9.01000023  30.6340008
 125 2  16.2180004  27.0300007  9.01000023
 126 1  0.  7.20800018  10.8120003
 127 1  3.60400009  7.20800018  32.4360008
 128 2  1.80200005  27.0300007  12.6140003
 129 1  25.2280006  21.6240005  10.8120003
 130 2  27.0300007  12.6140003  19.8220005
 131 2  5.40600014  12.6140003  30.6340008
 132 1  25.2280006  18.0200005  14.4160004
 133 1  32.4360008  32.4360008  21.6240005
 134 1  28.8320007  28.8320007  21.6240005
 135 1  0.  28.8320007  32.4360008
 136 1  28.8320007  25.2280006  21.6240005
 137 1  3.60400009  21.6240005  14.4160004
 138 2  16.2180004  27.0300007  27.0300007
 139 1  32.4360008  25.2280006  14.4160004
 140 2  16.2180004  12.6140003  19.8220005
 141 1  7.20800018  25.2280006  0.
 142 2  19.8220005  1.80200005  16.2180004
 143 2  27.0300007  34.237999  34.237999
 144 1  14.4160004  10.8120003  10.8120003
 145 2  12.6140003  5.40600014  12.6140003
 146 1  32.4360008  21.6240005  32.4360008
 147 1  18.0200005  21.6240005  0.
 148 2  30.6340008  23.4260006  27.0300007
 149 2  9.01000023  34.237999  16.2180004
 150 2  30.6340008  27.0300007  9.01000023
 151 2  9.01000023  23.4260006  5.40600014
 152 2  27.0300007  12.6140003  27.0300007
 153 1  7.20800018  3.60400009  0.
 154 1  7.20800018  3.60400009  3.60400009
 155 2  30.6340008  34.237999  27.0300007
 156 1  0.  14.4160004  28.8320007
 157 1  0.  21.6240005  28.8320007
 158 2  34.237999  34.237999  5.40600014
 159 1  14.4160004  25.2280006  7.20800018
 160 1  25.2280006  32.4360008  0.
 161 1  28.8320007  18.0200005  25.2280006
 162 2  9.01000023  1.80200005  16.2180004
 163 1  32.4360008  28.8320007  7.20800018
 164 2  34.237999  27.0300007  27.0300007
 165 1  18.0200005  32.4360008  0.
 166 2  30.6340008  19.8220005  27.0300007
 167 2  16.2180004  12.6140003  1.80200005
 168 2  19.8220005  34.237999  30.6340008
 169 2  9.01000023  19.8220005  34.237999
 170 2  34.237999  16.2180004  27.0300007
 171 2  30.6340008  5.40600014  34.237999
 172 2  23.4260006  19.8220005  23.4260006
 173 1  28.8320007  21.6240005  3.60400009
 174 2  16.2180004  27.0300007  12.6140003
 175 1  3.60400009  14.4160004  18.0200005
 176 1  3.60400009  18.0200005  7.20800018
 177 2  16.2180004  1.80200005  19.8220005
 178 1  14.4160004  10.8120003  32.4360008
 179 1  14.4160004  0.  18.0200005
 180 2  1.80200005  30.6340008  19.8220005
 181 1  28.8320007  28.8320007  18.0200005
 182 1  28.8320007  10.8120003  32.4360008
 183 1  21.6240005  0.  14.4160004
 184 1  14.4160004  18.0200005  25.2280006
 185 2  12.6140003  1.80200005  19.8220005
 186 1  21.6240005  28.8320007  7.20800018
 187 1  25.2280006  14.4160004  3.60400009
 188 1  7.20800018  21.6240005  18.0200005
 189 1  21.6240005  21.6240005  7.20800018
 190 2  34.237999  19.8220005  34.237999
 191 1  28.8320007  3.60400009  10.8120003
 192 1  18.0200005  3.60400009  3.60400009
 193 1  32.4360008  18.0200005  7.20800018
 194 1  21.6240005  25.2280006  14.4160004
 195 1  28.8320007  7.20800018  18.0200005
 196 2  5.40600014  34.237999  19.8220005
 197 1  3.60400009  28.8320007  10.8120003
 198 1  28.8320007  7.20800018  14.4160004
 199 1  25.2280006  25.2280006  10.8120003
 200 1  10.8120003  3.60400009  21.6240005
 201 1  10.8120003  18.0200005  7.20800018
 202 1  14.4160004  3.60400009  18.0200005
 203 1  21.6240005  21.6240005  14.4160004
 204 2  30.6340008  27.0300007  16.2180004
 205 2  16.2180004  19.8220005  23.4260006
 206 2  16.2180004  16.2180004  5.40600014
 207 1  14.4160004  28.8320007  25.2280006
 208 2  30.6340008  27.0300007  1.80200005
 209 2  16.2180004  34.237999  34.237999
 210 2  34.237999  1.80200005  30.6340008
 211 1  7.20800018  14.4160004  28.8320007
 212 1  10.8120003  0.  14.4160004
 213 1  14.4160004  28.8320007  3.60400009
 214 2  30.6340008  5.40600014  1.80200005
 215 2  34.237999  16.2180004  30.6340008
 216 2  5.40600014  27.0300007  19.8220005
 217 1  10.8120003  32.4360008  32.4360008
 218 2  5.40600014  16.2180004  34.237999
 219 2  19.8220005  30.6340008  19.8220005
 220 1  14.4160004  28.8320007  14.4160004
 221 2  9.01000023  19.8220005  19.8220005
 222 2  34.237999  9.01000023  27.0300007
 223 2  5.40600014  19.8220005  30.6340008
 224 1  7.20800018  7.20800018  32.4360008
 225 2  1.80200005  16.2180004  23.4260006
 226 1  3.60400009  14.4160004  14.4160004
 227 1  21.6240005  25.2280006  3.60400009
 228 1  14.4160004  3.60400009  10.8120003
 229 2  27.0300007  27.0300007  27.0300007
 230 2  27.0300007  34.237999  16.2180004
 231 1  3.60400009  7.20800018  3.60400009
 232 2  1.80200005  12.6140003  12.6140003
 233 2  16.2180004  16.2180004  16.2180004
 234 1  28.8320007  28.8320007  7.20800018
 235 2  19.8220005  1.80200005  19.8220005
 236 1  0.  32.4360008  14.4160004
 237 1  0.  18.0200005  10.8120003
 238 2  16.2180004  5.40600014  1.80200005
 239 1  28.8320007  7.20800018  32.4360008
 240 2  19.8220005  34.237999  1.80200005
 241 2  19.8220005  34.237999  19.8220005
 242 2  12.6140003  27.0300007  19.8220005
 243 1  0.  32.4360008  10.8120003
 244 2  19.8220005  9.01000023  9.01000023
 245 1  0.  25.2280006  21.6240005
 246 1  25.2280006  25.2280006  21.6240005
 247 2  9.01000023  34.237999  9.01000023
 248 2  30.6340008  34.237999  16.2180004
 249 2  16.2180004  34.237999  9.01000023
 250 2  23.4260006  9.01000023  1.80200005
 251 1  14.4160004  7.20800018  28.8320007
 252 1  25.2280006  0.  10.8120003
 253 2  30.6340008  16.2180004  30.6340008
 254 2  30.6340008  34.237999  23.4260006
 255 2  19.8220005  1.80200005  5.40600014
 256 2  34.237999  16.2180004  34.237999
 257 2  5.40600014  16.2180004  1.80200005
 258 2  23.4260006  5.40600014  9.01000023
 259 1  18.0200005  3.60400009  14.4160004
 260 2  23.4260006  12.6140003  12.6140003
 261 2  12.6140003  27.0300007  1.80200005
 262 1  25.2280006  21.6240005  0.
 263 2  16.2180004  23.4260006  9.01000023
 264 2  27.0300007  19.8220005  12.6140003
 265 1  18.0200005  14.4160004  0.
 266 2  12.6140003  19.8220005  9.01000023
 267 1  10.8120003  18.0200005  0.
 268 1  10.8120003  3.60400009  7.20800018
 269 1  21.6240005  14.4160004  21.6240005
 270 2  12.6140003  27.0300007  34.237999
 271 2  5.40600014  27.0300007  16.2180004
 272 2  12.6140003  1.80200005  30.6340008
 273 2  23.4260006  30.6340008  27.0300007
 274 1  28.8320007  14.4160004  7.20800018
 275 2  34.237999  12.6140003  23.4260006
 276 1  25.2280006  14.4160004  7.20800018
 277 2  23.4260006  23.4260006  30.6340008
 278 2  27.0300007  16.2180004  27.0300007
 279 1  21.6240005  10.8120003  21.6240005
 280 1  21.6240005  3.60400009  10.8120003
 281 1  18.0200005  28.8320007  21.6240005
 282 1  0.  28.8320007  28.8320007
 283 2  9.01000023  27.0300007  12.6140003
 284 1  32.4360008  7.20800018  0.
 285 1  14.4160004  14.4160004  7.20800018
 286 2  30.6340008  23.4260006  19.8220005
 287 2  30.6340008  16.2180004  23.4260006
 288 2  23.4260006  23.4260006  27.0300007
 289 2  9.01000023  12.6140003  19.8220005
 290 2  1.80200005  27.0300007  34.237999
 291 1  10.8120003  18.0200005  28.8320007
 292 1  28.8320007  14.4160004  28.8320007
 293 1  32.4360008  21.6240005  14.4160004
 294 2  27.0300007  12.6140003  5.40600014
 295 1  28.8320007  0.  18.0200005
 296 1  14.4160004  25.2280006  10.8120003
 297 2  23.4260006  12.6140003  16.2180004
 298 2  30.6340008  9.01000023  9.01000023
 299 2  5.40600014  34.237999  16.2180004
 300 1  18.0200005  10.8120003  3.60400009
 301 2  9.01000023  12.6140003  34.237999
 302 2  12.6140003  16.2180004  30.6340008
 303 2  19.8220005  5.40600014  27.0300007
 304 2  1.80200005  9.01000023  27.0300007
 305 2  27.0300007  30.6340008  5.40600014
 306 1  10.8120003  3.60400009  14.4160004
 307 2  27.0300007  27.0300007  34.237999
 308 2  34.237999  23.4260006  5.40600014
 309 2  9.01000023  23.4260006  12.6140003
 310 1  25.2280006  3.60400009  25.2280006
 311 2  34.237999  30.6340008  1.80200005
 312 2  12.6140003  12.6140003  5.40600014
 313 2  23.4260006  27.0300007  34.237999
 314 1  18.0200005  18.0200005  18.0200005
 315 1  3.60400009  3.60400009  25.2280006
 316 2  5.40600014  12.6140003  34.237999
 317 2  1.80200005  12.6140003  16.2180004
 318 2  30.6340008  12.6140003  16.2180004
 319 1  3.60400009  28.8320007  32.4360008
 320 2  12.6140003  30.6340008  19.8220005
 321 2  12.6140003  9.01000023  30.6340008
 322 1  18.0200005  14.4160004  28.8320007
 323 1  7.20800018  0.  0.
 324 1  0.  25.2280006  3.60400009
 325 1  18.0200005  18.0200005  28.8320007
 326 1  25.2280006  0.  3.60400009
 327 1  3.60400009  18.0200005  3.60400009
 328 2  5.40600014  34.237999  5.40600014
 329 1  25.2280006  7.20800018  28.8320007
 330 1  7.20800018  32.4360008  3.60400009
 331 1  0.  14.4160004  0.
 332 1  25.2280006  14.4160004  32.4360008
 333 2  30.6340008  12.6140003  12.6140003
 334 2  12.6140003  5.40600014  30.6340008
 335 2  30.6340008  23.4260006  9.01000023
 336 1  25.2280006  14.4160004  18.0200005
 337 2  30.6340008  27.0300007  19.8220005
 338 2  27.0300007  30.6340008  9.01000023
 339 2  23.4260006  9.01000023  19.8220005
 340 2  5.40600014  27.0300007  34.237999
 341 1  28.8320007  18.0200005  10.8120003
 342 2  23.4260006  30.6340008  16.2180004
 343 2  12.6140003  9.01000023  12.6140003
 344 1  0.  18.0200005  7.20800018
 345 1  25.2280006  25.2280006  3.60400009
 346 2  1.80200005  9.01000023  19.8220005
 347 1  32.4360008  18.0200005  28.8320007
 348 2  12.6140003  19.8220005  30.6340008
 349 2  23.4260006  12.6140003  1.80200005
 350 2  30.6340008  1.80200005  9.01000023
 351 1  18.0200005  10.8120003  14.4160004
 352 2  5.40600014  1.80200005  16.2180004
 353 2  16.2180004  9.01000023  5.40600014
 354 1  0.  3.60400009  32.4360008
 355 1  0.  14.4160004  25.2280006
 356 2  9.01000023  30.6340008  34.237999
 357 1  3.60400009  18.0200005  10.8120003
 358 2  23.4260006  23.4260006  34.237999
 359 2  16.2180004  34.237999  16.2180004
 360 2  34.237999  5.40600014  1.80200005
 361 2  30.6340008  9.01000023  5.40600014
 362 1  25.2280006  18.0200005  21.6240005
 363 1  28.8320007  25.2280006  32.4360008
 364 1  32.4360008  21.6240005  25.2280006
 365 1  14.4160004  7.20800018  21.6240005
 366 2  9.01000023  30.6340008  27.0300007
 367 1  7.20800018  0.  14.4160004
 368 1  14.4160004  21.6240005  18.0200005
 369 2  34.237999  27.0300007  1.80200005
 370 2  9.01000023  19.8220005  9.01000023
 371 2  16.2180004  23.4260006  23.4260006
 372 1  10.8120003  32.4360008  28.8320007
 373 1  14.4160004  18.0200005  0.
 374 1  21.6240005  18.0200005  18.0200005
 375 1  21.6240005  21.6240005  25.2280006
 376 1  25.2280006  21.6240005  21.6240005
 377 2  30.6340008  23.4260006  30.6340008
 378 2  16.2180004  34.237999  12.6140003
 379 2  30.6340008  1.80200005  12.6140003
 380 2  19.8220005  27.0300007  30.6340008
 381 1  7.20800018  7.20800018  7.20800018
 382 2  27.0300007  27.0300007  5.40600014
 383 1  28.8320007  25.2280006  18.0200005
 384 1  28.8320007  7.20800018  7.20800018
 385 2  19.8220005  5.40600014  19.8220005
 386 2  16.2180004  30.6340008  19.8220005
 387 2  30.6340008  30.6340008  34.237999
 388 1  18.0200005  0.  25.2280006
 389 2  27.0300007  16.2180004  23.4260006
 390 1  21.6240005  10.8120003  32.4360008
 391 1  28.8320007  10.8120003  21.6240005
 392 1  21.6240005  7.20800018  32.4360008
 393 1  32.4360008  3.60400009  10.8120003
 394 2  9.01000023  9.01000023  30.6340008
 395 2  27.0300007  9.01000023  19.8220005
 396 2  5.40600014  30.6340008  27.0300007
 397 2  1.80200005  9.01000023  1.80200005
 398 2  9.01000023  19.8220005  23.4260006
 399 1  18.0200005  14.4160004  32.4360008
 400 1  3.60400009  28.8320007  7.20800018
 401 1  0.  21.6240005  14.4160004
 402 1  25.2280006  7.20800018  3.60400009
 403 2  12.6140003  5.40600014  5.40600014
 404 2  23.4260006  5.40600014  30.6340008
 405 1  0.  14.4160004  21.6240005
 406 2  23.4260006  9.01000023  16.2180004
 407 1  0.  3.60400009  7.20800018
 408 2  16.2180004  30.6340008  27.0300007
 409 1  32.4360008  21.6240005  0.
 410 2  34.237999  23.4260006  12.6140003
 411 1  21.6240005  14.4160004  28.8320007
 412 2  27.0300007  34.237999  23.4260006
 413 1  28.8320007  3.60400009  18.0200005
 414 2  27.0300007  12.6140003  34.237999
 415 2  9.01000023  9.01000023  5.40600014
 416 1  18.0200005  14.4160004  7.20800018
 417 2  23.4260006  5.40600014  5.40600014
 418 1  32.4360008  18.0200005  10.8120003
 419 2  27.0300007  12.6140003  9.01000023
 420 2  27.0300007  9.01000023  23.4260006
 421 2  12.6140003  16.2180004  1.80200005
 422 2  23.4260006  1.80200005  30.6340008
 423 1  3.60400009  28.8320007  3.60400009
 424 2  12.6140003  16.2180004  23.4260006
 425 1  0.  3.60400009  0.
 426 2  23.4260006  34.237999  23.4260006
 427 1  18.0200005  21.6240005  28.8320007
 428 2  16.2180004  1.80200005  16.2180004
 429 2  23.4260006  5.40600014  19.8220005
 430 2  9.01000023  9.01000023  16.2180004
 431 1  28.8320007  32.4360008  3.60400009
 432 2  34.237999  1.80200005  9.01000023
 433 1  3.60400009  18.0200005  25.2280006
 434 1  3.60400009  28.8320007  28.8320007
 435 2  5.40600014  19.8220005  16.2180004
 436 1  28.8320007  10.8120003  10.8120003
 437 2  23.4260006  12.6140003  30.6340008
 438 1  18.0200005  32.4360008  3.60400009
 439 2  12.6140003  19.8220005  12.6140003
 440 1  7.20800018  0.  18.0200005
 441 1  0.  18.0200005  25.2280006
 442 1  14.4160004  10.8120003  3.60400009
 443 2  16.2180004  34.237999  1.80200005
 444 1  0.  3.60400009  25.2280006
 445 2  16.2180004  1.80200005  34.237999
 446 2  27.0300007  1.80200005  30.6340008
 447 2  19.8220005  23.4260006  19.8220005
 448 1  7.20800018  21.6240005  3.60400009
 449 2  27.0300007  1.80200005  12.6140003
 450 1  14.4160004  7.20800018  10.8120003
 451 2  19.8220005  27.0300007  27.0300007
 452 1  32.4360008  14.4160004  14.4160004
 453 1  32.4360008  10.8120003  10.8120003
 454 1  18.0200005  25.2280006  18.0200005
 455 2  19.8220005  9.01000023  19.8220005
 456 1  0.  21.6240005  25.2280006
 457 2  5.40600014  1.80200005  5.40600014
 458 1  3.60400009  21.6240005  18.0200005
 459 2  16.2180004  5.40600014  5.40600014
 460 2  23.4260006  9.01000023  23.4260006
 461 1  7.20800018  0.  21.6240005
 462 2  5.40600014  34.237999  12.6140003
 463 2  9.01000023  12.6140003  27.0300007
 464 2  23.4260006  9.01000023  9.01000023
 465 1  7.20800018  18.0200005  0.
 466 2  23.4260006  19.8220005  30.6340008
 467 1  32.4360008  32.4360008  28.8320007
 468 1  0.  18.0200005  21.6240005
 469 2  9.01000023  12.6140003  5.40600014
 470 2  19.8220005  23.4260006  1.80200005
 471 1  21.6240005  32.4360008  28.8320007
 472 1  32.4360008  7.20800018  14.4160004
 473 2  5.40600014  16.2180004  30.6340008
 474 1  28.8320007  32.4360008  28.8320007
 475 1  10.8120003  10.8120003  18.0200005
 476 1  7.20800018  10.8120003  10.8120003
 477 1  0.  0.  21.6240005
 478 2  23.4260006  27.0300007  27.0300007
 479 2  34.237999  1.80200005  34.237999
 480 2  34.237999  30.6340008  5.40600014
 481 2  27.0300007  34.237999  27.0300007
 482 2  30.6340008  34.237999  9.01000023
 483 2  16.2180004  5.40600014  34.237999
 484 1  3.60400009  21.6240005  10.8120003
 485 1  18.0200005  7.20800018  28.8320007
 486 2  19.8220005  16.2180004  16.2180004
 487 1  28.8320007  21.6240005  25.2280006
 488 1  25.2280006  28.8320007  7.20800018
 489 1  3.60400009  32.4360008  18.0200005
 490 1  21.6240005  10.8120003  18.0200005
 491 1  7.20800018  18.0200005  21.6240005
 492 2  30.6340008  16.2180004  12.6140003
 493 1  25.2280006  32.4360008  32.4360008
 494 2  5.40600014  23.4260006  5.40600014
 495 2  19.8220005  30.6340008  5.40600014
 496 2  12.6140003  12.6140003  34.237999
 497 1  10.8120003  14.4160004  14.4160004
 498 2  5.40600014  9.01000023  23.4260006
 499 1  28.8320007  14.4160004  0.
 500 2  9.01000023  27.0300007  16.2180004
 501 1  28.8320007  7.20800018  10.8120003
 502 1  18.0200005  7.20800018  32.4360008
 503 1  0.  14.4160004  14.4160004
 504 2  23.4260006  16.2180004  19.8220005
 505 1  7.20800018  14.4160004  7.20800018
 506 2  12.6140003  23.4260006  30.6340008
 507 2  5.40600014  27.0300007  30.6340008
 508 1  14.4160004  18.0200005  10.8120003
 509 1  18.0200005  32.4360008  28.8320007
 510 2  23.4260006  16.2180004  27.0300007
 511 1  7.20800018  18.0200005  7.20800018
 512 2  23.4260006  34.237999  30.6340008
 513 2  30.6340008  34.237999  5.40600014
 514 2  12.6140003  23.4260006  1.80200005
 515 2  9.01000023  23.4260006  19.8220005
 516 2  12.6140003  30.6340008  5.40600014
 517 1  3.60400009  7.20800018  10.8120003
 518 1  18.0200005  3.60400009  10.8120003
 519 1  7.20800018  3.60400009  7.20800018
 520 2  19.8220005  1.80200005  9.01000023
 521 2  9.01000023  34.237999  1.80200005
 522 2  5.40600014  1.80200005  9.01000023
 523 2  1.80200005  34.237999  34.237999
 524 1  0.  21.6240005  10.8120003
 525 2  12.6140003  34.237999  16.2180004
 526 2  5.40600014  12.6140003  1.80200005
 527 2  34.237999  9.01000023  16.2180004
 528 2  1.80200005  19.8220005  27.0300007
 529 1  14.4160004  10.8120003  28.8320007
 530 1  18.0200005  32.4360008  18.0200005
 531 1  21.6240005  28.8320007  25.2280006
 532 1  14.4160004  32.4360008  7.20800018
 533 1  14.4160004  3.60400009  28.8320007
 534 2  16.2180004  34.237999  27.0300007
 535 2  12.6140003  30.6340008  16.2180004
 536 1  10.8120003  21.6240005  10.8120003
 537 2  12.6140003  12.6140003  23.4260006
 538 2  30.6340008  12.6140003  30.6340008
 539 1  0.  7.20800018  14.4160004
 540 1  21.6240005  25.2280006  7.20800018
 541 2  5.40600014  34.237999  9.01000023
 542 2  23.4260006  5.40600014  23.4260006
 543 1  18.0200005  32.4360008  21.6240005
 544 2  16.2180004  5.40600014  23.4260006
 545 2  34.237999  30.6340008  23.4260006
 546 1  28.8320007  7.20800018  28.8320007
 547 2  5.40600014  1.80200005  27.0300007
 548 1  21.6240005  0.  3.60400009
 549 2  27.0300007  5.40600014  19.8220005
 550 2  16.2180004  30.6340008  5.40600014
 551 2  19.8220005  19.8220005  27.0300007
 552 1  7.20800018  7.20800018  3.60400009
 553 1  10.8120003  28.8320007  14.4160004
 554 2  19.8220005  27.0300007  9.01000023
 555 2  34.237999  16.2180004  16.2180004
 556 1  7.20800018  28.8320007  3.60400009
 557 2  34.237999  34.237999  1.80200005
 558 2  1.80200005  34.237999  30.6340008
 559 1  7.20800018  21.6240005  28.8320007
 560 1  25.2280006  25.2280006  14.4160004
 561 1  18.0200005  10.8120003  7.20800018
 562 1  0.  21.6240005  18.0200005
 563 1  18.0200005  10.8120003  0.
 564 2  27.0300007  5.40600014  1.80200005
 565 1  0.  3.60400009  14.4160004
 566 1  14.4160004  21.6240005  25.2280006
 567 1  25.2280006  10.8120003  0.
 568 2  1.80200005  30.6340008  5.40600014
 569 1  14.4160004  10.8120003  0.
 570 1  10.8120003  0.  21.6240005
 571 1  28.8320007  21.6240005  10.8120003
 572 1  28.8320007  28.8320007  28.8320007
 573 2  27.0300007  30.6340008  19.8220005
 574 2  19.8220005  30.6340008  16.2180004
 575 1  32.4360008  10.8120003  32.4360008
 576 2  5.40600014  12.6140003  19.8220005
 577 1  0.  28.8320007  0.
 578 1  7.20800018  32.4360008  28.8320007
 579 1  32.4360008  18.0200005  3.60400009
 580 2  30.6340008  9.01000023  1.80200005
 581 2  12.6140003  1.80200005  34.237999
 582 1  14.4160004  18.0200005  3.60400009
 583 1  28.8320007  32.4360008  32.4360008
 584 1  32.4360008  14.4160004  0.
 585 2  16.2180004  27.0300007  23.4260006
 586 1  0.  14.4160004  10.8120003
 587 1  25.2280006  28.8320007  18.0200005
 588 1  18.0200005  0.  0.
 589 1  18.0200005  28.8320007  7.20800018
 590 2  1.80200005  23.4260006  27.0300007
 591 1  21.6240005  3.60400009  7.20800018
 592 1  14.4160004  32.4360008  21.6240005
 593 1  21.6240005  7.20800018  21.6240005
 594 2  19.8220005  12.6140003  9.01000023
 595 1  10.8120003  25.2280006  14.4160004
 596 1  32.4360008  7.20800018  28.8320007
 597 2  23.4260006  1.80200005  27.0300007
 598 2  16.2180004  12.6140003  12.6140003
 599 1  0.  25.2280006  14.4160004
 600 2  30.6340008  1.80200005  1.80200005
 601 2  19.8220005  9.01000023  12.6140003
 602 1  25.2280006  25.2280006  7.20800018
 603 2  27.0300007  1.80200005  34.237999
 604 2  5.40600014  1.80200005  30.6340008
 605 1  10.8120003  28.8320007  0.
 606 2  19.8220005  19.8220005  9.01000023
 607 2  9.01000023  30.6340008  19.8220005
 608 1  28.8320007  18.0200005  7.20800018
 609 1  3.60400009  25.2280006  7.20800018
 610 2  27.0300007  23.4260006  27.0300007
 611 1  25.2280006  32.4360008  10.8120003
 612 2  1.80200005  12.6140003  27.0300007
 613 1  32.4360008  0.  3.60400009
 614 2  16.2180004  5.40600014  30.6340008
 615 1  7.20800018  14.4160004  14.4160004
 616 2  23.4260006  23.4260006  1.80200005
 617 1  18.0200005  25.2280006  0.
 618 1  18.0200005  0.  32.4360008
 619 2  23.4260006  12.6140003  9.01000023
 620 1  25.2280006  3.60400009  32.4360008
 621 2  5.40600014  27.0300007  23.4260006
 622 2  1.80200005  12.6140003  19.8220005
 623 1  32.4360008  18.0200005  14.4160004
 624 1  7.20800018  3.60400009  10.8120003
 625 1  25.2280006  7.20800018  0.
 626 2  1.80200005  1.80200005  5.40600014
 627 1  7.20800018  3.60400009  21.6240005
 628 1  3.60400009  14.4160004  28.8320007
 629 2  5.40600014  34.237999  34.237999
 630 1  14.4160004  0.  14.4160004
 631 2  16.2180004  5.40600014  19.8220005
 632 1  18.0200005  3.60400009  32.4360008
 633 1  21.6240005  3.60400009  28.8320007
 634 2  9.01000023  16.2180004  16.2180004
 635 1  18.0200005  18.0200005  10.8120003
 636 2  12.6140003  9.01000023  27.0300007
 637 1  32.4360008  25.2280006  7.20800018
 638 2  19.8220005  9.01000023  1.80200005
 639 2  23.4260006  9.01000023  30.6340008
 640 1  18.0200005  25.2280006  10.8120003
 641 1  7.20800018  21.6240005  21.6240005
 642 2  9.01000023  12.6140003  23.4260006
 643 1  21.6240005  14.4160004  0.
 644 1  7.20800018  18.0200005  25.2280006
 645 1  14.4160004  32.4360008  25.2280006
 646 1  10.8120003  28.8320007  32.4360008
 647 2  19.8220005  30.6340008  34.237999
 648 1  10.8120003  25.2280006  32.4360008
 649 2  23.4260006  23.4260006  16.2180004
 650 1  32.4360008  25.2280006  25.2280006
 651 1  14.4160004  25.2280006  21.6240005
 652 1  32.4360008  10.8120003  21.6240005
 653 2  27.0300007  27.0300007  1.80200005
 654 2  1.80200005  1.80200005  19.8220005
 655 2  12.6140003  1.80200005  1.80200005
 656 2  34.237999  12.6140003  12.6140003
 657 1  28.8320007  3.60400009  3.60400009
 658 1  14.4160004  25.2280006  3.60400009
 659 1  0.  21.6240005  7.20800018
 660 2  12.6140003  23.4260006  23.4260006
 661 1  25.2280006  32.4360008  3.60400009
 662 2  12.6140003  27.0300007  5.40600014
 663 1  25.2280006  18.0200005  25.2280006
 664 2  9.01000023  12.6140003  30.6340008
 665 2  27.0300007  5.40600014  5.40600014
 666 2  27.0300007  5.40600014  9.01000023
 667 2  12.6140003  34.237999  23.4260006
 668 2  19.8220005  16.2180004  23.4260006
 669 2  19.8220005  23.4260006  27.0300007
 670 2  16.2180004  30.6340008  34.237999
 671 2  34.237999  27.0300007  9.01000023
 672 1  7.20800018  32.4360008  10.8120003
 673 1  10.8120003  21.6240005  0.
 674 1  25.2280006  0.  18.0200005
 675 1  14.4160004  28.8320007  10.8120003
 676 2  16.2180004  27.0300007  19.8220005
 677 1  0.  32.4360008  3.60400009
 678 2  12.6140003  19.8220005  23.4260006
 679 1  32.4360008  10.8120003  3.60400009
 680 2  1.80200005  34.237999  27.0300007
 681 1  25.2280006  18.0200005  18.0200005
 682 2  16.2180004  16.2180004  19.8220005
 683 2  12.6140003  5.40600014  34.237999
 684 2  5.40600014  19.8220005  19.8220005
 685 1  10.8120003  21.6240005  14.4160004
 686 1  32.4360008  25.2280006  10.8120003
 687 2  23.4260006  16.2180004  16.2180004
 688 2  23.4260006  19.8220005  9.01000023
 689 1  32.4360008  0.  18.0200005
 690 2  34.237999  12.6140003  34.237999
 691 2  34.237999  1.80200005  19.8220005
 692 1  18.0200005  28.8320007  18.0200005
 693 1  10.8120003  28.8320007  28.8320007
 694 1  10.8120003  14.4160004  7.20800018
 695 1  3.60400009  0.  18.0200005
 696 2  34.237999  19.8220005  27.0300007
 697 1  28.8320007  0.  10.8120003
 698 1  3.60400009  28.8320007  0.
 699 1  7.20800018  14.4160004  0.
 700 2  27.0300007  23.4260006  19.8220005
 701 1  3.60400009  21.6240005  0.
 702 2  16.2180004  19.8220005  27.0300007
 703 1  10.8120003  3.60400009  18.0200005
 704 1  0.  3.60400009  10.8120003
 705 1  14.4160004  18.0200005  14.4160004
 706 1  3.60400009  25.2280006  10.8120003
 707 1  10.8120003  7.20800018  25.2280006
 708 1  21.6240005  32.4360008  21.6240005
 709 2  23.4260006  30.6340008  12.6140003
 710 1  10.8120003  7.20800018  21.6240005
 711 1  7.20800018  25.2280006  21.6240005
 712 2  30.6340008  5.40600014  23.4260006
 713 2  30.6340008  19.8220005  9.01000023
 714 2  34.237999  5.40600014  23.4260006
 715 1  3.60400009  21.6240005  7.20800018
 716 2  12.6140003  27.0300007  12.6140003
 717 1  32.4360008  18.0200005  21.6240005