LAMMPS data file via write_data, version 27 Nov 2018, timestep = 10000

108 atoms
2 atom types
72 bonds
1 bond types
36 angles
1 angle types

0.0000000000000000e+00 1.0000000000000000e+01 xlo xhi
0.0000000000000000e+00 1.0000000000000000e+01 ylo yhi
0.0000000000000000e+00 1.0000000000000000e+01 zlo zhi

Masses

1 15.9994
2 1

Pair Coeffs # lj/cut/coul/long

1 0.15535 3.166
2 0 0

Bond Coeffs # harmonic

1 1000 1

Angle Coeffs # harmonic

1 100 109.47

Atoms # full

1 1 1 -8.4719999999999995e-01 3.2639196700589630e+00 8.0314753001191637e+00 8.1748635099985396e+00 0 0 0
2 1 2 4.2359999999999998e-01 3.2247016198565719e+00 7.4144554136508640e+00 7.3888930914356576e+00 0 0 0
3 1 2 4.2359999999999998e-01 3.9702026180244192e+00 7.7181436922741726e+00 8.8096774160772693e+00 0 0 0
4 2 1 -8.4719999999999995e-01 2.3334927813109796e+00 2.2098898906353708e+00 7.2347279781157994e+00 0 0 0
5 2 2 4.2359999999999998e-01 1.7837418576418427e+00 1.9105631572248549e+00 8.0145852825356467e+00 0 0 0
6 2 2 4.2359999999999998e-01 2.6741305089034211e+00 1.4100912534503589e+00 6.7404729164254862e+00 0 0 0
7 3 1 -8.4719999999999995e-01 3.4589305412749032e+00 6.9374718936509785e+00 1.7905058760215895e+00 -1 0 0
8 3 2 4.2359999999999998e-01 2.6608079782385090e+00 7.4690732111815610e+00 1.5069556419690366e+00 -1 0 0
9 3 2 4.2359999999999998e-01 3.6819119035117245e+00 7.1524115132061317e+00 2.7413375801000726e+00 -1 0 0
10 4 1 -8.4719999999999995e-01 6.3811702589357155e+00 8.1174399381673332e+00 1.8974214437797601e+00 0 0 0
11 4 2 4.2359999999999998e-01 6.0785316710325219e+00 7.2215059289166019e+00 1.5722874555843018e+00 0 0 0
12 4 2 4.2359999999999998e-01 5.6686013934508210e+00 8.5221994092040845e+00 2.4704968063440629e+00 0 0 0
13 5 1 -8.4719999999999995e-01 6.2737232962393312e+00 5.2182277286479977e+00 1.6676554831657691e+00 -1 0 1
14 5 2 4.2359999999999998e-01 7.2397700945184571e+00 5.2012073466281015e+00 1.4098496641149194e+00 -1 0 1
15 5 2 4.2359999999999998e-01 6.1587049766772006e+00 4.7788298549958128e+00 2.5585540681860008e+00 -1 0 1
16 6 1 -8.4719999999999995e-01 2.4738878965017677e-01 1.7803757183397322e+00 4.0255242489152741e+00 1 0 1
17 6 2 4.2359999999999998e-01 1.0503898544397949e+00 2.1938584917752499e+00 3.5963137247519117e+00 1 0 1
18 6 2 4.2359999999999998e-01 9.9099028151407467e+00 1.0341062895981590e+00 3.4517767311372332e+00 0 0 1
19 7 1 -8.4719999999999995e-01 6.0993953921430251e+00 9.0849275144750976e+00 6.5514788435712976e+00 -1 0 0
20 7 2 4.2359999999999998e-01 6.6949798665683229e+00 8.4116314554364635e+00 6.1133560477726743e+00 -1 0 0
21 7 2 4.2359999999999998e-01 6.6003094141163423e+00 9.5467660124583986e+00 7.2834558294098208e+00 -1 0 0
22 8 1 -8.4719999999999995e-01 4.6574123879205709e-01 6.1659063858256076e+00 9.5248379965921401e+00 1 0 0
23 8 2 4.2359999999999998e-01 1.3466362927115170e+00 5.7004951692884385e+00 9.6109601503235638e+00 1 0 0
24 8 2 4.2359999999999998e-01 5.4315047777248260e-01 6.9047091600749573e+00 8.8553766611000118e+00 1 0 0
25 9 1 -8.4719999999999995e-01 5.4996312160520722e+00 1.8925150048733363e+00 2.4192692138933120e-01 0 0 0
26 9 2 4.2359999999999998e-01 4.8795554072712140e+00 1.2856431158021451e+00 7.3913209779889566e-01 0 0 0
27 9 2 4.2359999999999998e-01 5.2850933483379796e+00 2.8434820807563908e+00 4.6471768833896671e-01 0 0 0
28 10 1 -8.4719999999999995e-01 1.0161071135544204e+00 8.9391776392168207e+00 5.1087804231229610e+00 1 -1 1
29 10 2 4.2359999999999998e-01 4.6810912601011989e-01 9.7038787497240566e+00 5.4477945357521236e+00 1 -1 1
30 10 2 4.2359999999999998e-01 1.6129815067471542e+00 9.2575339193345325e+00 4.3723084625343356e+00 1 -1 1
31 11 1 -8.4719999999999995e-01 7.3676962422943637e-02 4.0517450141504039e+00 7.1101161367153614e+00 0 0 0
32 11 2 4.2359999999999998e-01 3.3187007810187974e-01 4.3894783517144402e+00 8.0152532124665452e+00 0 0 0
33 11 2 4.2359999999999998e-01 7.6244785303638463e-01 3.4024132046625413e+00 6.7876817465691470e+00 0 0 0
34 12 1 -8.4719999999999995e-01 6.0625865984861287e+00 4.9094373720451596e+00 4.4325102834894334e+00 -1 0 1
35 12 2 4.2359999999999998e-01 5.3155095700789747e+00 4.7671794606928959e+00 5.0818475010280606e+00 -1 0 1
36 12 2 4.2359999999999998e-01 6.8501849398082006e+00 4.3563683430178752e+00 4.7041802065092542e+00 -1 0 1
37 13 1 -8.4719999999999995e-01 3.5922070975312015e+00 9.9308046996075365e+00 6.2334302945093372e+00 0 0 0
38 13 2 4.2359999999999998e-01 4.5282394262564329e+00 9.6620368026152104e+00 6.4606026853654246e+00 0 0 0
39 13 2 4.2359999999999998e-01 2.9650205820216682e+00 9.1900272408023724e+00 6.4740249592485020e+00 0 0 0
40 14 1 -8.4719999999999995e-01 1.3606892683733069e+00 4.7601217705631091e+00 2.7904696178030983e+00 0 0 1
41 14 2 4.2359999999999998e-01 5.3753828394387271e-01 5.0016358400736793e+00 2.2765694600345170e+00 0 0 1
42 14 2 4.2359999999999998e-01 1.3100561995804625e+00 5.1572852548607013e+00 3.7068197046789093e+00 0 0 1
43 15 1 -8.4719999999999995e-01 6.6690906249578026e+00 4.9524184525588426e+00 7.7069227506687268e+00 -1 0 0
44 15 2 4.2359999999999998e-01 7.1558775791302667e+00 5.7751843240126961e+00 7.4135033318925396e+00 -1 0 0
45 15 2 4.2359999999999998e-01 5.8481422094508453e+00 5.2140232457250946e+00 8.2144737002513200e+00 -1 0 0
64 22 1 -8.4719999999999995e-01 9.5925794403945126e+00 8.6160450457103526e+00 8.2829216428516244e+00 -1 -1 0
65 22 2 4.2359999999999998e-01 8.6562634391470681e+00 8.2652514577097413e+00 8.2989408790097592e+00 -1 -1 0
66 22 2 4.2359999999999998e-01 9.5869808143389239e+00 9.5670380400922106e+00 7.9737588206254166e+00 -1 -1 0
49 17 1 -8.4719999999999995e-01 4.3175740391272885e+00 8.1779454689760911e+00 4.1334309259106705e+00 0 0 0
50 17 2 4.2359999999999998e-01 3.9672996804280305e+00 8.9814280477055881e+00 4.6148083135083029e+00 0 0 0
51 17 2 4.2359999999999998e-01 4.3493162832062993e+00 7.4005663286202052e+00 4.7616625212162198e+00 0 0 0
52 18 1 -8.4719999999999995e-01 7.2816510836949959e+00 2.1795229189137819e+00 8.3607466161989059e+00 0 1 1
53 18 2 4.2359999999999998e-01 7.1940608664770194e+00 2.9369005071554266e+00 7.7136707791481429e+00 0 1 1
54 18 2 4.2359999999999998e-01 6.5108852739967302e+00 2.1944767442812054e+00 8.9976896822593844e+00 0 1 1
55 19 1 -8.4719999999999995e-01 9.0470680976634448e+00 4.8466848985188111e+00 1.4892882616616132e+00 -1 0 1
56 19 2 4.2359999999999998e-01 8.8993243357393705e+00 3.8640388391983516e+00 1.3771313408685817e+00 -1 0 1
57 19 2 4.2359999999999998e-01 9.5123662145915713e+00 5.2081473630557031e+00 6.8130024747652373e-01 -1 0 1
58 20 1 -8.4719999999999995e-01 4.3644072627455639e+00 1.3996931615810597e+00 2.9738582857414317e+00 0 1 0
59 20 2 4.2359999999999998e-01 5.0674776102360859e+00 1.3962048054177414e+00 3.6849700164523842e+00 0 1 0
60 20 2 4.2359999999999998e-01 4.2717192733582872e+00 2.3230641990619718e+00 2.6013064222469957e+00 0 1 0
67 23 1 -8.4719999999999995e-01 8.4448327667707428e+00 3.5588039394289921e+00 5.1391243013199626e+00 -1 0 0
68 23 2 4.2359999999999998e-01 8.9329029903169008e+00 3.8009495810742147e+00 5.9776664507949011e+00 -1 0 0
69 23 2 4.2359999999999998e-01 9.0875818506273465e+00 3.1675114343196831e+00 4.4805168289477750e+00 -1 0 0
70 24 1 -8.4719999999999995e-01 6.6147328761056379e+00 9.2802281790908161e+00 9.4845685203666950e+00 0 0 0
71 24 2 4.2359999999999998e-01 6.6366075097855317e+00 8.7244028247170107e+00 3.1558027497445768e-01 0 0 1
72 24 2 4.2359999999999998e-01 6.2845925388004149e+00 1.9784105466979157e-01 9.7059146955078202e+00 0 1 0
73 25 1 -8.4719999999999995e-01 8.3363626259077304e+00 1.9690696267312311e+00 9.5414102314590099e-01 0 0 1
74 25 2 4.2359999999999998e-01 7.3912955471430140e+00 1.7614919273192295e+00 7.0163350257441837e-01 0 0 1
75 25 2 4.2359999999999998e-01 8.6990708880266414e+00 1.2311373914360617e+00 1.5232624542920827e+00 0 0 1
76 26 1 -8.4719999999999995e-01 1.4959488204228695e+00 8.6455597515786025e+00 2.4821528443441027e-01 1 0 1
77 26 2 4.2359999999999998e-01 6.3713173108984156e-01 8.6641066084161693e+00 9.7362687501082625e+00 1 0 0
78 26 2 4.2359999999999998e-01 2.2590013915905423e+00 8.5179477021648484e+00 9.6146018762860539e+00 1 0 0
79 27 1 -8.4719999999999995e-01 3.6824073618644424e+00 6.0149610563272384e+00 5.9630018710617589e+00 0 0 1
80 27 2 4.2359999999999998e-01 2.7411461353735067e+00 6.0943685872994129e+00 5.6347922096542202e+00 0 0 1
81 27 2 4.2359999999999998e-01 3.9481313882368414e+00 5.0511255918778000e+00 5.9832990240308828e+00 0 0 1
82 28 1 -8.4719999999999995e-01 6.6322779475893494e+00 1.3955175179756336e+00 4.5038542697770430e+00 0 1 0
83 28 2 4.2359999999999998e-01 6.3047975710242117e+00 7.4503983490762893e-01 5.1891541561863033e+00 0 1 0
84 28 2 4.2359999999999998e-01 7.2618250975126886e+00 2.0431696949352456e+00 4.9330601705328725e+00 0 1 0
85 29 1 -8.4719999999999995e-01 2.1739334180730099e+00 4.2144126449714570e+00 9.9356567440033885e+00 0 0 0
86 29 2 4.2359999999999998e-01 2.2018984916435667e+00 4.4729879506495847e+00 9.0124346424973967e-01 0 0 1
87 29 2 4.2359999999999998e-01 1.7349067079882516e+00 3.3207817501122361e+00 9.8424863186751157e+00 0 0 0
88 30 1 -8.4719999999999995e-01 3.9309659784443518e+00 3.8870723646339433e+00 2.3863791155772800e+00 0 0 1
89 30 2 4.2359999999999998e-01 3.0831442802287490e+00 4.2285060493996545e+00 2.7921147735647702e+00 0 0 1
90 30 2 4.2359999999999998e-01 4.5599342546939621e+00 4.6500391624275466e+00 2.2371123633015881e+00 0 0 1
91 31 1 -8.4719999999999995e-01 3.7630007267328378e+00 3.3417081008163598e+00 5.4010249305917126e+00 0 0 1
92 31 2 4.2359999999999998e-01 3.3582020628681422e+00 2.9863946086352557e+00 6.2435748520134036e+00 0 0 1
93 31 2 4.2359999999999998e-01 3.9466220269418599e+00 2.5844214815020439e+00 4.7742872574377824e+00 0 0 1
94 32 1 -8.4719999999999995e-01 7.5581278085306893e+00 7.1370963298601406e+00 5.5480656754005837e+00 0 1 0
95 32 2 4.2359999999999998e-01 6.9829280148697066e+00 6.4914584183011970e+00 5.0457731912097330e+00 0 1 0
96 32 2 4.2359999999999998e-01 8.4359029800893826e+00 7.2360155867652187e+00 5.0793164141145244e+00 0 1 0
97 33 1 -8.4719999999999995e-01 8.3624690524371257e+00 9.9583787117654374e+00 2.8825321332275764e+00 0 0 1
98 33 2 4.2359999999999998e-01 7.8068657687322407e+00 5.4954827460730160e-01 3.4671888475735071e+00 0 1 1
99 33 2 4.2359999999999998e-01 7.7767012351201048e+00 9.2750508656661346e+00 2.4467121528181894e+00 0 0 1
100 34 1 -8.4719999999999995e-01 9.2020736382087875e+00 9.3500151144012156e-01 6.4694076215582275e+00 -1 1 1
101 34 2 4.2359999999999998e-01 8.6909243436497494e+00 1.6760794505303571e+00 6.9047581783082421e+00 -1 1 1
102 34 2 4.2359999999999998e-01 9.6930388581009499e+00 1.2909761412954821e+00 5.6742749613546399e+00 -1 1 1
103 35 1 -8.4719999999999995e-01 9.5315673107284560e-01 5.8942459812362538e+00 5.0613806822978571e+00 0 0 0
104 35 2 4.2359999999999998e-01 6.3103686315287999e-01 6.8390659171311681e+00 5.0017611081267974e+00 0 0 0
105 35 2 4.2359999999999998e-01 3.5073530925029350e-01 5.3742949808681306e+00 5.6669710800815469e+00 0 0 0
106 36 1 -8.4719999999999995e-01 2.1006777392451723e+00 9.9743615480062200e+00 2.6433133998937395e+00 0 0 0
107 36 2 4.2359999999999998e-01 1.8499228873599176e+00 9.6044591835280535e+00 1.7487214632935135e+00 0 0 0
108 36 2 4.2359999999999998e-01 3.0013009373973056e+00 4.0508184331222596e-01 2.5853576791178785e+00 0 1 0
114 38 2 4.2359999999999998e-01 5.0703209486486092e+00 5.4914143829065516e+00 1.7611312750310240e-01 0 0 1
113 38 2 4.2359999999999998e-01 3.6042994906164054e+00 5.0884939454819200e+00 9.5802411777968768e+00 0 0 0
112 38 1 -8.4719999999999995e-01 4.5078093901095180e+00 5.4501874284805103e+00 9.3503518334685687e+00 0 0 0
115 39 1 -8.4719999999999995e-01 8.1686413619980980e-01 1.8349197554848928e+00 9.5710256405156642e+00 0 0 0
116 39 2 4.2359999999999998e-01 8.0504634366055905e-01 9.6208730499850204e-01 5.8902963284437039e-02 0 0 1
117 39 2 4.2359999999999998e-01 9.8808408776076675e+00 2.1708994649288740e+00 9.4662446454835241e+00 -1 0 0

Velocities

1 -4.7658136290919971e-03 4.6644345310085846e-03 -2.3321517064388824e-03
2 1.0880504341515178e-02 -3.8092335381325606e-03 3.5451438270564053e-03
3 -4.5825773759042704e-03 2.2177708113028882e-02 6.0955052177230646e-03
4 -3.6218932730398108e-04 -7.9437388839083238e-03 -6.4714609509595776e-03
5 6.0111426370492611e-03 6.4181270811029967e-03 3.5027522739471814e-03
6 -1.5529283256481740e-02 -1.6953921743856092e-02 -2.3488286920363504e-03
7 -8.5907349306432353e-03 -1.3497136916130023e-03 1.7788075741456105e-03
8 -6.5162604178019279e-03 7.3290720123181646e-03 1.2187696006078066e-02
9 1.0473317674463719e-02 1.5285546942611821e-03 -3.3582673484053175e-03
10 8.5669764361850800e-04 7.1674959064070200e-03 2.3024763296863983e-03
11 2.1568802245081172e-02 -1.8686828472011313e-03 8.0487439852965151e-03
12 -8.3355817298894561e-03 -5.7446850085847738e-03 -1.9470654970688377e-05
13 -3.7634720586834998e-03 -9.5784846151854698e-04 -5.7903539934488395e-03
14 3.4841866438760642e-03 9.1818396697854153e-03 2.0750540585307294e-02
15 -2.2050007596350962e-02 8.5635822707200073e-03 -3.4748039553314978e-03
16 3.1218250924941954e-03 5.8282668190303517e-03 -3.3425367125438895e-03
17 6.3624827551569613e-03 -4.5673882223473657e-03 -7.2814372166526030e-03
18 -3.4261636346209095e-04 4.0682551729899404e-04 5.7594993144542998e-03
19 2.5371662003829780e-03 4.2612220511125259e-03 5.2171394843515797e-03
20 -2.2616283609101762e-03 1.3222954206879088e-04 5.0558544073449046e-03
21 1.1104503599349199e-02 1.2349656750353658e-02 -5.7081694541473264e-03
22 2.6773509933455410e-03 6.0590022962297013e-03 -1.7323177628604514e-03
23 -9.9530677965594429e-03 -2.0532462995781233e-02 -1.6222400719512253e-02
24 1.7004703850432866e-02 1.0947240948094549e-02 5.3313734520789059e-03
25 -1.6417778488813793e-04 5.2984154189922228e-03 8.1096712224593582e-04
26 4.2888079364335700e-03 6.3093071636986702e-03 7.5973488082920568e-03
27 6.4276795769260802e-03 5.5148180214413542e-03 6.2516539084298923e-03
28 -3.8365294831801500e-03 -4.2868382032696002e-03 2.1340907018820793e-03
29 -1.3310472132217021e-03 6.8450899361837596e-04 -5.0101179188643402e-03
30 -2.3350200323577546e-03 -1.2995801344186353e-02 -4.1844201348891652e-04
31 -8.3141662477650424e-03 -1.5540208485879212e-03 -2.2523994743452154e-03
32 1.7300859588196278e-02 1.5346155596436773e-02 -1.5852199729642785e-02
33 -1.3200627293353336e-02 -1.3327778642983380e-03 -1.3174813807385766e-02
34 -1.3151273616722023e-03 -4.2757061844439252e-03 1.2741486184364248e-03
35 7.5927980873306856e-03 -1.7602583589090455e-02 8.6007926588185946e-03
36 7.9689597626849164e-03 2.5359897199995702e-03 -1.1771150596019356e-02
37 3.7198751445145085e-03 2.9868374830759048e-03 4.3569785818401899e-04
38 -3.9578794167971082e-03 -1.9260911512717280e-02 5.7271072965165383e-03
39 -1.5401412984617117e-02 1.8483300732241945e-02 -1.7615158750201333e-03
40 -5.1592084007460407e-03 -3.9483388109599676e-03 6.9088811833078710e-03
41 -1.3015943603150618e-02 -3.5263774018008308e-02 4.8466520515536493e-03
42 -2.6359558090692282e-02 -1.2832568771889786e-02 9.6009329183194079e-03
43 2.8992958535211020e-03 -5.3464482740038285e-03 -8.4429104912714607e-03
44 1.5933775578781124e-02 -1.2601557569071489e-02 -7.1849071328352479e-03
45 1.2411871396207660e-02 6.8226495827393829e-03 6.8273859638550750e-04
64 -2.0052683981588008e-03 -9.3019609222385409e-04 -4.1361949187376243e-03
65 -2.6159488167761100e-04 -4.8217582296269787e-03 1.2245698558832360e-02
66 -1.1328765967843964e-02 -1.1648712215161423e-03 -4.6855446764043620e-03
49 2.3742362670213296e-03 -2.7640538688228318e-04 2.3387207372134863e-03
50 1.9630934730701748e-02 1.4940359296548446e-02 -1.0525158649736440e-02
51 -1.7292612442364005e-02 8.2980849195377175e-03 1.3944116749166591e-02
52 4.5295338390888467e-03 5.6142711908568916e-03 1.3238793571944739e-03
53 -1.4986346182292870e-03 1.7498331713430943e-03 -2.4007538217985366e-03
54 6.3374854660415711e-03 4.7770300498862581e-03 3.5262148572319388e-03
55 7.0241372216806233e-03 -5.2511215785040442e-03 3.1410902715442979e-03
56 -2.0253070855182204e-02 -4.1200942855522758e-03 2.8948670075663964e-02
57 1.4288825491290692e-02 -3.8797759221563762e-02 -7.7260897897380512e-03
58 5.6529338322931881e-03 2.1005739846307685e-03 -5.1004527761652632e-03
59 -2.7706323103163992e-04 1.7834309021825447e-02 8.8233691650719983e-04
60 -1.4290597980426608e-02 7.4547630693285773e-04 -3.4409459927761668e-03
67 -5.0040847184342607e-03 6.2439707693844769e-03 -1.8906561539995901e-03
68 -4.7352384687901206e-03 2.7971838493406457e-02 -8.3351728206141947e-03
69 -2.8758011839251779e-03 1.1204583850846371e-03 3.2352541181588181e-03
70 7.6077938288771300e-03 1.9623674173813244e-03 -2.7876661368113173e-03
71 -5.9566919700919999e-03 5.4245435014686205e-03 -1.2341165237128655e-04
72 2.1357058254903211e-02 8.3528015886801064e-03 -8.7923142462772788e-03
73 3.6984770678233098e-03 6.2673801595726107e-03 -4.0067186909961833e-03
74 -2.5055064434767928e-03 3.3588972710301999e-02 -3.1657340570195661e-03
75 -9.5885412908694925e-03 -1.5238815916261545e-02 -2.3460184461644402e-02
76 2.1857277198980229e-03 1.9542164836329443e-04 4.2898630701046500e-03
77 5.1256116505019435e-03 -5.9780107867818877e-03 -8.5501843359173438e-04
78 7.5335717182971130e-03 1.3390425859673141e-02 8.0548667204602704e-03
79 -2.4332693798927384e-03 -4.4172419996617038e-03 5.4585336910730432e-03
80 1.2316187736487403e-02 -2.9727917460066183e-03 -3.6489064301086296e-02
81 1.3214886427972360e-03 -3.5039842394200388e-03 -8.4079903122356365e-05
82 -5.4996448226315572e-03 1.2278690889113235e-03 -1.4438823781460130e-04
83 -1.3982406861025261e-02 7.5093308386771753e-03 1.7767834371924978e-03
84 -2.1627389613637270e-02 1.3705364930550362e-02 4.6615334739900389e-03
85 6.4957846860698627e-04 -5.2918956251888534e-03 8.3109824212178312e-03
86 -1.1858133123811444e-02 2.5301387207519225e-03 6.5903456254349131e-03
87 4.1171367437518626e-03 -7.1804391599954113e-03 1.0111258340108679e-02
88 -6.2217811143189684e-03 1.5789246466825779e-03 -2.2424815185250768e-03
89 -9.2628509474951340e-03 -4.1614841032691580e-03 -3.7753680005612848e-03
90 -6.2264163164838151e-03 4.1006073854133645e-03 1.0591496880645975e-02
91 8.2086699979956482e-04 -2.8830563600326055e-03 -1.6924911948293607e-03
92 -1.5729298024719465e-02 1.2039985010300889e-03 -7.9479174925545411e-03
93 -2.7189972977163020e-02 -1.2154414160010915e-03 -1.1880397593073428e-02
94 6.0749312004560428e-03 -3.0681022576067194e-03 4.7938538198430466e-03
95 1.5161779395985460e-02 -1.5203719790282658e-02 9.9843038567200143e-03
96 5.1909700897750915e-03 4.4707966499363530e-03 4.7392653806621332e-03
97 2.5773251576006124e-03 -5.7845999154414543e-04 -1.0962580597853170e-03
98 1.5241740090848143e-02 1.9935358770024936e-02 -9.7537836027879066e-03
99 -9.1889851296560725e-03 -6.2700750847809097e-03 2.3684191494330858e-02
100 -1.6183820035143373e-03 -3.5779695417030582e-04 1.1245742115796467e-04
101 -1.1547117753621904e-02 -7.1063595292748674e-03 -7.7960679870948675e-05
102 6.1372221486112851e-03 9.2613817653663770e-03 9.2039583551513458e-03
103 2.7135015972036690e-03 2.0261503405921924e-04 6.2400605083799330e-04
104 1.0991318262925265e-02 3.4271759882283188e-03 7.2327916524309319e-03
105 7.9988873374635568e-03 5.4103094017185962e-03 1.0334938737663541e-02
106 4.7246717436840611e-03 -1.5906018847824817e-03 9.4963457513712953e-04
107 -6.6464485609921576e-04 7.6887744465948540e-04 1.4771137923189910e-03
108 3.8739104117137681e-03 -4.2115561457544787e-04 -3.6219080130817805e-03
114 -9.0352436290468980e-03 -5.3420679035185497e-03 1.6614988881947155e-02
113 -1.5357619490679772e-02 2.5367435303312428e-02 1.1365169156366990e-02
112 -3.4514189854737139e-03 -3.4500956578325803e-03 1.2721089626416346e-02
115 2.0362054504915097e-03 -1.5662700841714047e-03 1.1447555317119469e-03
116 -2.5073378672634873e-04 -9.6021449443154661e-03 -1.3284802002545198e-02
117 4.4519593141387464e-03 1.2262274421599979e-02 2.4002479536701780e-02

Bonds

1 1 1 2
2 1 1 3
3 1 4 5
4 1 4 6
5 1 7 8
6 1 7 9
7 1 10 11
8 1 10 12
9 1 13 14
10 1 13 15
11 1 16 17
12 1 16 18
13 1 19 20
14 1 19 21
15 1 22 23
16 1 22 24
17 1 25 26
18 1 25 27
19 1 28 29
20 1 28 30
21 1 31 32
22 1 31 33
23 1 34 35
24 1 34 36
25 1 37 38
26 1 37 39
27 1 40 41
28 1 40 42
29 1 43 44
30 1 43 45
31 1 64 65
32 1 64 66
33 1 49 50
34 1 49 51
35 1 52 53
36 1 52 54
37 1 55 56
38 1 55 57
39 1 58 59
40 1 58 60
41 1 67 68
42 1 67 69
43 1 70 71
44 1 70 72
45 1 73 74
46 1 73 75
47 1 76 77
48 1 76 78
49 1 79 80
50 1 79 81
51 1 82 83
52 1 82 84
53 1 85 86
54 1 85 87
55 1 88 89
56 1 88 90
57 1 91 92
58 1 91 93
59 1 94 95
60 1 94 96
61 1 97 98
62 1 97 99
63 1 100 101
64 1 100 102
65 1 103 104
66 1 103 105
67 1 106 107
68 1 106 108
69 1 112 113
70 1 112 114
71 1 115 116
72 1 115 117

Angles

1 1 2 1 3
2 1 5 4 6
3 1 8 7 9
4 1 11 10 12
5 1 14 13 15
6 1 17 16 18
7 1 20 19 21
8 1 23 22 24
9 1 26 25 27
10 1 29 28 30
11 1 32 31 33
12 1 35 34 36
13 1 38 37 39
14 1 41 40 42
15 1 44 43 45
16 1 65 64 66
17 1 50 49 51
18 1 53 52 54
19 1 56 55 57
20 1 59 58 60
21 1 68 67 69
22 1 71 70 72
23 1 74 73 75
24 1 77 76 78
25 1 80 79 81
26 1 83 82 84
27 1 86 85 87
28 1 89 88 90
29 1 92 91 93
30 1 95 94 96
31 1 98 97 99
32 1 101 100 102
33 1 104 103 105
34 1 107 106 108
35 1 113 112 114
36 1 116 115 117
