Created by AJB

2 atoms
2 atom types

-10.0 10.0 xlo xhi
-10.0 10.0 ylo yhi
-10.0 10.0 zlo zhi

Masses

1 1.000794	# H nuclei mass
2 1.000000	# electron mass

Atoms
#id|type|x|y|z|q|spin|r
1 1 0.0 0.0 0.0 1.0 0 0.0
2 2 0.0 0.0 0.0 0.0 1 1.0

