ITEM: TIMESTEP
0
ITEM: NUMBER OF ATOMS
32
ITEM: BOX BOUNDS pp pp pp
0 40
0 40
0 40
ITEM: ATOMS id x y z vx vy vz 
187 26.6309 26.6387 20.9623 0 0 0 
125 24.6582 26.0898 21.6598 0 0 0 
156 25.7401 26.9511 22.0433 0 0 0 
218 27.7333 27.3399 21.5562 0 0 0 
1 21.0439 24.2646 23.1337 0 0 0 
63 22.5101 25.4302 22.2914 0 0 0 
94 23.895 25.0537 22.2951 0 0 0 
280 26.9358 26.2738 22.9979 0 0 0 
249 28.2741 26.7179 22.7311 0 0 0 
311 27.733 25.5139 23.9181 0 0 0 
32 21.5789 25.5745 23.3738 0 0 0 
342 28.8712 25.1256 24.7012 0 0 0 
373 30.0053 25.4778 25.507 0 0 0 
404 29.8427 26.8721 25.2081 0 0 0 
435 29.3789 27.6387 26.3292 0 0 0 
466 28.587 28.4661 27.194 0 0 0 
528 28.7548 27.1277 28.2749 0 0 0 
683 32.1926 27.1371 28.1123 0 0 0 
497 27.6135 27.9861 28.1329 0 0 0 
652 31.3008 28.2326 28.3655 0 0 0 
714 33.0167 26.5192 29.1116 0 0 0 
559 29.3703 27.681 29.4473 0 0 0 
590 30.1317 28.895 29.3698 0 0 0 
621 31.4259 29.456 29.1053 0 0 0 
745 33.3109 26.7605 30.4953 0 0 0 
776 32.6296 27.0741 31.7189 0 0 0 
838 30.3399 27.7351 32.7342 0 0 0 
807 31.7049 27.9673 32.3567 0 0 0 
962 29.9072 26.1623 34.144 0 0 0 
869 29.8305 28.063 34.0352 0 0 0 
931 30.9967 26.7242 34.8903 0 0 0 
900 30.2349 27.8319 35.3927 0 0 0 
ITEM: TIMESTEP
2000
ITEM: NUMBER OF ATOMS
32
ITEM: BOX BOUNDS pp pp pp
0 40
0 40
0 40
ITEM: ATOMS id x y z vx vy vz 
187 26.74 26.3342 21.3004 28.3692 5.24717 72.6882 
63 22.719 25.5863 22.5572 68.2359 -112.443 -42.3289 
94 24.0159 24.9766 22.5324 94.4272 73.3855 -38.109 
125 24.9203 25.915 21.9043 -10.4823 27.8265 -47.4066 
156 25.969 26.7293 22.4287 23.3232 65.263 -78.0056 
218 27.7278 27.3175 21.623 58.3256 90.2719 163.702 
1 21.2477 24.4453 23.116 -59.8858 -39.986 -60.2872 
32 21.5845 25.7982 23.4208 -97.8128 -61.2875 -85.4994 
280 27.5679 26.3307 22.9791 -105.008 143.432 19.3431 
249 28.6725 27.1767 22.6933 -141.919 17.4244 192.01 
311 28.3937 25.4705 23.7753 1.45792 7.28739 -64.0567 
342 29.3066 24.7822 24.6435 88.4706 -66.1949 -4.22635 
404 29.9937 26.9145 25.4303 -41.4625 -28.8541 116.238 
373 30.3082 25.5128 25.3558 87.6394 -69.4065 101.817 
435 29.4108 27.4612 26.6242 -120.702 13.1626 38.9858 
466 28.3995 28.1266 27.3666 26.7975 -77.4411 -0.866451 
528 29.037 26.4467 28.262 -117.594 -97.4468 107.085 
683 32.4313 27.1184 27.6169 4.69057 -42.7171 -20.682 
497 27.8012 27.1589 28.2407 -6.30726 -144.599 -14.1624 
652 31.6569 28.2561 28.0699 -38.3098 -35.8665 76.9488 
714 33.073 26.2763 28.5732 -14.7292 -53.4341 -128.516 
559 29.3632 27.286 29.3823 63.173 -135.097 45.2248 
590 30.1817 28.4562 29.5487 -22.9974 -173.979 141.799 
621 31.4663 29.0301 29.261 -25.0994 -33.3942 112.711 
745 33.4636 26.1788 29.9338 -75.8123 -16.6622 -147.488 
776 32.8167 26.4051 31.1985 22.0012 65.474 -212.258 
838 30.4959 27.4376 32.4516 -35.5742 -84.1019 -78.6003 
807 31.7747 27.1109 31.876 16.4098 30.9582 -135.781 
962 30.0379 26.1565 34.3544 79.6634 74.3397 83.7528 
869 29.8666 27.735 33.6924 -97.8224 -4.16088 25.0094 
900 29.9752 27.8591 35.1121 -28.543 104.264 48.4345 
931 31.0883 26.9722 34.8727 74.6271 59.0729 35.0827 
ITEM: TIMESTEP
4000
ITEM: NUMBER OF ATOMS
32
ITEM: BOX BOUNDS pp pp pp
0 40
0 40
0 40
ITEM: ATOMS id x y z vx vy vz 
125 24.8062 25.886 21.6118 -21.9465 -75.6951 -90.8134 
187 26.6509 26.5808 21.4853 -120.573 -27.1117 -38.1586 
218 27.9199 27.1761 21.8005 -164.888 -29.0576 -41.8643 
94 23.7726 24.9366 21.914 6.68259 -18.4064 -89.9584 
32 21.3972 25.8912 22.9748 -45.2607 152.724 34.1648 
63 22.57 25.6901 22.1673 8.78232 74.1617 27.0219 
280 27.4825 26.2723 23.4854 -19.7592 -98.1772 44.6802 
156 25.6137 26.6982 22.4684 -3.7569 -17.7904 -35.1904 
249 28.6879 26.8691 22.9769 -41.9551 11.8976 -44.6478 
1 21.0874 24.5071 23.2513 -181.133 19.83 82.3629 
311 28.0179 25.2662 24.3809 -33.3049 19.6765 102.175 
342 28.989 24.5148 25.1313 92.6374 -26.7943 -32.8863 
404 29.9231 26.3158 25.8391 91.0604 71.4454 -112.948 
373 30.1048 24.8839 25.9493 165.173 -76.6614 -117.114 
435 29.6032 26.6685 27.1974 43.9975 -31.2985 -119.951 
466 28.6166 27.6309 27.6534 -10.5845 -12.3895 21.1793 
528 29.0444 26.4062 29.1331 59.0642 -107.788 -32.4963 
683 32.1393 26.7766 28.0355 63.9412 -40.8542 -127.318 
497 27.8581 27.1332 28.7692 -18.802 -18.7447 -107.153 
652 31.7162 28.1453 28.172 -30.5912 -67.4634 70.9089 
714 33.1656 26.4487 28.9632 17.1572 86.9992 -62.2573 
559 29.6007 27.31 30.0865 -83.087 -118.731 -17.6227 
590 30.318 28.4605 29.6473 -25.1951 -25.4905 -22.6232 
621 31.2413 29.2809 28.9352 22.3374 57.3014 73.6346 
745 33.7919 26.0842 30.197 17.4773 5.62046 -6.09642 
776 33.2979 25.9852 31.5428 114.58 15.6774 -35.2243 
807 32.3511 26.8381 32.1974 29.6962 -1.80536 -153.323 
838 31.3735 27.7216 32.7909 -78.9215 -26.2967 -133.337 
869 30.4058 28.1688 33.7607 -20.9492 -45.6673 -118.042 
962 30.5666 26.2949 34.3856 -12.8033 89.2205 -33.6679 
931 31.3596 27.2146 35.1425 -10.6161 97.5428 -14.2295 
900 30.102 27.8981 35.1491 18.2045 -46.5966 -86.3686 
ITEM: TIMESTEP
6000
ITEM: NUMBER OF ATOMS
32
ITEM: BOX BOUNDS pp pp pp
0 40
0 40
0 40
ITEM: ATOMS id x y z vx vy vz 
94 23.2568 25.0985 21.7491 72.1628 -2.1002 -66.4484 
63 22.047 25.7508 22.1656 7.7713 16.2449 -16.1082 
125 24.4521 25.8801 21.7875 184.214 99.7583 -148.494 
187 26.1029 26.2332 21.3343 81.9612 -84.0514 -80.9223 
218 27.5286 26.233 21.5544 15.4568 -331.552 55.3791 
1 20.4455 24.2864 23.4003 -101.45 11.8089 -52.9107 
32 21.0477 25.5772 23.1808 -48.4174 6.44415 -136.23 
156 25.4342 26.6043 22.5453 231.198 7.74522 -31.8707 
280 27.0671 25.7039 23.3017 79.5489 -50.9404 -0.10596 
249 28.3187 26.1275 22.7691 95.1747 -181.166 -36.3719 
311 27.5697 24.8842 24.3566 -13.6926 -34.8134 -58.912 
342 28.6495 24.3119 25.1118 1.66561 -63.4589 -107.95 
373 29.6955 24.6711 26.0345 134.428 -120.181 -115.544 
404 29.4302 26.0805 26.149 -12.2366 -183.524 -89.1644 
435 29.7249 26.4755 27.5042 -12.6497 -111.904 32.2162 
466 28.5096 27.2135 27.7086 -70.4484 -37.5776 73.8977 
683 32.1796 26.7999 28.1944 21.2975 -92.1372 25.6607 
528 28.9505 26.2118 29.4814 -21.5439 -103.564 -5.40162 
497 27.8049 26.3575 28.6179 -106.988 -30.1654 -24.3055 
714 33.3438 26.3378 28.8956 -23.2318 -69.0726 108.279 
652 31.4497 28.0282 28.354 -4.72828 -124.749 -15.7155 
745 33.7569 25.8494 30.1729 10.7008 -9.42754 -2.69897 
590 30.0688 28.2295 29.7055 102.422 -24.4206 48.9038 
621 31.0519 29.1385 29.1748 80.1796 -105.857 28.7987 
559 29.2597 27.2725 30.4114 59.453 -40.3574 20.2007 
776 33.0349 26.0943 31.3797 -40.269 19.3777 11.4264 
807 32.1549 27.0399 31.9921 -126.914 -28.2762 117.651 
838 31.3079 28.0784 32.4622 -83.3228 16.8179 -73.0374 
869 30.7552 28.6074 33.6529 55.1718 -60.4454 -101.497 
962 30.4454 25.9268 34.7773 -152.421 -13.0656 -1.15315 
931 31.5809 26.7332 35.1433 -81.4468 69.3369 37.2647 
900 30.6622 27.7808 34.8237 140.078 -5.40764 -78.383 
ITEM: TIMESTEP
8000
ITEM: NUMBER OF ATOMS
32
ITEM: BOX BOUNDS pp pp pp
0 40
0 40
0 40
ITEM: ATOMS id x y z vx vy vz 
94 22.942 25.1104 21.7236 -33.6836 112.251 109.052 
125 24.2246 25.669 22.0511 6.23283 108.743 192.137 
187 25.8436 25.8158 21.3246 74.8297 195.354 46.4342 
218 27.2094 25.9143 21.7506 142.725 159.858 -140.005 
32 21.1847 25.7007 23.7031 -20.7567 143.939 -49.5917 
63 22.0508 25.8739 22.5659 -60.6719 162.673 24.7642 
156 25.3799 26.2971 22.6003 100.267 122.501 132.198 
249 27.9428 25.746 22.9732 64.5019 116.643 -95.1769 
1 20.6087 24.3895 23.6887 133.223 106.8 -162.6 
280 26.6864 25.1959 23.43 31.0208 129.132 -68.1109 
342 29.0815 24.1962 24.3119 4.54824 32.3784 -44.4938 
311 27.6833 24.433 24.1145 -31.9991 84.2604 6.69877 
373 30.1528 24.4945 25.201 -40.5276 13.0542 -61.9099 
404 29.9616 25.8285 25.6732 -109.898 10.1746 -12.5059 
435 30.1931 26.1439 27.0387 -70.9537 93.2168 1.73361 
497 28.0123 25.6471 28.3138 50.943 -30.8749 -73.8931 
466 28.8786 26.4534 27.5178 8.78368 36.8732 135.045 
683 32.5239 27.09 28.2398 -80.5926 16.8619 -67.4068 
652 31.4603 28.0356 28.2642 -34.1051 9.91525 -162.529 
528 29.253 25.6469 29.0282 108.836 -26.5077 -38.8563 
714 33.5564 26.531 29.0686 -26.6 32.1006 -11.3854 
590 29.9142 27.8068 29.4995 -41.8626 -28.0301 -190.782 
621 30.7607 28.9066 29.1796 -31.6146 -37.5935 -50.193 
745 34.2219 25.9858 30.2263 -146.068 -37.801 -113.108 
559 29.684 26.5194 30.0725 85.2657 16.9355 -48.7379 
776 33.1352 25.7744 31.1328 -168.48 9.24283 46.0371 
807 32.4157 26.3052 32.243 -94.8694 -34.8264 112.826 
838 31.6038 27.3927 32.6649 -75.2404 -141.416 60.9439 
869 31.2806 28.133 33.8485 -79.8542 -31.516 -49.2271 
962 30.9349 25.5017 34.5742 -25.3079 -118.214 -64.977 
931 32.1098 26.247 34.8899 -81.2969 -112.709 -130.555 
900 31.2376 27.3733 35.0681 -57.7924 -13.0696 -110.988 
ITEM: TIMESTEP
10000
ITEM: NUMBER OF ATOMS
32
ITEM: BOX BOUNDS pp pp pp
0 40
0 40
0 40
ITEM: ATOMS id x y z vx vy vz 
187 26.1627 25.2821 21.4027 -63.9479 -43.7602 -3.81501 
218 27.5692 25.14 21.6222 27.0562 -8.68726 -56.3836 
94 23.7354 24.852 22.0823 16.8418 -40.6469 -40.0026 
249 28.4659 25.0249 22.7429 95.9873 66.0459 -34.288 
63 22.9495 25.6587 22.969 -18.2321 -10.9213 136.418 
125 24.8839 25.636 22.435 -28.6726 79.8403 168.281 
156 26.218 26.108 22.5801 45.6801 72.1622 84.8911 
1 21.5213 23.6334 23.4346 -29.5353 112.04 -102.48 
311 28.0435 24.0275 24.2718 -5.2701 18.5281 -25.2237 
342 29.4067 23.553 24.1924 48.2345 13.5357 -90.2134 
32 22.1072 24.8882 23.8301 -32.4639 -12.4319 56.7637 
280 27.1895 24.693 23.3212 3.14052 56.8962 36.7807 
373 30.4726 24.1435 24.9573 69.4997 58.7011 -123.736 
404 30.6315 25.5246 25.3254 35.2254 74.0774 -172.23 
466 29.0878 26.3087 27.2015 35.7319 186.875 -178.79 
435 30.2808 25.7274 26.7018 55.0414 83.6579 -52.1092 
528 29.4338 25.1668 29.1908 94.8205 -107.528 68.8557 
497 28.4279 25.7191 28.3302 158.193 217.292 49.1086 
652 31.6782 27.057 28.2367 38.2584 -6.29891 -39.6662 
683 32.8297 26.2296 28.49 -27.4668 -142.709 -37.381 
621 30.9314 28.2444 28.5364 -69.9333 118.872 -166.544 
559 30.1603 26.0584 30.022 54.6944 -54.2132 -94.4844 
714 34.0547 26.0654 29.2108 36.5247 -35.0206 -202.825 
590 30.13 27.1868 29.1167 -16.7476 92.5388 -161.79 
776 33.6045 25.3203 31.3092 18.5018 129.086 -120.666 
745 34.6963 25.6565 30.43 4.48078 46.277 -225.73 
807 32.6548 25.9724 32.1817 -50.7949 55.9235 50.7688 
838 31.8851 27.1504 32.4666 -78.0349 -61.2078 45.6483 
900 31.939 27.0554 34.7377 -47.7465 -19.2756 15.2992 
869 31.4603 27.8431 33.6459 -73.7608 -10.6438 -27.9369 
962 32.0549 25.1429 34.5669 36.8071 -89.315 -86.7751 
931 33.0639 26.1515 34.75 56.7775 -59.3894 -8.98181 
ITEM: TIMESTEP
12000
ITEM: NUMBER OF ATOMS
32
ITEM: BOX BOUNDS pp pp pp
0 40
0 40
0 40
ITEM: ATOMS id x y z vx vy vz 
187 25.7793 24.8175 21.0901 -110.531 -53.0241 110.188 
218 27.0771 24.2441 21.2617 -116.423 56.2869 37.1871 
280 26.8393 23.8448 23.3572 79.5369 16.7411 127.183 
94 23.6316 24.8875 22.7145 -100.882 -124.783 -16.0871 
125 24.8997 25.5577 22.7011 -50.2798 -180.31 49.1784 
249 27.9 23.9403 22.39 -53.9847 -26.4783 91.5641 
63 22.7069 25.6571 23.5015 162.795 -97.4516 -108.791 
156 26.239 25.6364 22.1659 -47.0966 -79.933 168.046 
342 29.3469 22.7525 23.6524 150.223 -41.8037 84.4157 
1 21.1659 24.0632 23.5329 80.7919 19.701 -20.2196 
311 28.0359 23.2715 23.9245 132.772 32.207 118.807 
32 21.598 25.1961 24.2739 170.222 -14.8368 -70.708 
373 30.3871 23.6026 24.1562 -40.7422 55.8455 64.0375 
404 30.5148 24.8883 24.8024 -64.4919 -27.8146 59.8398 
435 30.525 25.1763 26.2082 148.341 -71.0415 -131.183 
466 29.4247 25.6313 27.0333 78.3952 -102.861 -198.006 
497 28.8031 24.8168 28.0312 -24.3233 -82.2794 -175.415 
528 29.9702 24.564 28.8262 -39.8404 1.14725 -126.846 
683 32.8381 26.0518 28.2105 25.9889 77.1686 -57.8565 
590 30.1853 26.5076 28.766 -190.672 84.2039 -133.245 
652 31.6586 26.6777 27.6878 54.3494 39.4505 -63.2045 
621 30.704 27.6697 28.1043 -33.0558 115.508 -73.1019 
559 30.5056 25.5199 29.7582 -75.6316 -24.2246 -55.6394 
714 33.9994 25.9106 29.0517 -3.34816 -59.5222 -114.322 
745 34.9246 26.1614 30.1112 57.9823 -24.4792 -185.071 
776 34.1381 25.653 31.2098 -26.1647 1.20419 -167.854 
807 33.1754 26.2754 32.0791 27.1466 64.1384 -139.992 
838 32.2051 27.2937 32.3672 95.5055 108.104 -60.8007 
962 32.1579 25.4158 34.2882 68.6223 -48.439 12.6307 
869 31.4872 27.9268 33.4494 109.507 -25.7381 -47.8553 
931 33.1831 26.301 34.7488 71.2087 -4.72428 -50.202 
900 32.0769 27.1839 34.5267 29.9353 -13.8489 -68.2624 
ITEM: TIMESTEP
14000
ITEM: NUMBER OF ATOMS
32
ITEM: BOX BOUNDS pp pp pp
0 40
0 40
0 40
ITEM: ATOMS id x y z vx vy vz 
218 27.258 24.1948 21.551 -28.935 11.2919 -29.041 
187 26.082 24.8684 21.1005 -68.1971 127.401 -39.4019 
249 28.2489 23.7776 22.5047 -49.6032 -14.4915 -74.2573 
94 24.2949 24.7136 22.4542 37.1225 92.7814 4.95077 
156 26.7046 25.677 22.1072 -46.2104 1.67837 -60.5831 
125 25.3137 25.72 22.4481 -55.5888 105.09 0.31084 
311 28.305 23.0284 24.1886 -54.2399 -37.7427 -62.9638 
342 29.4957 22.2509 24.4388 -124.201 -84.2404 39.8769 
373 30.2972 23.4427 24.4564 42.8585 -51.654 14.3177 
1 21.8467 23.8061 23.6754 49.4102 -33.1186 -155.463 
280 27.2 23.6257 23.475 -31.4266 29.7839 -127.741 
32 22.3162 25.0706 24.1704 99.4583 104.483 -81.6179 
63 23.4512 25.4152 23.3682 116.703 118.512 8.49236 
404 30.5871 24.8137 24.7759 12.5495 -59.598 -66.3004 
435 31.3942 24.7061 25.972 -139.302 -53.9646 -31.956 
466 30.7936 25.1468 27.2082 -113.075 15.5398 24.9088 
652 32.6315 26.3173 27.3308 -61.5766 68.6039 -20.9137 
621 31.7255 27.3613 27.7442 -2.6414 31.799 -98.8771 
497 29.7635 24.623 28.0701 -75.4839 -43.9063 75.4557 
590 31.3848 26.2965 28.636 -21.1246 21.5444 -80.1242 
683 33.7657 26.2054 28.2173 -42.4922 -30.8326 92.8621 
528 30.8527 24.3277 28.9453 -119.087 -36.2962 93.1907 
559 31.2838 25.4217 29.7565 29.892 2.345 110.848 
714 34.5875 26.2046 29.4108 60.6802 -77.6088 -3.90795 
745 34.8598 26.2959 30.8218 16.613 -13.9873 -78.7454 
776 33.6557 26.0572 31.5731 58.2725 60.4728 21.5586 
807 32.5692 26.9309 31.8948 51.7271 -104.814 110.762 
838 31.4307 27.7671 32.0902 77.8666 -154.431 -81.6506 
962 31.5324 25.9358 34.2468 121.276 22.192 28.5345 
869 30.5202 28.41 32.9857 3.35527 -118.343 -198.084 
931 32.2888 27.1456 34.437 33.9155 -75.9902 37.5548 
900 31.3074 28.1461 34.1533 78.7929 -71.4891 -250.563 
ITEM: TIMESTEP
16000
ITEM: NUMBER OF ATOMS
32
ITEM: BOX BOUNDS pp pp pp
0 40
0 40
0 40
ITEM: ATOMS id x y z vx vy vz 
187 25.856 24.9888 21.3228 -143.782 5.46543 18.2407 
218 27.0956 24.317 21.5752 -130.157 -2.72902 32.7583 
156 26.7255 25.927 21.9942 -53.4612 -100.186 9.72235 
249 28.0925 23.6394 22.3751 -135.362 7.94715 82.4349 
94 24.609 25.0823 23.4069 -98.0717 -243.934 14.3416 
125 25.6244 25.9437 22.8946 67.3748 -54.247 88.7179 
311 28.0535 22.9918 24.406 0.959178 -112.054 -5.11735 
342 29.1532 22.0936 24.5716 74.5405 -100.368 -15.8994 
1 21.9368 23.3398 24.1413 -111.98 24.5418 14.195 
280 27.2297 23.7412 23.5051 -134.559 -208.647 37.5294 
32 22.281 24.613 24.6921 -149.507 -58.8753 -21.4769 
63 23.6212 25.0492 24.439 -192.267 -122.109 -48.8558 
373 29.7459 23.3989 24.7127 65.2222 -104.98 51.3547 
404 30.632 24.5329 24.7831 104.066 -125.195 -21.46 
435 31.7331 24.2746 25.678 13.2012 -52.9381 -46.4027 
497 30.4123 24.2862 27.9878 -175.596 38.7898 45.692 
466 31.4742 24.5462 27.0534 -102.572 42.1593 62.7488 
652 32.8366 25.9294 27.4174 -57.1885 138.928 36.2888 
621 31.8027 26.9264 27.5126 -14.5914 102.973 15.167 
528 31.2962 24.2206 29.1214 -27.8993 40.6073 39.9895 
590 31.5555 25.9128 28.4763 10.4522 33.7509 176.364 
683 34.0657 26.0814 28.1528 -68.6394 -107.397 -93.1323 
559 31.4339 25.4578 29.8273 132.239 78.829 105.922 
714 35.1024 26.296 29.1307 -99.3822 -78.1032 -60.1399 
745 35.3853 26.1125 30.5311 -59.1173 -104.518 61.0613 
776 34.3782 25.7991 31.4872 21.7628 38.61 108.454 
807 33.2271 26.4597 32.0493 58.5331 30.1132 165.587 
838 32.1572 27.4184 32.0909 32.0373 20.7139 67.556 
869 31.4282 28.2052 33.0489 -34.9363 118.766 -34.6811 
962 31.8982 26.4406 34.4719 -83.137 121.282 -24.0231 
931 32.677 27.6169 34.7653 -164.928 74.3662 -12.0604 
900 31.9298 28.7511 34.2826 -30.2571 148.192 57.5025 
ITEM: TIMESTEP
18000
ITEM: NUMBER OF ATOMS
32
ITEM: BOX BOUNDS pp pp pp
0 40
0 40
0 40
ITEM: ATOMS id x y z vx vy vz 
218 27.7395 23.8966 21.6325 74.6656 48.0549 -19.6604 
187 26.6578 24.7819 21.3387 -55.6038 28.4274 -33.9259 
156 27.5015 25.8479 21.8219 -4.70328 12.3228 -116.34 
249 28.696 23.3151 22.5111 146.32 -105.438 39.4555 
125 26.52 26.2231 22.7991 -12.2096 62.6607 -148.987 
280 27.8653 23.6809 23.6241 169.948 -48.448 -18.6626 
94 25.4866 25.3334 23.2691 -63.9534 65.2777 -197.969 
342 28.7301 21.3877 24.945 48.3132 -37.7467 117.046 
311 27.966 22.4844 24.4123 75.8918 -83.2768 20.6523 
373 29.5603 22.5506 24.9214 127.237 50.0563 179.182 
1 22.2013 23.8792 24.5728 -17.3138 43.4388 6.89084 
404 30.5841 23.4652 24.4833 -43.7182 -58.2849 34.3688 
435 31.7499 23.4628 25.3179 -107.432 -68.1083 -110.206 
32 22.938 25.107 24.4981 16.9295 49.5374 65.1359 
63 24.2457 25.4389 23.9926 -46.0505 59.7174 -110.246 
466 31.3776 24.4535 26.292 -60.0359 20.6836 -41.6631 
652 32.972 26.0465 26.9358 -149.589 -101.103 136.25 
621 31.8959 26.9673 26.7245 -78.9267 -36.0854 -1.63821 
528 31.5549 24.4511 28.4119 -12.1687 -68.3552 68.7724 
497 30.5442 24.7465 27.4314 44.3168 -6.48082 -13.4791 
590 31.4713 26.1446 27.8279 -116.121 -12.2426 15.4265 
683 34.0318 25.8868 27.8912 -117.621 -258.93 91.7283 
559 31.7374 25.6654 29.1508 -132.51 -114.148 47.3575 
714 35.0813 25.9611 28.8657 34.3275 -3.0522 37.1887 
745 35.295 25.4008 30.1742 66.1438 -1.74606 43.7771 
807 33.4671 26.5598 31.8781 -135.025 -74.7543 -9.35656 
776 34.2788 25.5922 31.181 10.5438 9.1007 126.661 
838 32.6245 27.6811 32.2006 -151.428 -32.1447 -75.082 
869 32.1208 28.2845 33.3957 -33.4382 -114.448 46.297 
962 32.1222 26.6119 34.863 98.4793 -29.2818 -4.1579 
931 33.0527 27.6001 35.3434 5.67646 91.1059 69.3307 
900 32.3918 28.7088 34.7358 23.3318 52.349 131.983 
ITEM: TIMESTEP
20000
ITEM: NUMBER OF ATOMS
32
ITEM: BOX BOUNDS pp pp pp
0 40
0 40
0 40
ITEM: ATOMS id x y z vx vy vz 
187 26.2343 25.6555 21.1346 -92.0014 102.525 54.6338 
218 27.3479 24.8376 21.5071 -1.68219 100.487 18.617 
156 26.8637 26.4375 22.1542 -32.5544 95.6886 82.1528 
249 28.4527 24.3345 22.2801 -19.9453 45.9359 46.0577 
94 25.4843 25.6848 23.0576 -2.23517 -36.4771 100.753 
125 26.0065 27.0215 23.1384 -135.244 21.0389 31.1523 
311 27.7016 23.151 24.0681 -111.417 93.7053 97.9244 
1 22.4008 24.3695 24.3703 26.1509 30.5462 -69.3806 
280 27.6844 24.4705 23.4779 -27.8028 -19.5488 20.379 
32 23.4028 25.2896 24.8349 5.69221 41.4641 11.7652 
63 24.6336 25.7206 24.2127 3.63405 10.5016 143.172 
342 28.6616 22.1265 24.3159 -239.891 55.7389 126.914 
373 29.634 23.1457 24.5425 -199.298 139.979 170.735 
404 30.65 24.152 24.3481 -83.1291 111.345 25.4143 
435 31.8171 24.0562 25.1762 -83.6318 66.08 -61.1996 
466 32.0538 24.6391 26.4668 8.57671 72.0521 -128.579 
497 30.8029 24.4003 27.131 89.5646 51.9829 -49.2794 
652 33.488 25.7644 27.0559 15.8857 -28.9165 40.0571 
621 32.439 26.7204 27.2864 -22.3103 -81.3594 36.178 
528 31.4268 23.7716 28.2556 -8.27775 -26.0064 -13.316 
590 31.9397 25.6425 28.0717 -109.64 -88.6215 -52.1389 
683 34.6257 25.562 27.9336 21.594 -26.3607 20.9955 
559 31.669 24.8237 29.2087 -94.0146 -12.3964 -4.69874 
714 35.5979 25.6357 28.991 43.9848 -14.1761 -33.9398 
745 35.3318 25.5578 30.3901 -55.8661 145.717 -25.1416 
776 34.1926 25.6357 31.2482 -61.1298 71.4526 -193.46 
807 33.2087 26.5958 31.612 -4.56501 -2.21529 -211.12 
838 32.5928 27.8487 31.9068 113.34 1.50931 -154.845 
869 32.2039 28.4902 33.123 36.9171 -108.049 -149.107 
900 32.6802 28.7015 34.4532 33.4125 -114.744 -211.827 
962 32.2904 26.5973 34.7739 -106.561 -125.805 4.96977 
931 33.3098 27.5689 35.0812 40.6358 -68.0245 -150.062 
ITEM: TIMESTEP
22000
ITEM: NUMBER OF ATOMS
32
ITEM: BOX BOUNDS pp pp pp
0 40
0 40
0 40
ITEM: ATOMS id x y z vx vy vz 
218 27.2345 25.3203 20.9625 66.5943 22.413 -95.3888 
187 25.8387 25.6704 21.0737 85.761 24.4863 -2.1982 
249 28.3831 25.0821 21.7999 -6.59687 24.5573 -93.5374 
156 26.5481 26.3449 22.1392 76.8388 87.6193 112.447 
342 29.3104 22.5111 24.1781 -114.167 63.5693 -25.2336 
311 28.137 23.2006 23.706 37.2694 124.936 -119.444 
280 27.9474 24.4621 23.0319 55.5407 84.0797 -62.8471 
404 31.0999 24.6866 24.1491 -20.811 118.437 -30.7834 
94 25.2008 25.2902 23.4432 -109.3 -9.29621 64.2126 
125 25.9324 26.5272 23.4228 7.79979 74.1005 134.905 
1 22.3613 24.4284 24.8478 -95.3571 72.9207 -47.7296 
373 30.1516 23.6446 24.3659 -74.2881 64.0095 14.293 
435 31.9835 24.6016 25.2736 -137.425 81.3147 7.39008 
32 23.6092 25.0318 25.2557 -43.1483 36.7823 120.096 
63 24.7482 25.7369 24.7339 29.3298 -25.6238 91.3608 
466 32.0101 25.2165 26.5691 -114.247 -79.0378 42.9023 
497 30.6536 24.9778 26.9529 -56.5926 -54.7664 -33.0291 
652 33.5003 26.2378 27.0282 -53.8611 -107.058 13.5689 
621 32.4025 27.1143 27.2226 51.115 -162.164 84.1224 
528 31.0798 24.3036 28.157 4.54239 -104.412 -5.07786 
590 31.8301 26.0887 28.0715 74.4199 -47.8921 36.0288 
683 34.4349 25.8601 28.0489 -105.988 -46.951 42.4511 
559 31.3569 25.2931 29.1798 75.5661 -101.663 -77.2458 
714 35.1308 26.1 29.2849 87.5765 -26.1224 -57.2441 
776 34.0843 25.7906 31.2705 -85.1047 -24.6417 -52.4008 
745 35.3609 26.0692 30.7047 48.4483 -40.1145 34.9078 
807 33.0695 26.8041 31.3714 6.57246 7.45422 8.32181 
838 32.4269 28.0601 31.6359 86.022 28.113 23.4687 
869 32.0314 28.736 32.8295 6.67371 67.3622 -35.2002 
900 32.2735 29.367 34.0813 -154.526 -23.7586 -41.768 
962 32.1467 27.035 34.5205 57.3675 -13.8622 14.2629 
931 32.9306 28.2146 34.6769 -77.3433 -73.0377 -7.13668 
ITEM: TIMESTEP
24000
ITEM: NUMBER OF ATOMS
32
ITEM: BOX BOUNDS pp pp pp
0 40
0 40
0 40
ITEM: ATOMS id x y z vx vy vz 
218 27.4356 24.9115 20.7511 -5.70342 -82.7791 110.668 
187 26.0922 24.8522 21.3385 -52.9711 -91.3836 115.582 
249 28.812 24.6812 21.1323 117.324 42.6449 5.97831 
156 26.9799 25.6186 22.1739 -45.7641 -111.559 43.5977 
280 28.4446 24.4185 22.5036 142.622 5.52774 21.3159 
342 29.155 22.5149 23.6994 66.8313 2.35958 89.4697 
311 28.0183 23.2117 23.1528 136.023 -86.5604 -105.846 
373 30.0075 23.6 24.0584 9.05167 69.7866 86.2954 
94 25.359 24.8037 23.788 -130.932 21.8582 56.6212 
404 31.2799 24.0524 23.5917 -88.6775 53.7614 38.3195 
125 26.2822 25.8385 23.4001 -33.1928 15.923 107.07 
1 22.1916 24.0087 24.9811 28.6769 35.148 54.3835 
435 31.9745 23.9686 24.8519 -49.2244 55.2998 -133.546 
63 24.346 24.975 24.7854 -14.3136 -90.2454 137.542 
32 23.3713 24.4388 25.6869 87.1854 -132.137 152.858 
466 31.6155 24.6386 26.0641 17.2988 54.2965 -85.2156 
652 33.5352 25.4959 26.1216 -26.0468 6.95523 -55.0157 
497 30.442 24.611 26.892 36.9161 -41.315 -141.334 
683 34.3052 25.6957 27.296 -57.0266 -13.164 -213.732 
621 32.455 26.4433 26.2634 -2.43369 76.7587 -76.8263 
528 31.151 24.0364 27.996 74.7588 -182.722 -23.9361 
559 31.2587 25.3324 28.5882 -81.3735 -223.246 25.8784 
590 31.6884 25.9932 27.3983 -41.7874 31.7397 -43.6501 
714 34.6905 25.8349 28.663 -100.43 -5.13078 -113.549 
807 32.433 25.973 31.3684 27.0631 58.7395 -18.8395 
776 33.6971 25.4523 30.9861 -5.97175 2.03706 -26.0593 
745 34.767 25.7685 30.1017 -27.3798 -64.6771 -4.40535 
838 31.8191 27.2468 31.6049 8.21565 46.4454 78.4642 
869 32.1229 27.5221 32.9779 -55.8772 53.5234 89.0433 
900 32.5678 28.3356 34.0668 -82.7469 150.452 64.6763 
962 32.5934 26.4876 34.9922 -2.56771 56.546 86.6073 
931 33.4948 27.5922 34.8789 50.7001 33.4638 68.3038 
ITEM: TIMESTEP
26000
ITEM: NUMBER OF ATOMS
32
ITEM: BOX BOUNDS pp pp pp
0 40
0 40
0 40
ITEM: ATOMS id x y z vx vy vz 
218 27.2578 25.6671 21.0226 -41.0319 49.005 45.0464 
187 26.0725 25.2866 21.7427 -14.2972 93.6284 47.8589 
249 28.5459 25.0966 21.3431 21.3279 -80.8384 33.6192 
311 27.364 23.4875 23.0073 -66.4293 -35.6265 -20.1806 
156 26.0097 25.2787 23.183 0.00900639 -2.18702 -19.7575 
280 28.0092 24.7097 22.6107 92.6884 -12.8156 58.9907 
342 28.1566 22.5629 23.7526 -58.7893 -6.98688 3.92189 
373 28.9881 23.4397 24.5106 -17.0759 62.0802 -77.867 
404 30.3383 23.848 24.2101 64.7951 6.30194 -42.5137 
94 23.8087 25.1506 24.3298 21.8315 66.8991 -95.1057 
125 25.0876 25.7864 24.1744 -113.175 -105.32 -37.2508 
1 21.4254 24.1751 25.1144 21.1482 45.487 113.848 
435 31.4039 23.3407 25.0596 145.537 -51.8099 -73.3158 
63 22.9102 25.6284 25.3352 113.958 46.9089 -46.9944 
466 30.8735 23.8173 26.2904 144.232 -27.6359 -42.8872 
32 22.3657 24.5613 26.1413 11.498 57.5412 23.105 
652 33.2832 25.079 26.4622 -117.186 -119.05 -72.5351 
621 31.994 25.7095 26.4112 -73.9478 -48.9822 -144.571 
497 29.8373 23.6162 27.2589 137.187 -56.4577 -34.4887 
590 30.9207 25.4278 27.3339 -11.1453 -71.1648 -91.4804 
683 34.0611 25.3653 27.6241 -11.9433 -68.6467 -61.8862 
528 30.8456 23.7623 28.2565 117.465 -104.402 -86.1937 
559 30.9528 25.1122 28.7331 -26.81 -8.16388 -101.88 
714 34.7964 25.5755 28.8412 31.3329 3.19728 -40.6436 
776 34.2016 24.9694 31.1109 -31.6708 15.0554 -157.29 
807 32.8297 25.3949 31.2988 -152.65 -65.5001 -138.92 
745 35.2272 25.439 30.2054 58.2491 -4.29212 -160.419 
838 32.164 26.6407 31.5454 -83.5 -49.8787 -14.2274 
869 32.2689 27.2759 32.8486 -161.76 -70.4518 -18.4768 
900 32.4676 28.019 34.0794 -116.797 -50.2911 -13.9687 
962 32.4519 26.381 35.1986 -131.656 -3.7034 29.281 
931 33.4847 27.1996 34.6564 -186.831 -18.4571 -16.7179 
ITEM: TIMESTEP
28000
ITEM: NUMBER OF ATOMS
32
ITEM: BOX BOUNDS pp pp pp
0 40
0 40
0 40
ITEM: ATOMS id x y z vx vy vz 
187 25.9641 25.5517 22.0546 26.9332 79.1307 -45.8601 
249 28.5346 25.6341 21.7637 -5.63607 158.442 -20.5574 
218 27.1793 25.8534 21.3524 -15.9159 78.4895 -58.0596 
311 27.5013 23.6446 22.8279 80.4114 -48.5434 47.4481 
156 25.3463 25.1745 23.2968 76.2261 44.5372 -60.1352 
280 27.9411 25.0076 22.913 86.7778 5.46579 91.3014 
342 28.2072 22.9281 23.8677 -43.038 -155.576 -16.0406 
404 30.587 23.8971 24.5556 109.691 162.728 90.4491 
94 23.4352 25.8173 24.7219 -11.8628 77.5915 22.8695 
125 24.8498 25.8223 24.4654 -3.95914 32.5616 -14.0007 
435 31.8041 23.3289 25.053 123.089 84.4471 25.2938 
1 21.3878 24.473 25.228 48.9245 110.899 -63.8024 
373 29.2069 23.5588 24.7048 15.9236 -11.7201 96.3279 
63 22.5266 26.3578 25.7005 -60.385 59.9255 -52.3552 
466 31.3129 23.6643 26.3488 87.6408 -60.9583 120.137 
32 22.1127 25.0991 26.3046 -37.6179 103.599 -30.2857 
652 33.3234 25.3556 26.9409 -24.5854 -91.2142 174.589 
621 32.1398 26.0504 26.4932 -3.28684 29.8471 132.786 
497 29.9621 23.9399 26.7282 27.3112 5.43243 2.20896 
590 30.9328 26.0115 27.2493 86.6234 49.0823 37.3201 
683 34.1927 25.9427 27.9259 1.34296 22.9214 138.362 
528 30.8409 24.2908 27.7868 62.1152 -91.2216 -37.2088 
559 31.0391 25.4555 28.5657 58.9401 57.6614 0.886905 
714 34.6264 26.5035 29.1718 7.37066 82.8076 113.51 
745 34.2282 26.0599 30.4757 -91.8378 -24.4759 -3.19066 
807 31.9557 25.327 31.4976 -140.015 -43.7338 -77.2581 
776 33.3768 25.2656 31.3053 -129.359 -8.67717 -144.69 
838 31.3813 26.629 31.3907 -109.137 -8.4876 -13.1212 
869 31.6968 27.2119 32.6783 57.8501 -161.353 127.874 
900 31.7764 27.6243 34.0503 88.2421 -69.7282 7.05147 
931 33.1311 27.4817 34.526 40.9348 68.0506 -24.8972 
962 32.4067 26.3959 35.1294 -32.9633 41.3714 -15.1451 
ITEM: TIMESTEP
30000
ITEM: NUMBER OF ATOMS
32
ITEM: BOX BOUNDS pp pp pp
0 40
0 40
0 40
ITEM: ATOMS id x y z vx vy vz 
218 27.1548 26.4179 22.0007 -5.24204 117.283 -65.4838 
311 27.5283 23.6099 23.3219 -14.788 -112.493 -28.3174 
187 25.8906 25.7619 22.1393 -15.4339 63.9303 1.09283 
280 27.9117 24.9949 23.2185 -4.67524 -50.1497 -145.666 
249 28.4716 25.9798 22.3427 -32.8691 66.8936 -101.724 
342 27.9192 22.6151 24.2862 -61.2287 -119.465 83.959 
156 25.0479 25.0759 23.0573 9.21071 48.0652 -14.9078 
373 29.025 23.1989 24.9856 -2.0677 -15.8856 48.2401 
435 31.4915 23.0983 25.2087 51.6165 42.1463 -16.1987 
404 30.335 23.537 24.4891 13.0564 3.00967 61.3479 
1 20.3383 25.132 24.6084 -51.4408 -68.1268 5.43816 
94 23.0493 26.2294 24.379 2.9627 -70.469 -69.2958 
125 24.388 25.9644 23.9524 173.487 87.4144 55.991 
466 31.3271 23.9087 26.364 -50.6167 54.2034 -151.056 
32 20.9715 25.6879 25.7825 -53.4786 -25.6714 57.8388 
63 21.9141 26.605 25.1897 -0.605127 -173.918 -7.63409 
621 32.4164 25.916 26.5922 24.5179 -152.794 -106.158 
497 29.903 23.8852 26.5341 2.23055 -21.1987 -200.27 
652 33.5659 25.2871 27.1792 66.7934 -32.6994 85.5501 
590 31.0611 26.2548 26.9285 -41.6778 -10.9029 -91.3801 
528 30.4159 24.6215 27.6483 19.248 -71.7108 -183.757 
559 30.7904 25.8488 28.2668 18.7396 -44.1572 -155.487 
683 34.3956 26.0082 28.135 -30.7392 -35.7263 174.059 
714 34.6406 26.6608 29.3939 -19.8179 -118.375 59.1143 
745 34.201 26.5165 30.7458 -19.8675 -193.727 -44.8257 
807 31.7888 25.3306 31.3172 -66.8994 34.8673 95.6681 
776 33.1715 25.6208 31.1739 -8.16864 -115.967 12.4346 
838 31.0614 26.5665 31.1816 -118.802 -79.9711 -174.717 
869 31.0616 26.8848 32.5876 -114.391 -13.6342 -44.1189 
900 31.1437 27.4321 33.92 -17.8824 123.036 140.742 
962 32.0113 25.9471 34.9219 97.2009 -33.0746 82.7696 
931 32.5098 27.0518 34.1368 75.6693 152.383 115.894 
ITEM: TIMESTEP
32000
ITEM: NUMBER OF ATOMS
32
ITEM: BOX BOUNDS pp pp pp
0 40
0 40
0 40
ITEM: ATOMS id x y z vx vy vz 
187 26.4422 24.5585 22.0915 25.1511 51.4896 -21.1996 
218 27.4719 25.5189 21.7466 50.932 106.436 -21.4014 
156 25.6611 24.6796 23.2924 22.6653 57.2597 -67.3326 
249 28.6634 25.9448 22.4212 -33.9871 -25.6653 -38.7768 
311 28.3019 23.6444 23.9934 -96.948 -12.9571 40.2313 
280 28.2438 24.9217 23.3543 -7.13088 -83.313 -80.5432 
94 23.3398 25.7618 23.8891 11.5492 8.20418 36.5557 