250 butane system for drude polarizability example

4500 atoms
4250 bonds
6000 angles
6750 dihedrals

5 atom types
6 bond types
6 angle types
5 dihedral types

-19.099988 19.099998 xlo xhi
-19.099913 19.099999 ylo yhi
-19.099998 19.099987 zlo zhi

Masses

   1   11.2110 # C3H
   2   11.2110 # C2H
   3    1.0080 # H
   4    0.8000 # D_C3H
   5    0.8000 # D_C2H

Bond Coeffs

   1  267.9907    1.5290 # C3H-C2H
   2  339.9894    1.0900 # C3H-H
   3  267.9907    1.5290 # C2H-C2H
   4  339.9894    1.0900 # C2H-H
   5  485.4825    0.0000 # D_C3H
   6  485.4825    0.0000 # D_C2H

Angle Coeffs

   1   58.3518  112.7000 # C3H-C2H-C2H
   2   37.4991  110.7000 # C3H-C2H-H
   3   37.4991  110.7000 # C2H-C3H-H
   4   37.4991  110.7000 # C2H-C2H-H
   5   32.9939  107.8000 # H-C3H-H
   6   32.9939  107.8000 # H-C2H-H

Dihedral Coeffs

   1    1.3000   -0.0500    0.2000    0.0000 # C3H-C2H-C2H-C3H
   2    0.0000    0.0000    0.3000    0.0000 # C3H-C2H-C2H-H
   3    0.0000    0.0000    0.3000    0.0000 # C2H-C2H-C3H-H
   4    0.0000    0.0000    0.3000    0.0000 # H-C3H-C2H-H
   5    0.0000    0.0000    0.3000    0.0000 # H-C2H-C2H-H

Atoms

      1       1       1   -2.1800 -1.493626e+01 -2.429741e+00  1.435683e+01 # C3H
      2       1       2   -2.1200 -1.365000e+01 -3.251527e+00  1.427976e+01 # C2H
      3       1       3    0.0600 -1.506267e+01 -1.811602e+00  1.344601e+01 # H
      4       1       3    0.0600 -1.491486e+01 -1.751779e+00  1.524728e+01 # H
      5       1       3    0.0600 -1.578651e+01 -3.118840e+00  1.442632e+01 # H
      6       1       2   -2.1200 -1.242057e+01 -2.353960e+00  1.416804e+01 # C2H
      7       1       3    0.0600 -1.370276e+01 -3.909433e+00  1.340322e+01 # H
      8       1       3    0.0600 -1.359477e+01 -3.889196e+00  1.519648e+01 # H
      9       1       1   -2.1800 -1.114070e+01 -3.178128e+00  1.409204e+01 # C3H
     10       1       3    0.0600 -1.234387e+01 -1.684427e+00  1.503713e+01 # H
     11       1       3    0.0600 -1.250626e+01 -1.733774e+00  1.325159e+01 # H
     12       1       3    0.0600 -1.102041e+01 -3.789996e+00  1.501884e+01 # H
     13       1       3    0.0600 -1.027615e+01 -2.515085e+00  1.400416e+01 # H
     14       1       3    0.0600 -1.117009e+01 -3.840502e+00  1.320093e+01 # H
     15       2       1   -2.1800 -1.552506e+01  5.067741e+00  5.499229e+00 # C3H
     16       2       2   -2.1200 -1.534723e+01  5.972398e+00  6.718120e+00 # C2H
     17       2       3    0.0600 -1.539506e+01  4.003230e+00  5.777778e+00 # H
     18       2       3    0.0600 -1.477448e+01  5.323418e+00  4.709140e+00 # H
     19       2       3    0.0600 -1.654235e+01  5.200775e+00  5.111867e+00 # H
     20       2       2   -2.1200 -1.395187e+01  5.829481e+00  7.319901e+00 # C2H
     21       2       3    0.0600 -1.609890e+01  5.703332e+00  7.470803e+00 # H
     22       2       3    0.0600 -1.553436e+01  7.025884e+00  6.393765e+00 # H
     23       2       1   -2.1800 -1.377947e+01  6.733914e+00  8.534554e+00 # C3H
     24       2       3    0.0600 -1.317873e+01  6.095372e+00  6.584341e+00 # H
     25       2       3    0.0600 -1.379648e+01  4.774975e+00  7.629278e+00 # H
     26       2       3    0.0600 -1.390439e+01  7.804002e+00  8.239422e+00 # H
     27       2       3    0.0600 -1.277734e+01  6.608138e+00  8.952560e+00 # H
     28       2       3    0.0600 -1.452377e+01  6.465688e+00  9.314134e+00 # H
     29       3       1   -2.1800 -8.334398e+00 -1.388742e+01  4.925799e+00 # C3H
     30       3       2   -2.1200 -8.771061e+00 -1.245466e+01  5.229515e+00 # C2H
     31       3       3    0.0600 -8.529651e+00 -1.454966e+01  5.792394e+00 # H
     32       3       3    0.0600 -7.240557e+00 -1.392175e+01  4.690595e+00 # H
     33       3       3    0.0600 -8.916585e+00 -1.425580e+01  4.072581e+00 # H
     34       3       2   -2.1200 -8.007733e+00 -1.187936e+01  6.419454e+00 # C2H
     35       3       3    0.0600 -9.846076e+00 -1.245173e+01  5.449232e+00 # H
     36       3       3    0.0600 -8.597134e+00 -1.184098e+01  4.311249e+00 # H
     37       3       1   -2.1800 -8.446386e+00 -1.045049e+01  6.717839e+00 # C3H
     38       3       3    0.0600 -6.925622e+00 -1.186992e+01  6.223412e+00 # H
     39       3       3    0.0600 -8.198848e+00 -1.251023e+01  7.312383e+00 # H
     40       3       3    0.0600 -8.236773e+00 -9.791560e+00  5.840533e+00 # H
     41       3       3    0.0600 -7.893085e+00 -1.006350e+01  7.577433e+00 # H
     42       3       3    0.0600 -9.530774e+00 -1.043029e+01  6.957363e+00 # H
     43       4       1   -2.1800 -2.794549e+00  7.625811e+00 -1.151931e+01 # C3H
     44       4       2   -2.1200 -1.656847e+00  7.774087e+00 -1.252895e+01 # C2H
     45       4       3    0.0600 -2.401137e+00  7.610432e+00 -1.048361e+01 # H
     46       4       3    0.0600 -3.357469e+00  6.675432e+00 -1.170066e+01 # H
     47       4       3    0.0600 -3.464909e+00  8.487787e+00 -1.162048e+01 # H
     48       4       2   -2.1200 -6.734240e-01  6.610550e+00 -1.243589e+01 # C2H
     49       4       3    0.0600 -1.128821e+00  8.715316e+00 -1.233091e+01 # H
     50       4       3    0.0600 -2.109304e+00  7.831600e+00 -1.354975e+01 # H
     51       4       1   -2.1800  4.587020e-01  6.762848e+00 -1.344495e+01 # C3H
     52       4       3    0.0600 -1.178729e+00  5.653678e+00 -1.263223e+01 # H
     53       4       3    0.0600 -2.442090e-01  6.579265e+00 -1.141284e+01 # H
     54       4       3    0.0600  5.042500e-02  6.768507e+00 -1.448470e+01 # H
     55       4       3    0.0600  1.153401e+00  5.923866e+00 -1.335380e+01 # H
     56       4       3    0.0600  1.014439e+00  7.704592e+00 -1.325013e+01 # H
     57       5       1   -2.1800 -2.350735e+00 -1.011967e+01  7.223382e+00 # C3H
     58       5       2   -2.1200 -2.687905e+00 -1.159895e+01  7.039633e+00 # C2H
     59       5       3    0.0600 -3.222921e+00 -9.564512e+00  7.621836e+00 # H
     60       5       3    0.0600 -2.053110e+00 -9.661718e+00  6.246301e+00 # H
     61       5       3    0.0600 -1.529943e+00 -1.003638e+01  7.945868e+00 # H
     62       5       2   -2.1200 -3.835789e+00 -1.179086e+01  6.052144e+00 # C2H
     63       5       3    0.0600 -2.968795e+00 -1.202108e+01  8.012696e+00 # H
     64       5       3    0.0600 -1.765050e+00 -1.211945e+01  6.682588e+00 # H
     65       5       1   -2.1800 -4.167726e+00 -1.326750e+01  5.872033e+00 # C3H
     66       5       3    0.0600 -3.578206e+00 -1.137660e+01  5.066483e+00 # H
     67       5       3    0.0600 -4.734225e+00 -1.126210e+01  6.433035e+00 # H
     68       5       3    0.0600 -3.284004e+00 -1.381424e+01  5.462268e+00 # H
     69       5       3    0.0600 -4.996653e+00 -1.337913e+01  5.168312e+00 # H
     70       5       3    0.0600 -4.469035e+00 -1.370863e+01  6.845838e+00 # H
     71       6       1   -2.1800 -1.157643e+01  8.378050e-01  6.904773e+00 # C3H
     72       6       2   -2.1200 -1.297084e+01  6.615970e-01  6.304527e+00 # C2H
     73       6       3    0.0600 -1.156019e+01  5.107540e-01  7.963286e+00 # H
     74       6       3    0.0600 -1.126331e+01  1.911508e+00  6.858861e+00 # H
     75       6       3    0.0600 -1.087271e+01  2.140320e-01  6.340588e+00 # H
     76       6       2   -2.1200 -1.400889e+01  1.494841e+00  7.051358e+00 # C2H
     77       6       3    0.0600 -1.324710e+01 -3.989810e-01  6.357416e+00 # H
     78       6       3    0.0600 -1.292125e+01  9.598320e-01  5.228118e+00 # H
     79       6       1   -2.1800 -1.539738e+01  1.316067e+00  6.448669e+00 # C3H
     80       6       3    0.0600 -1.375515e+01  2.564207e+00  7.011863e+00 # H
     81       6       3    0.0600 -1.403250e+01  1.177051e+00  8.114510e+00 # H
     82       6       3    0.0600 -1.540285e+01  1.656834e+00  5.384881e+00 # H
     83       6       3    0.0600 -1.612382e+01  1.914680e+00  7.004331e+00 # H
     84       6       3    0.0600 -1.570021e+01  2.490350e-01  6.507110e+00 # H
     85       7       1   -2.1800  2.781960e+00  1.083493e+01  1.430600e+01 # C3H
     86       7       2   -2.1200  1.363614e+00  1.026571e+01  1.430900e+01 # C2H
     87       7       3    0.0600  3.334118e+00  1.050907e+01  1.340233e+01 # H
     88       7       3    0.0600  3.344046e+00  1.049012e+01  1.521052e+01 # H
     89       7       3    0.0600  2.718179e+00  1.192965e+01  1.429475e+01 # H
     90       7       2   -2.1200  1.375194e+00  8.739450e+00  1.431183e+01 # C2H
     91       7       3    0.0600  8.364450e-01  1.062529e+01  1.341640e+01 # H
     92       7       3    0.0600  8.371430e-01  1.066101e+01  1.521267e+01 # H
     93       7       1   -2.1800 -4.134700e-02  8.176867e+00  1.431536e+01 # C3H
     94       7       3    0.0600  1.897692e+00  8.353153e+00  1.519911e+01 # H
     95       7       3    0.0600  1.905175e+00  8.379000e+00  1.340572e+01 # H
     96       7       3    0.0600 -5.844250e-01  8.505233e+00  1.523462e+01 # H
     97       7       3    0.0600 -7.550000e-03  7.084338e+00  1.430879e+01 # H
     98       7       3    0.0600 -5.861260e-01  8.519027e+00  1.340992e+01 # H
     99       8       1   -2.1800 -2.666295e+00  6.008249e+00  1.343176e+01 # C3H
    100       8       2   -2.1200 -4.188356e+00  6.110711e+00  1.333926e+01 # C2H
    101       8       3    0.0600 -2.365863e+00  5.406642e+00  1.431237e+01 # H
    102       8       3    0.0600 -2.210282e+00  7.026390e+00  1.352357e+01 # H
    103       8       3    0.0600 -2.295181e+00  5.507440e+00  1.252949e+01 # H
    104       8       2   -2.1200 -4.777661e+00  6.789207e+00  1.457294e+01 # C2H
    105       8       3    0.0600 -4.605578e+00  5.100392e+00  1.324375e+01 # H
    106       8       3    0.0600 -4.437963e+00  6.684366e+00  1.241261e+01 # H
    107       8       1   -2.1800 -6.295414e+00  6.889406e+00  1.447555e+01 # C3H
    108       8       3    0.0600 -4.375673e+00  7.806094e+00  1.469055e+01 # H
    109       8       3    0.0600 -4.511344e+00  6.198346e+00  1.547394e+01 # H
    110       8       3    0.0600 -6.585217e+00  7.504758e+00  1.358946e+01 # H
    111       8       3    0.0600 -6.694632e+00  7.370157e+00  1.537238e+01 # H
    112       8       3    0.0600 -6.736703e+00  5.873469e+00  1.439299e+01 # H
    113       9       1   -2.1800 -1.128316e+01 -1.537626e+01 -8.539783e+00 # C3H
    114       9       2   -2.1200 -1.143393e+01 -1.585946e+01 -9.981833e+00 # C2H
    115       9       3    0.0600 -1.194502e+01 -1.450933e+01 -8.344741e+00 # H
    116       9       3    0.0600 -1.022567e+01 -1.506950e+01 -8.338274e+00 # H
    117       9       3    0.0600 -1.157548e+01 -1.619122e+01 -7.866728e+00 # H
    118       9       2   -2.1200 -1.105454e+01 -1.476750e+01 -1.097847e+01 # C2H
    119       9       3    0.0600 -1.247653e+01 -1.615872e+01 -1.014726e+01 # H
    120       9       3    0.0600 -1.078378e+01 -1.675973e+01 -1.011180e+01 # H
    121       9       1   -2.1800 -1.120606e+01 -1.525447e+01 -1.241479e+01 # C3H
    122       9       3    0.0600 -1.001140e+01 -1.445046e+01 -1.083419e+01 # H
    123       9       3    0.0600 -1.171482e+01 -1.388905e+01 -1.082292e+01 # H
    124       9       3    0.0600 -1.052817e+01 -1.612251e+01 -1.260124e+01 # H
    125       9       3    0.0600 -1.093736e+01 -1.445411e+01 -1.310907e+01 # H
    126       9       3    0.0600 -1.226019e+01 -1.554823e+01 -1.260502e+01 # H
    127      10       1   -2.1800 -5.651597e+00 -1.250334e+01 -1.618751e+01 # C3H
    128      10       2   -2.1200 -6.361359e+00 -1.385477e+01 -1.611255e+01 # C2H
    129      10       3    0.0600 -5.108350e+00 -1.229214e+01 -1.524520e+01 # H
    130      10       3    0.0600 -6.391305e+00 -1.168196e+01 -1.636400e+01 # H
    131      10       3    0.0600 -4.922038e+00 -1.253769e+01 -1.700554e+01 # H
    132      10       2   -2.1200 -7.387172e+00 -1.388406e+01 -1.498275e+01 # C2H
    133      10       3    0.0600 -5.612105e+00 -1.463887e+01 -1.594600e+01 # H
    134      10       3    0.0600 -6.852016e+00 -1.403988e+01 -1.710000e+01 # H
    135      10       1   -2.1800 -8.092433e+00 -1.523343e+01 -1.491261e+01 # C3H
    136      10       3    0.0600 -8.151713e+00 -1.310685e+01 -1.512733e+01 # H
    137      10       3    0.0600 -6.870552e+00 -1.369551e+01 -1.401870e+01 # H
    138      10       3    0.0600 -8.642882e+00 -1.543082e+01 -1.586436e+01 # H
    139      10       3    0.0600 -8.814836e+00 -1.523322e+01 -1.409228e+01 # H
    140      10       3    0.0600 -7.349895e+00 -1.603888e+01 -1.472938e+01 # H
    141      11       1   -2.1800 -3.976000e+00  7.312331e+00 -1.608524e+01 # C3H
    142      11       2   -2.1200 -4.305751e+00  8.804457e+00 -1.606176e+01 # C2H
    143      11       3    0.0600 -3.440087e+00  7.013885e+00 -1.516252e+01 # H
    144      11       3    0.0600 -3.330886e+00  7.067825e+00 -1.696673e+01 # H
    145      11       3    0.0600 -4.915258e+00  6.748542e+00 -1.613581e+01 # H
    146      11       2   -2.1200 -3.040459e+00  9.654011e+00 -1.597872e+01 # C2H
    147      11       3    0.0600 -4.942794e+00  9.012141e+00 -1.519286e+01 # H
    148      11       3    0.0600 -4.884462e+00  9.042593e+00 -1.698829e+01 # H
    149      11       1   -2.1800 -3.374639e+00  1.114092e+01 -1.595615e+01 # C3H
    150      11       3    0.0600 -2.384277e+00  9.465069e+00 -1.684082e+01 # H
    151      11       3    0.0600 -2.488631e+00  9.393288e+00 -1.505171e+01 # H
    152      11       3    0.0600 -3.906749e+00  1.143090e+01 -1.689454e+01 # H
    153      11       3    0.0600 -2.454958e+00  1.172774e+01 -1.588802e+01 # H
    154      11       3    0.0600 -4.007863e+00  1.137260e+01 -1.507352e+01 # H
    155      12       1   -2.1800  1.625315e+01  4.989800e+00  1.142770e+01 # C3H
    156      12       2   -2.1200  1.482849e+01  4.709447e+00  1.095076e+01 # C2H
    157      12       3    0.0600  1.665507e+01  5.904330e+00  1.094835e+01 # H
    158      12       3    0.0600  1.692600e+01  4.131098e+00  1.117693e+01 # H
    159      12       3    0.0600  1.623242e+01  5.149987e+00  1.251238e+01 # H
    160      12       2   -2.1200  1.477905e+01  4.488061e+00  9.441405e+00 # C2H
    161      12       3    0.0600  1.419247e+01  5.563407e+00  1.121566e+01 # H
    162      12       3    0.0600  1.445475e+01  3.808472e+00  1.149722e+01 # H
    163      12       1   -2.1800  1.335652e+01  4.208389e+00  8.970991e+00 # C3H
    164      12       3    0.0600  1.540861e+01  3.634821e+00  9.149636e+00 # H
    165      12       3    0.0600  1.515731e+01  5.396939e+00  8.928856e+00 # H
    166      12       3    0.0600  1.296594e+01  3.280194e+00  9.454409e+00 # H
    167      12       3    0.0600  1.334511e+01  4.061859e+00  7.887846e+00 # H
    168      12       3    0.0600  1.270054e+01  5.069992e+00  9.217972e+00 # H
    169      13       1   -2.1800  1.168847e+01  1.444316e+00 -2.843915e+00 # C3H
    170      13       2   -2.1200  1.048214e+01  8.631980e-01 -3.580652e+00 # C2H
    171      13       3    0.0600  1.221467e+01  6.565690e-01 -2.269245e+00 # H
    172      13       3    0.0600  1.136428e+01  2.246704e+00 -2.133945e+00 # H
    173      13       3    0.0600  1.238539e+01  1.853839e+00 -3.585007e+00 # H
    174      13       2   -2.1200  9.471455e+00  2.614240e-01 -2.608031e+00 # C2H
    175      13       3    0.0600  1.083094e+01  8.600200e-02 -4.272201e+00 # H
    176      13       3    0.0600  1.001713e+01  1.685049e+00 -4.179312e+00 # H
    177      13       1   -2.1800  8.270338e+00 -3.161270e-01 -3.347527e+00 # C3H
    178      13       3    0.0600  9.104626e+00  1.022117e+00 -1.903569e+00 # H
    179      13       3    0.0600  9.962843e+00 -5.478290e-01 -2.028818e+00 # H
    180      13       3    0.0600  7.743829e+00  4.886630e-01 -3.915769e+00 # H
    181      13       3    0.0600  7.565737e+00 -7.480550e-01 -2.632138e+00 # H
    182      13       3    0.0600  8.603281e+00 -1.116017e+00 -4.042511e+00 # H
    183      14       1   -2.1800 -5.995849e+00 -1.073010e+01  1.033583e+01 # C3H
    184      14       2   -2.1200 -6.310877e+00 -1.222147e+01  1.022500e+01 # C2H
    185      14       3    0.0600 -5.304789e+00 -1.041359e+01  9.529649e+00 # H
    186      14       3    0.0600 -5.519420e+00 -1.050296e+01  1.132296e+01 # H
    187      14       3    0.0600 -6.931005e+00 -1.016741e+01  1.022868e+01 # H
    188      14       2   -2.1200 -5.048134e+00 -1.306924e+01  1.035294e+01 # C2H
    189      14       3    0.0600 -6.781744e+00 -1.241205e+01  9.252419e+00 # H
    190      14       3    0.0600 -7.044938e+00 -1.247776e+01  1.102845e+01 # H
    191      14       1   -2.1800 -5.367699e+00 -1.455542e+01  1.024229e+01 # C3H
    192      14       3    0.0600 -4.557156e+00 -1.289728e+01  1.132188e+01 # H
    193      14       3    0.0600 -4.340516e+00 -1.279037e+01  9.544636e+00 # H
    194      14       3    0.0600 -6.057847e+00 -1.486377e+01  1.106474e+01 # H
    195      14       3    0.0600 -4.448589e+00 -1.514079e+01  1.032823e+01 # H
    196      14       3    0.0600 -5.832273e+00 -1.476971e+01  9.256427e+00 # H
    197      15       1   -2.1800 -2.244281e+00 -1.240359e+01 -1.164899e+01 # C3H
    198      15       2   -2.1200 -1.886174e+00 -1.388910e+01 -1.162130e+01 # C2H
    199      15       3    0.0600 -2.983319e+00 -1.216287e+01 -1.085934e+01 # H
    200      15       3    0.0600 -2.679894e+00 -1.212438e+01 -1.264160e+01 # H
    201      15       3    0.0600 -1.334330e+00 -1.182207e+01 -1.145810e+01 # H
    202      15       2   -2.1200 -3.112803e+00 -1.476319e+01 -1.186818e+01 # C2H
    203      15       3    0.0600 -1.456615e+00 -1.413102e+01 -1.064105e+01 # H
    204      15       3    0.0600 -1.106316e+00 -1.406867e+01 -1.240209e+01 # H
    205      15       1   -2.1800 -2.750328e+00 -1.624336e+01 -1.184011e+01 # C3H
    206      15       3    0.0600 -3.562003e+00 -1.454066e+01 -1.284705e+01 # H
    207      15       3    0.0600 -3.867238e+00 -1.456063e+01 -1.107974e+01 # H
    208      15       3    0.0600 -2.011687e+00 -1.647487e+01 -1.264548e+01 # H
    209      15       3    0.0600 -3.644536e+00 -1.684846e+01 -1.201056e+01 # H
    210      15       3    0.0600 -2.326912e+00 -1.651002e+01 -1.084850e+01 # H
    211      16       1   -2.1800 -1.300282e+01 -4.384397e+00 -7.109799e+00 # C3H
    212      16       2   -2.1200 -1.452754e+01 -4.312166e+00 -7.185511e+00 # C2H
    213      16       3    0.0600 -1.259344e+01 -4.953877e+00 -7.967574e+00 # H
    214      16       3    0.0600 -1.268129e+01 -4.886879e+00 -6.162637e+00 # H
    215      16       3    0.0600 -1.260304e+01 -3.364067e+00 -7.151336e+00 # H
    216      16       2   -2.1200 -1.515446e+01 -5.703200e+00 -7.145456e+00 # C2H
    217      16       3    0.0600 -1.481181e+01 -3.810181e+00 -8.118862e+00 # H
    218      16       3    0.0600 -1.488462e+01 -3.690269e+00 -6.327722e+00 # H
    219      16       1   -2.1800 -1.667480e+01 -5.625665e+00 -7.220674e+00 # C3H
    220      16       3    0.0600 -1.488532e+01 -6.227771e+00 -6.217083e+00 # H
    221      16       3    0.0600 -1.477953e+01 -6.295015e+00 -8.006284e+00 # H
    222      16       3    0.0600 -1.707565e+01 -5.056911e+00 -6.346814e+00 # H
    223      16       3    0.0600 -1.709999e+01 -6.632414e+00 -7.198926e+00 # H
    224      16       3    0.0600 -1.698168e+01 -5.132818e+00 -8.167564e+00 # H
    225      17       1   -2.1800  1.056488e+01 -7.403001e+00 -4.890691e+00 # C3H
    226      17       2   -2.1200  9.908173e+00 -7.936974e+00 -3.618159e+00 # C2H
    227      17       3    0.0600  9.937024e+00 -6.618248e+00 -5.357206e+00 # H
    228      17       3    0.0600  1.071162e+01 -8.229043e+00 -5.631712e+00 # H
    229      17       3    0.0600  1.153102e+01 -6.957956e+00 -4.623980e+00 # H
    230      17       2   -2.1200  8.547418e+00 -8.562300e+00 -3.912974e+00 # C2H
    231      17       3    0.0600  9.783529e+00 -7.108121e+00 -2.910057e+00 # H
    232      17       3    0.0600  1.060077e+01 -8.687878e+00 -3.163726e+00 # H
    233      17       1   -2.1800  7.897065e+00 -9.093649e+00 -2.641043e+00 # C3H
    234      17       3    0.0600  8.645381e+00 -9.398350e+00 -4.620722e+00 # H
    235      17       3    0.0600  7.885256e+00 -7.794212e+00 -4.364000e+00 # H
    236      17       3    0.0600  8.534938e+00 -9.889304e+00 -2.185141e+00 # H
    237      17       3    0.0600  6.921935e+00 -9.528272e+00 -2.875627e+00 # H
    238      17       3    0.0600  7.749389e+00 -8.264238e+00 -1.917201e+00 # H
    239      18       1   -2.1800  1.271781e+01 -9.086170e-01 -1.089761e+01 # C3H
    240      18       2   -2.1200  1.241870e+01  3.210600e-01 -1.004078e+01 # C2H
    241      18       3    0.0600  1.371815e+01 -8.265170e-01 -1.136692e+01 # H
    242      18       3    0.0600  1.195240e+01 -1.017240e+00 -1.170714e+01 # H
    243      18       3    0.0600  1.271241e+01 -1.794006e+00 -1.025055e+01 # H
    244      18       2   -2.1200  1.242257e+01  1.597866e+00 -1.087705e+01 # C2H
    245      18       3    0.0600  1.317975e+01  3.974320e-01 -9.254068e+00 # H
    246      18       3    0.0600  1.142356e+01  1.669570e-01 -9.554980e+00 # H
    247      18       1   -2.1800  1.212329e+01  2.820946e+00 -1.001821e+01 # C3H
    248      18       3    0.0600  1.166582e+01  1.547023e+00 -1.167344e+01 # H
    249      18       3    0.0600  1.342074e+01  1.721076e+00 -1.134644e+01 # H
    250      18       3    0.0600  1.110961e+01  2.730186e+00 -9.557777e+00 # H
    251      18       3    0.0600  1.213983e+01  3.722358e+00 -1.063626e+01 # H
    252      18       3    0.0600  1.289324e+01  2.922727e+00 -9.224175e+00 # H
    253      19       1   -2.1800  7.174242e+00  2.172726e+00  1.574307e+01 # C3H
    254      19       2   -2.1200  7.323586e+00  3.602082e+00  1.626304e+01 # C2H
    255      19       3    0.0600  8.148515e+00  1.778509e+00  1.539227e+01 # H
    256      19       3    0.0600  6.449073e+00  2.139915e+00  1.489099e+01 # H
    257      19       3    0.0600  6.821426e+00  1.537972e+00  1.656480e+01 # H
    258      19       2   -2.1200  7.825643e+00  4.543116e+00  1.517125e+01 # C2H
    259      19       3    0.0600  8.033510e+00  3.601599e+00  1.709967e+01 # H
    260      19       3    0.0600  6.327007e+00  3.933640e+00  1.664639e+01 # H
    261      19       1   -2.1800  7.972334e+00  5.967082e+00  1.569461e+01 # C3H
    262      19       3    0.0600  7.129455e+00  4.562701e+00  1.432012e+01 # H
    263      19       3    0.0600  8.813094e+00  4.186739e+00  1.481101e+01 # H
    264      19       3    0.0600  6.982750e+00  6.355934e+00  1.603712e+01 # H
    265      19       3    0.0600  8.340483e+00  6.619668e+00  1.489874e+01 # H
    266      19       3    0.0600  8.699683e+00  5.988243e+00  1.653377e+01 # H
    267      20       1   -2.1800  8.322770e-01  1.145716e+01 -8.111100e-01 # C3H
    268      20       2   -2.1200  1.201234e+00  1.293879e+01 -7.449850e-01 # C2H
    269      20       3    0.0600  1.206635e+00  1.091886e+01  8.206600e-02 # H
    270      20       3    0.0600  1.274998e+00  1.098386e+01 -1.723787e+00 # H
    271      20       3    0.0600 -2.607460e-01  1.137075e+01 -8.324900e-01 # H
    272      20       2   -2.1200  2.714152e+00  1.313530e+01 -6.995610e-01 # C2H
    273      20       3    0.0600  7.489930e-01  1.337598e+01  1.540590e-01 # H
    274      20       3    0.0600  7.616330e-01  1.344220e+01 -1.641302e+00 # H
    275      20       1   -2.1800  3.076800e+00  1.461426e+01 -6.342480e-01 # C3H
    276      20       3    0.0600  3.192062e+00  1.270615e+01 -1.592265e+00 # H
    277      20       3    0.0600  3.119658e+00  1.262356e+01  1.979560e-01 # H
    278      20       3    0.0600  2.701615e+00  1.514385e+01 -1.543404e+00 # H
    279      20       3    0.0600  4.163054e+00  1.472933e+01 -5.940540e-01 # H
    280      20       3    0.0600  2.639050e+00  1.507074e+01  2.788090e-01 # H
    281      21       1   -2.1800 -3.862783e+00  9.354916e+00  1.169848e+01 # C3H
    282      21       2   -2.1200 -3.208864e+00  1.066159e+01  1.125046e+01 # C2H
    283      21       3    0.0600 -4.935774e+00  9.337852e+00  1.142267e+01 # H
    284      21       3    0.0600 -3.778320e+00  9.235304e+00  1.280823e+01 # H
    285      21       3    0.0600 -3.362803e+00  8.522359e+00  1.118908e+01 # H
    286      21       2   -2.1200 -3.865464e+00  1.186967e+01  1.191304e+01 # C2H
    287      21       3    0.0600 -3.301325e+00  1.074768e+01  1.016051e+01 # H
    288      21       3    0.0600 -2.122446e+00  1.060789e+01  1.150906e+01 # H
    289      21       1   -2.1800 -3.209506e+00  1.316994e+01  1.146346e+01 # C3H
    290      21       3    0.0600 -3.784904e+00  1.180799e+01  1.300811e+01 # H
    291      21       3    0.0600 -4.940807e+00  1.189366e+01  1.163935e+01 # H
    292      21       3    0.0600 -2.131066e+00  1.317858e+01  1.175447e+01 # H
    293      21       3    0.0600 -3.701184e+00  1.401990e+01  1.194370e+01 # H
    294      21       3    0.0600 -3.306610e+00  1.328130e+01  1.036262e+01 # H
    295      22       1   -2.1800 -1.687879e+00  5.438799e+00 -3.787487e+00 # C3H
    296      22       2   -2.1200 -9.292890e-01  4.898748e+00 -4.999350e+00 # C2H
    297      22       3    0.0600 -9.848780e-01  5.839448e+00 -3.030556e+00 # H
    298      22       3    0.0600 -2.297138e+00  4.627954e+00 -3.313859e+00 # H
    299      22       3    0.0600 -2.339017e+00  6.256246e+00 -4.119784e+00 # H
    300      22       2   -2.1200  1.017900e-02  3.761359e+00 -4.607755e+00 # C2H
    301      22       3    0.0600 -3.479420e-01  5.715508e+00 -5.445308e+00 # H
    302      22       3    0.0600 -1.682685e+00  4.551879e+00 -5.749107e+00 # H
    303      22       1   -2.1800  7.637500e-01  3.226040e+00 -5.819640e+00 # C3H
    304      22       3    0.0600 -5.493930e-01  2.927860e+00 -4.158708e+00 # H
    305      22       3    0.0600  7.427700e-01  4.136079e+00 -3.862948e+00 # H
    306      22       3    0.0600  4.518500e-02  2.817662e+00 -6.571098e+00 # H
    307      22       3    0.0600  1.435185e+00  2.419627e+00 -5.513570e+00 # H
    308      22       3    0.0600  1.370334e+00  4.036917e+00 -6.275941e+00 # H
    309      23       1   -2.1800  1.422700e+01  2.752050e+00  1.410561e+00 # C3H
    310      23       2   -2.1200  1.397340e+01  3.425227e+00  6.213900e-02 # C2H
    311      23       3    0.0600  1.431925e+01  3.507661e+00  2.215680e+00 # H
    312      23       3    0.0600  1.517054e+01  2.150745e+00  1.376580e+00 # H
    313      23       3    0.0600  1.337342e+01  2.103829e+00  1.642550e+00 # H
    314      23       2   -2.1200  1.512045e+01  4.356477e+00 -3.208020e-01 # C2H
    315      23       3    0.0600  1.304105e+01  4.000428e+00  1.239220e-01 # H
    316      23       3    0.0600  1.384158e+01  2.621109e+00 -7.034190e-01 # H
    317      23       1   -2.1800  1.486300e+01  5.024763e+00 -1.666243e+00 # C3H
    318      23       3    0.0600  1.606806e+01  3.802758e+00 -3.909100e-01 # H
    319      23       3    0.0600  1.522678e+01  5.140255e+00  4.578040e-01 # H
    320      23       3    0.0600  1.478040e+01  4.253741e+00 -2.470295e+00 # H
    321      23       3    0.0600  1.569236e+01  5.692006e+00 -1.914751e+00 # H
    322      23       3    0.0600  1.392931e+01  5.624403e+00 -1.617857e+00 # H
    323      24       1   -2.1800  1.482559e+01  1.559134e+01 -3.410340e-01 # C3H
    324      24       2   -2.1200  1.410724e+01  1.563410e+01  1.007254e+00 # C2H
    325      24       3    0.0600  1.484219e+01  1.659539e+01 -8.093180e-01 # H
    326      24       3    0.0600  1.431000e+01  1.488222e+01 -1.036951e+00 # H
    327      24       3    0.0600  1.586129e+01  1.527180e+01 -1.742000e-01 # H
    328      24       2   -2.1200  1.265732e+01  1.608511e+01  8.526380e-01 # C2H
    329      24       3    0.0600  1.463782e+01  1.633054e+01  1.668617e+00 # H
    330      24       3    0.0600  1.415984e+01  1.461169e+01  1.456648e+00 # H
    331      24       1   -2.1800  1.194535e+01  1.612555e+01  2.199699e+00 # C3H
    332      24       3    0.0600  1.210229e+01  1.540125e+01  1.940280e-01 # H
    333      24       3    0.0600  1.263898e+01  1.709981e+01  4.033280e-01 # H
    334      24       3    0.0600  1.192783e+01  1.510672e+01  2.657380e+00 # H
    335      24       3    0.0600  1.091309e+01  1.645879e+01  2.064837e+00 # H
    336      24       3    0.0600  1.246084e+01  1.683784e+01  2.878372e+00 # H
    337      25       1   -2.1800 -9.862215e+00 -3.611476e+00 -7.561508e+00 # C3H
    338      25       2   -2.1200 -8.344730e+00 -3.488038e+00 -7.428360e+00 # C2H
    339      25       3    0.0600 -1.037080e+01 -2.764964e+00 -7.059078e+00 # H
    340      25       3    0.0600 -1.021931e+01 -4.566470e+00 -7.099492e+00 # H
    341      25       3    0.0600 -1.012186e+01 -3.586250e+00 -8.626671e+00 # H
    342      25       2   -2.1200 -7.910169e+00 -3.503286e+00 -5.965307e+00 # C2H
    343      25       3    0.0600 -8.024185e+00 -2.548020e+00 -7.894792e+00 # H
    344      25       3    0.0600 -7.880882e+00 -4.336401e+00 -7.989771e+00 # H
    345      25       1   -2.1800 -6.396294e+00 -3.380497e+00 -5.838001e+00 # C3H
    346      25       3    0.0600 -8.218927e+00 -4.437769e+00 -5.474497e+00 # H
    347      25       3    0.0600 -8.387740e+00 -2.652556e+00 -5.436132e+00 # H
    348      25       3    0.0600 -5.895755e+00 -4.243352e+00 -6.340733e+00 # H
    349      25       3    0.0600 -6.110264e+00 -3.385195e+00 -4.783027e+00 # H
    350      25       3    0.0600 -6.054993e+00 -2.426203e+00 -6.292439e+00 # H
    351      26       1   -2.1800  5.315447e+00  8.548243e+00  1.590465e+01 # C3H
    352      26       2   -2.1200  5.870946e+00  9.954514e+00  1.568205e+01 # C2H
    353      26       3    0.0600  5.640072e+00  8.148363e+00  1.688566e+01 # H
    354      26       3    0.0600  5.672201e+00  7.854795e+00  1.510162e+01 # H
    355      26       3    0.0600  4.220102e+00  8.601308e+00  1.589958e+01 # H
    356      26       2   -2.1200  7.397224e+00  9.958928e+00  1.568966e+01 # C2H
    357      26       3    0.0600  5.499839e+00  1.061145e+01  1.647871e+01 # H
    358      26       3    0.0600  5.477123e+00  1.032828e+01  1.470468e+01 # H