LAMMPS (17 Apr 2024)
  using 1 OpenMP thread(s) per MPI task
WARNING: Atom style hybrid defines both, per-type and per-atom masses; both must be set, but only per-atom masses will be used (src/atom_vec_hybrid.cpp:132)
Reading data file ...
  orthogonal box = (-20 -20 -20) to (20 20 20)
  1 by 1 by 1 MPI processor grid
  reading atoms ...
  10 atoms
  reading velocities ...
  10 velocities
  scanning bonds ...
  1 = max bonds/atom
  10 ellipsoids
  orthogonal box = (-20 -20 -20) to (20 20 20)
  1 by 1 by 1 MPI processor grid
  reading bonds ...
  8 bonds
Finding 1-2 1-3 1-4 neighbors ...
  special bond factors lj:    0        0        0       
  special bond factors coul:  0        0        0       
     2 = max # of 1-2 neighbors
     2 = max # of 1-3 neighbors
     2 = max # of 1-4 neighbors
     4 = max # of special neighbors
  special bonds CPU = 0.000 seconds
  read_data CPU = 0.005 seconds
Setting atom values ...
  10 settings made for mass
10 atoms in group all
Reading oxdna potential (fene) file oxdna2.lj with DATE: 2024-04-21
Finding 1-2 1-3 1-4 neighbors ...
  special bond factors lj:    0        1        1       
  special bond factors coul:  0        0        0       
     2 = max # of 1-2 neighbors
     2 = max # of 1-3 neighbors
     2 = max # of 1-4 neighbors
     4 = max # of special neighbors
  special bonds CPU = 0.000 seconds
Reading oxdna potential (excv) file oxdna2.lj with DATE: 2024-04-21
Reading oxdna potential (stk) file oxdna2.lj with DATE: 2024-04-21
Reading oxdna potential (hbond) file oxdna2.lj with DATE: 2024-04-21
Reading oxdna potential (hbond) file oxdna2.lj with DATE: 2024-04-21
Reading oxdna potential (hbond) file oxdna2.lj with DATE: 2024-04-21
Reading oxdna potential (xstk) file oxdna2.lj with DATE: 2024-04-21
Reading oxdna potential (coaxstk) file oxdna2.lj with DATE: 2024-04-21
Reading oxdna potential (dh) file oxdna2.lj with DATE: 2024-04-21
Generated 0 of 6 mixed pair_coeff terms from geometric mixing rule
Neighbor list info ...
  update: every = 1 steps, delay = 0 steps, check = yes
  max neighbors/atom: 2000, page size: 100000
  master list distance cutoff = 4.3014979
  ghost atom cutoff = 4.3014979
  binsize = 2.150749, bins = 19 19 19
  5 neighbor lists, perpetual/occasional/extra = 5 0 0
  (1) pair oxdna2/excv, perpetual
      attributes: half, newton on
      pair build: half/bin/newton
      stencil: half/bin/3d
      bin: standard
  (2) pair oxdna2/hbond, perpetual, copy from (1)
      attributes: half, newton on
      pair build: copy
      stencil: none
      bin: none
  (3) pair oxdna2/xstk, perpetual, copy from (1)
      attributes: half, newton on
      pair build: copy
      stencil: none
      bin: none
  (4) pair oxdna2/coaxstk, perpetual, copy from (1)
      attributes: half, newton on
      pair build: copy
      stencil: none
      bin: none
  (5) pair oxdna2/dh, perpetual, copy from (1)
      attributes: half, newton on
      pair build: copy
      stencil: none
      bin: none
Setting up Verlet run ...
  Unit style    : lj
  Current step  : 0
  Time step     : 1e-05
WARNING: Communication cutoff adjusted to 4.301497916929199 (src/comm.cpp:739)
0  ekin = 1.10853632272819 |  erot = 2.81573649976629 | epot = -12.4543859162177 | etot = -8.53011309372317
Per MPI rank memory allocation (min/avg/max) = 7.467 | 7.467 | 7.467 Mbytes
   Step          Temp          E_pair         E_mol          TotEng         Press          Volume    
         0   0.082113802   -1.3525648      0.10712616    -1.134585      -6.3346859e-05  64000        
1000  ekin = 1.07575988625876 |  erot = 2.91276427031684 | epot = -12.5186372505575 | etot = -8.53011309398185
2000  ekin = 1.05292961692331 |  erot = 3.00631080619825 | epot = -12.5893535174382 | etot = -8.53011309431664
3000  ekin = 1.0404793567822 |  erot = 3.09099198685794 | epot = -12.6615844383056 | etot = -8.5301130946655
4000  ekin = 1.03797149598187 |  erot = 3.16182957406825 | epot = -12.7299141650203 | etot = -8.53011309497013
5000  ekin = 1.04436175992637 |  erot = 3.21484050133169 | epot = -12.7893153564536 | etot = -8.53011309519554
6000  ekin = 1.058261961669 |  erot = 3.24734130245542 | epot = -12.8357163594551 | etot = -8.53011309533065
7000  ekin = 1.07813397987529 |  erot = 3.25800057687377 | epot = -12.8662476521273 | etot = -8.5301130953782
8000  ekin = 1.10242233608904 |  erot = 3.2467735191286 | epot = -12.8793089505567 | etot = -8.53011309533902
9000  ekin = 1.129661928832 |  erot = 3.21481512313353 | epot = -12.8745901471786 | etot = -8.53011309521308
10000  ekin = 1.1585736522661 |  erot = 3.16442800302926 | epot = -12.8531147503057 | etot = -8.53011309501037
11000  ekin = 1.18812580536523 |  erot = 3.09887248462025 | epot = -12.8171113847418 | etot = -8.53011309475631
12000  ekin = 1.21753508254996 |  erot = 3.02200194393143 | epot = -12.769650120973 | etot = -8.53011309449156
13000  ekin = 1.2462058323433 |  erot = 2.9377430603182 | epot = -12.714061986917 | etot = -8.53011309425547
14000  ekin = 1.27363535726518 |  erot = 2.84960621277607 | epot = -12.6533546641222 | etot = -8.53011309408095
15000  ekin = 1.29932429763742 |  erot = 2.76035703495641 | epot = -12.5897944265541 | etot = -8.53011309396027
16000  ekin = 1.32272478678523 |  erot = 2.6720937631297 | epot = -12.524931643808 | etot = -8.53011309389307
17000  ekin = 1.34324184048103 |  erot = 2.58606256429308 | epot = -12.4594174987189 | etot = -8.53011309394479
18000  ekin = 1.36028413036255 |  erot = 2.50244725823279 | epot = -12.3928444826193 | etot = -8.53011309402401
19000  ekin = 1.37335728231339 |  erot = 2.42064483701932 | epot = -12.3241152134301 | etot = -8.53011309409738
20000  ekin = 1.38218242867047 |  erot = 2.34004763399705 | epot = -12.2523431568014 | etot = -8.53011309413387
21000  ekin = 1.38682228720779 |  erot = 2.26037911407475 | epot = -12.177314495392 | etot = -8.5301130941095
22000  ekin = 1.38779551760397 |  erot = 2.18193012018469 | epot = -12.0998387317994 | etot = -8.53011309401076
23000  ekin = 1.38615925697244 |  erot = 2.10566093427178 | epot = -12.0219332850808 | etot = -8.53011309383658
24000  ekin = 1.38353970337949 |  erot = 2.03315888827115 | epot = -11.9468116852494 | etot = -8.53011309359879
25000  ekin = 1.38209065002972 |  erot = 1.96646602495005 | epot = -11.878669768302 | etot = -8.53011309332227
26000  ekin = 1.38436080324083 |  erot = 1.90779815728269 | epot = -11.8222720535672 | etot = -8.53011309304368
27000  ekin = 1.39305591970662 |  erot = 1.85918805302253 | epot = -11.7823570655392 | etot = -8.53011309281007
28000  ekin = 1.41069326836991 |  erot = 1.82208843481178 | epot = -11.7628947958561 | etot = -8.53011309267439
29000  ekin = 1.43917287732209 |  erot = 1.79698086203697 | epot = -11.7662668320471 | etot = -8.53011309268808
30000  ekin = 1.47932849918245 |  erot = 1.78306055931658 | epot = -11.7925021513844 | etot = -8.53011309288539
31000  ekin = 1.53057628219298 |  erot = 1.77809666847709 | epot = -11.8387860439325 | etot = -8.53011309326246
32000  ekin = 1.59082591350721 |  erot = 1.77861870572279 | epot = -11.8995577129103 | etot = -8.53011309368031
33000  ekin = 1.65668666319888 |  erot = 1.78084924850009 | epot = -11.9676490059449 | etot = -8.5301130942459
34000  ekin = 1.72400978324414 |  erot = 1.78052778818395 | epot = -12.0346506661702 | etot = -8.53011309474212
35000  ekin = 1.7886123825629 |  erot = 1.77409588873529 | epot = -12.0928213663778 | etot = -8.53011309507956
36000  ekin = 1.84692171859354 |  erot = 1.75957152442153 | epot = -12.1366063382347 | etot = -8.53011309521964
37000  ekin = 1.89635505211536 |  erot = 1.73677582238486 | epot = -12.1632439696813 | etot = -8.53011309518103
38000  ekin = 1.93537564106391 |  erot = 1.70707948670454 | epot = -12.1725682227891 | etot = -8.53011309502064
39000  ekin = 1.96330319937479 |  erot = 1.6728321302729 | epot = -12.1662484244538 | etot = -8.53011309480614
40000  ekin = 1.98002136738555 |  erot = 1.63672123005991 | epot = -12.1468556920407 | etot = -8.53011309459527
41000  ekin = 1.98570586801292 |  erot = 1.60124465405442 | epot = -12.1170636164834 | etot = -8.53011309441608
42000  ekin = 1.98063892667626 |  erot = 1.56840871961079 | epot = -12.079160740572 | etot = -8.5301130942849
43000  ekin = 1.96512381188785 |  erot = 1.53942032547732 | epot = -12.0346572315593 | etot = -8.53011309419408
44000  ekin = 1.93948381096135 |  erot = 1.51506739642158 | epot = -11.984664301514 | etot = -8.53011309413104
45000  ekin = 1.90411789628636 |  erot = 1.49583019895571 | epot = -11.930061189321 | etot = -8.5301130940789
46000  ekin = 1.85959054249402 |  erot = 1.48193663738997 | epot = -11.8716402739046 | etot = -8.53011309402065
47000  ekin = 1.80673127931967 |  erot = 1.47351008731115 | epot = -11.8103544605731 | etot = -8.53011309394226
48000  ekin = 1.74672194665333 |  erot = 1.47069179369331 | epot = -11.7475268341802 | etot = -8.53011309383356
49000  ekin = 1.681153790432 |  erot = 1.47372603796066 | epot = -11.6849929220833 | etot = -8.53011309369066
50000  ekin = 1.61204360764113 |  erot = 1.48300481815587 | epot = -11.6251615193115 | etot = -8.53011309351451
51000  ekin = 1.54180688827886 |  erot = 1.49907572686268 | epot = -11.5709957084487 | etot = -8.53011309330713
52000  ekin = 1.47319223880804 |  erot = 1.52262764796927 | epot = -11.5259329798625 | etot = -8.53011309308518
53000  ekin = 1.40918336186017 |  erot = 1.55438319093874 | epot = -11.4936796456586 | etot = -8.53011309285965
54000  ekin = 1.35286923285663 |  erot = 1.59499333649053 | epot = -11.4779756619988 | etot = -8.53011309265166
55000  ekin = 1.3072761010404 |  erot = 1.64486884964686 | epot = -11.4822580431747 | etot = -8.53011309248741
56000  ekin = 1.2751604136272 |  erot = 1.70395929448973 | epot = -11.509232800514 | etot = -8.53011309239707
57000  ekin = 1.25877821290722 |  erot = 1.77153045261034 | epot = -11.5604217579235 | etot = -8.53011309240593
58000  ekin = 1.25966981557396 |  erot = 1.84600740239507 | epot = -11.6357903104947 | etot = -8.53011309252566
59000  ekin = 1.27850991703401 |  erot = 1.92494493442932 | epot = -11.7335679442149 | etot = -8.53011309275159
60000  ekin = 1.31505846517354 |  erot = 2.00506933713746 | epot = -11.8502408954026 | etot = -8.53011309309164
61000  ekin = 1.36820967857684 |  erot = 2.08251311350662 | epot = -11.9808358855456 | etot = -8.53011309346211
62000  ekin = 1.43610935375693 |  erot = 2.15340897405314 | epot = -12.1196314216668 | etot = -8.5301130938567
63000  ekin = 1.51630533152245 |  erot = 2.2141008432564 | epot = -12.2605192690214 | etot = -8.53011309424256
64000  ekin = 1.60588594281051 |  erot = 2.26150680600727 | epot = -12.3975058434118 | etot = -8.53011309459399
65000  ekin = 1.70157559823965 |  erot = 2.29343173619353 | epot = -12.5251204293296 | etot = -8.53011309489646
66000  ekin = 1.79977612979946 |  erot = 2.3087594351045 | epot = -12.6386486600531 | etot = -8.53011309514917
67000  ekin = 1.89656896474264 |  erot = 2.30747600160479 | epot = -12.7341580617102 | etot = -8.53011309536274
68000  ekin = 1.98772340358698 |  erot = 2.29052837543627 | epot = -12.8083648745724 | etot = -8.53011309554913
69000  ekin = 2.06877558194363 |  erot = 2.25958722526848 | epot = -12.8584759029224 | etot = -8.53011309571026
70000  ekin = 2.13523440531619 |  erot = 2.21681911735293 | epot = -12.8821666185007 | etot = -8.53011309583153
71000  ekin = 2.18292944014516 |  erot = 2.16475080910303 | epot = -12.8777933451316 | etot = -8.53011309588342
72000  ekin = 2.20845503567845 |  erot = 2.10623867450836 | epot = -12.8448068060206 | etot = -8.53011309583374
73000  ekin = 2.20961374982505 |  erot = 2.04448327477864 | epot = -12.784210120232 | etot = -8.53011309562831
74000  ekin = 2.18583088959709 |  erot = 1.98307376954797 | epot = -12.6990177544748 | etot = -8.53011309532969
75000  ekin = 2.13819357127786 |  erot = 1.92577296068263 | epot = -12.5940796268929 | etot = -8.53011309493236
76000  ekin = 2.06931387379192 |  erot = 1.87621391736368 | epot = -12.4756408856272 | etot = -8.53011309447156
77000  ekin = 1.9831459935215 |  erot = 1.83766509006144 | epot = -12.3509241775703 | etot = -8.53011309398734
78000  ekin = 1.88464003549136 |  erot = 1.81276644965514 | epot = -12.2275195786651 | etot = -8.53011309351862
79000  ekin = 1.77934330540969 |  erot = 1.80331865972863 | epot = -12.1127750582401 | etot = -8.53011309310181
80000  ekin = 1.67297594037631 |  erot = 1.81012474896281 | epot = -12.0132137821111 | etot = -8.530113092772
81000  ekin = 1.57099416873045 |  erot = 1.8328690442996 | epot = -11.9339763055923 | etot = -8.53011309256227
82000  ekin = 1.47816348110906 |  erot = 1.87002999045995 | epot = -11.8783065640684 | etot = -8.53011309249942
83000  ekin = 1.398187784623 |  erot = 1.91885160298036 | epot = -11.8471524801993 | etot = -8.5301130925959
84000  ekin = 1.3334581452956 |  erot = 1.97542175599055 | epot = -11.8389929941294 | etot = -8.53011309284326
85000  ekin = 1.28497532516075 |  erot = 2.0349061774483 | epot = -11.8499945958141 | etot = -8.530113093205
86000  ekin = 1.25246025395582 |  erot = 2.09197660059406 | epot = -11.8745499481781 | etot = -8.53011309362821
87000  ekin = 1.23461285408012 |  erot = 2.14137296784411 | epot = -11.9060989159744 | etot = -8.53011309405018
88000  ekin = 1.22943812073932 |  erot = 2.17852719424197 | epot = -11.9380784093963 | etot = -8.53011309441497
89000  ekin = 1.23455364871357 |  erot = 2.20012041252108 | epot = -11.9647871559195 | etot = -8.53011309468488
90000  ekin = 1.247425805765 |  erot = 2.20445455177206 | epot = -11.9819934523813 | etot = -8.53011309484426
91000  ekin = 1.265533830847 |  erot = 2.19157144961211 | epot = -11.9872183753549 | etot = -8.53011309489578
92000  ekin = 1.28623000858103 |  erot = 2.16295140457794 | epot = -11.9792945080807 | etot = -8.53011309492174
93000  ekin = 1.30692364344383 |  erot = 2.12123926047786 | epot = -11.9582759987369 | etot = -8.5301130948152
94000  ekin = 1.32581527393273 |  erot = 2.07018243043928 | epot = -11.9261107990066 | etot = -8.53011309463457
95000  ekin = 1.34182901778834 |  erot = 2.01402433128801 | epot = -11.8859664434698 | etot = -8.53011309439347
96000  ekin = 1.35474622264798 |  erot = 1.95709566330722 | epot = -11.8419549800687 | etot = -8.53011309411347
97000  ekin = 1.36518588247822 |  erot = 1.90343342927418 | epot = -11.7987324055815 | etot = -8.53011309382905
98000  ekin = 1.37438024241765 |  erot = 1.85642234303645 | epot = -11.7609156790417 | etot = -8.53011309358764
99000  ekin = 1.38375494732475 |  erot = 1.81846000225616 | epot = -11.7323280430252 | etot = -8.53011309344426
100000  ekin = 1.39439154293898 |  erot = 1.79066261133391 | epot = -11.715167247719 | etot = -8.53011309344614
101000  ekin = 1.40650610053404 |  erot = 1.77268374626497 | epot = -11.7093029404209 | etot = -8.53011309362194
102000  ekin = 1.41909865539682 |  erot = 1.76268825953969 | epot = -11.7119000089018 | etot = -8.53011309396524
103000  ekin = 1.42990225853186 |  erot = 1.75756086568116 | epot = -11.7175762186402 | etot = -8.53011309442723
104000  ekin = 1.43568960458615 |  erot = 1.75339758186002 | epot = -11.7192002813656 | etot = -8.53011309491945
105000  ekin = 1.43290883108516 |  erot = 1.74626770102832 | epot = -11.7092896274385 | etot = -8.530113095325
106000  ekin = 1.41854295074815 |  erot = 1.73316545657386 | epot = -11.6818215028412 | etot = -8.53011309551917
107000  ekin = 1.39103174229079 |  erot = 1.71299001598405 | epot = -11.6341348536725 | etot = -8.53011309539768
108000  ekin = 1.35105252774001 |  erot = 1.68731521419139 | epot = -11.5684808368427 | etot = -8.53011309491129
109000  ekin = 1.30192293440573 |  erot = 1.66066055824567 | epot = -11.4926965867505 | etot = -8.53011309409914
110000  ekin = 1.24955692632171 |  erot = 1.64004235665915 | epot = -11.4197123754604 | etot = -8.53011309247958
111000  ekin = 1.20373683101899 |  erot = 1.634056606309 | epot = -11.367906529011 | etot = -8.53011309168306
112000  ekin = 1.17136800050139 |  erot = 1.64951573593171 | epot = -11.3509968276174 | etot = -8.53011309118433
113000  ekin = 1.1564373725265 |  erot = 1.69002000568969 | epot = -11.3765704693516 | etot = -8.53011309113541
114000  ekin = 1.1601666491979 |  erot = 1.75506593403395 | epot = -11.4453456747906 | etot = -8.53011309155874
115000  ekin = 1.18078581898495 |  erot = 1.83995213492442 | epot = -11.5508510462439 | etot = -8.53011309233455
116000  ekin = 1.21421955357384 |  erot = 1.93685465219997 | epot = -11.6811872990251 | etot = -8.53011309325133
117000  ekin = 1.25536144135748 |  erot = 2.03668558524402 | epot = -11.8221601206889 | etot = -8.53011309408735
118000  ekin = 1.29940451384013 |  erot = 2.13109010342768 | epot = -11.9606077119492 | etot = -8.5301130946814
119000  ekin = 1.342774776846 |  erot = 2.21397393951699 | epot = -12.0868618113322 | etot = -8.53011309496919
120000  ekin = 1.38347061820549 |  erot = 2.28221236483861 | epot = -12.195796078024 | etot = -8.53011309497985
121000  ekin = 1.42087086651048 |  erot = 2.33551129662523 | epot = -12.2864952579391 | etot = -8.53011309480344
122000  ekin = 1.4552263897788 |  erot = 2.3756429290616 | epot = -12.3609824133927 | etot = -8.53011309455232
123000  ekin = 1.4870758266584 |  erot = 2.40539124222141 | epot = -12.4225801632077 | etot = -8.53011309432789
124000  ekin = 1.51676676843718 |  erot = 2.42751903858622 | epot = -12.4743989012248 | etot = -8.5301130942014
125000  ekin = 1.54417459772326 |  erot = 2.44396324559694 | epot = -12.5182509375273 | etot = -8.53011309420714
126000  ekin = 1.56863810035605 |  erot = 2.4553511272518 | epot = -12.5541023219522 | etot = -8.53011309434435
127000  ekin = 1.58908101361901 |  erot = 2.4608536627413 | epot = -12.5800477709425 | etot = -8.53011309458218
128000  ekin = 1.6042708388842 |  erot = 2.45836168530056 | epot = -12.5927456190491 | etot = -8.53011309486435
129000  ekin = 1.61315658291869 |  erot = 2.44495811201806 | epot = -12.5882277900549 | etot = -8.53011309511816
130000  ekin = 1.61521763497857 |  erot = 2.4176285931953 | epot = -12.5629593234409 | etot = -8.53011309526708
131000  ekin = 1.61074673258805 |  erot = 2.37408565093652 | epot = -12.5149454787753 | etot = -8.53011309525076
132000  ekin = 1.60099281445321 |  erot = 2.31350559905906 | epot = -12.4446115085553 | etot = -8.53011309504302
133000  ekin = 1.58811839137735 |  erot = 2.23695676757674 | epot = -12.3551882536157 | etot = -8.53011309466161
134000  ekin = 1.57497837856358 |  erot = 2.1473790715212 | epot = -12.252470544281 | etot = -8.53011309419617
135000  ekin = 1.56467799512159 |  erot = 2.04902291672221 | epot = -12.1438140054843 | etot = -8.53011309364047
136000  ekin = 1.56033306064837 |  erot = 1.94701578012998 | epot = -12.0374619338905 | etot = -8.53011309311218
137000  ekin = 1.56479379508625 |  erot = 1.84660873227816 | epot = -11.9415156200312 | etot = -8.53011309266677
138000  ekin = 1.58030314703432 |  erot = 1.75245153796743 | epot = -11.8628677773359 | etot = -8.53011309233418
139000  ekin = 1.60833080358451 |  erot = 1.6682660913931 | epot = -11.8067099870999 | etot = -8.53011309212233
140000  ekin = 1.64949521723192 |  erot = 1.59676588041006 | epot = -11.7763741896652 | etot = -8.53011309202317
141000  ekin = 1.70355355174859 |  erot = 1.53975804779895 | epot = -11.7734246915232 | etot = -8.53011309197561
142000  ekin = 1.76943720118442 |  erot = 1.49859523121387 | epot = -11.7981455244592 | etot = -8.5301130920609
143000  ekin = 1.84530405880862 |  erot = 1.47384945852753 | epot = -11.8492666095588 | etot = -8.53011309222263
144000  ekin = 1.92861465369001 |  erot = 1.46549379274654 | epot = -11.9242215388116 | etot = -8.53011309237502
145000  ekin = 2.01648600784352 |  erot = 1.47353305209478 | epot = -12.0201321527194 | etot = -8.5301130927811
146000  ekin = 2.10458212275704 |  erot = 1.49637875129038 | epot = -12.1310739673154 | etot = -8.53011309326793
147000  ekin = 2.18785677137349 |  erot = 1.5314591984994 | epot = -12.2494290636989 | etot = -8.53011309382603
148000  ekin = 2.26104758516561 |  erot = 1.57543986096036 | epot = -12.3666005405508 | etot = -8.53011309442483
149000  ekin = 2.31910091716379 |  erot = 1.62430319702598 | epot = -12.4735172091961 | etot = -8.5301130950063
150000  ekin = 2.35773821658445 |  erot = 1.67365853244669 | epot = -12.5615098445252 | etot = -8.53011309549403
151000  ekin = 2.37405078100302 |  erot = 1.7192672632974 | epot = -12.6234311401175 | etot = -8.53011309581711
152000  ekin = 2.36692545461634 |  erot = 1.75764773901451 | epot = -12.6546862895679 | etot = -8.53011309593708
153000  ekin = 2.33712749183089 |  erot = 1.78656744402825 | epot = -12.6538080317178 | etot = -8.53011309585864
154000  ekin = 2.28703010669271 |  erot = 1.80529001826454 | epot = -12.6224332205718 | etot = -8.53011309561459
155000  ekin = 2.22017210957738 |  erot = 1.81456905274742 | epot = -12.5648542575675 | etot = -8.53011309524267
156000  ekin = 2.1408721665017 |  erot = 1.81646017186521 | epot = -12.4874454331416 | etot = -8.53011309477465
157000  ekin = 2.05398632051146 |  erot = 1.81400844427825 | epot = -12.3981078590399 | etot = -8.53011309425016
158000  ekin = 1.96465269026301 |  erot = 1.81075171604371 | epot = -12.305517500103 | etot = -8.53011309379623
159000  ekin = 1.87738211880319 |  erot = 1.80975809034341 | epot = -12.2172533025062 | etot = -8.53011309335963
160000  ekin = 1.79637755657175 |  erot = 1.81368342474274 | epot = -12.1401740743796 | etot = -8.53011309306516
161000  ekin = 1.72479660822492 |  erot = 1.82417298786657 | epot = -12.0790826890673 | etot = -8.53011309297584
162000  ekin = 1.66403255347616 |  erot = 1.84141406703866 | epot = -12.0355597136254 | etot = -8.53011309311057
163000  ekin = 1.61344211817627 |  erot = 1.86416684407897 | epot = -12.0077220556812 | etot = -8.53011309342599
164000  ekin = 1.57053136480639 |  erot = 1.89024538669855 | epot = -11.990889845331 | etot = -8.53011309382611
165000  ekin = 1.53158684055262 |  erot = 1.91735211282816 | epot = -11.9790520475667 | etot = -8.53011309418588
166000  ekin = 1.49257533008373 |  erot = 1.94405290672945 | epot = -11.9667413312082 | etot = -8.53011309439505
167000  ekin = 1.45004739614814 |  erot = 1.9705428218327 | epot = -11.9507033123727 | etot = -8.53011309439191
168000  ekin = 1.40180339426578 |  erot = 1.99893184094575 | epot = -11.9308483293895 | etot = -8.53011309417795
169000  ekin = 1.34719230179007 |  erot = 2.03295603374789 | epot = -11.9102614293485 | etot = -8.53011309381054
170000  ekin = 1.28704969495272 |  erot = 2.07721655562314 | epot = -11.8943793439504 | etot = -8.53011309337457
171000  ekin = 1.22340120606629 |  erot = 2.13620458401901 | epot = -11.8897188830155 | etot = -8.53011309293021
172000  ekin = 1.15916399135854 |  erot = 2.21333149138595 | epot = -11.9026085753701 | etot = -8.5301130926256
173000  ekin = 1.09731722457336 |  erot = 2.31014635554186 | epot = -11.9375766725986 | etot = -8.53011309248333
174000  ekin = 1.04063961884127 |  erot = 2.42581098119803 | epot = -11.9965636925781 | etot = -8.53011309253885
175000  ekin = 0.991434959332988 |  erot = 2.55687374585407 | epot = -12.0784217979906 | etot = -8.53011309280354
176000  ekin = 0.951286219743537 |  erot = 2.69734247997581 | epot = -12.1787417929831 | etot = -8.53011309326378
177000  ekin = 0.920906931255968 |  erot = 2.83907560795418 | epot = -12.2900956330861 | etot = -8.530113093876
178000  ekin = 0.900110889875814 |  erot = 2.97251922257665 | epot = -12.4027432070179 | etot = -8.53011309456542
179000  ekin = 0.887921283965376 |  erot = 3.08778217993959 | epot = -12.5058165591358 | etot = -8.53011309523079
180000  ekin = 0.882819894460815 |  erot = 3.17595008457009 | epot = -12.5888830747921 | etot = -8.53011309576116
181000  ekin = 0.883094662246449 |  erot = 3.23041576817405 | epot = -12.6436235264849 | etot = -8.53011309606437
182000  ekin = 0.887197266497044 |  erot = 3.24791323274169 | epot = -12.6652235953324 | etot = -8.53011309609369
183000  ekin = 0.894005517566804 |  erot = 3.22896613968051 | epot = -12.6530847531087 | etot = -8.53011309586139
184000  ekin = 0.902922567053578 |  erot = 3.17763362003998 | epot = -12.610669282523 | etot = -8.53011309542945
185000  ekin = 0.913819897430199 |  erot = 3.10068233612809 | epot = -12.5446153284403 | etot = -8.53011309488204
186000  ekin = 0.926892274386944 |  erot = 3.00648382594885 | epot = -12.4634891947413 | etot = -8.53011309440549
187000  ekin = 0.942359343467903 |  erot = 2.90341264008055 | epot = -12.3758850774298 | etot = -8.53011309388138
188000  ekin = 0.960415128419174 |  erot = 2.7995023321508 | epot = -12.2900305539847 | etot = -8.53011309341473
189000  ekin = 0.981336580896324 |  erot = 2.702219690544 | epot = -12.2136693644689 | etot = -8.53011309302854
190000  ekin = 1.00543372733298 |  erot = 2.61771835557185 | epot = -12.1532651756636 | etot = -8.53011309275873
191000  ekin = 1.03305642669588 |  erot = 2.55042331784814 | epot = -12.1135928371337 | etot = -8.53011309258972
192000  ekin = 1.06458819978575 |  erot = 2.502951492612 | epot = -12.0976527849401 | etot = -8.53011309254235
193000  ekin = 1.10043008600686 |  erot = 2.4759146106301 | epot = -12.1064577892569 | etot = -8.53011309261996
194000  ekin = 1.14095348227996 |  erot = 2.46790659075146 | epot = -12.1389731658498 | etot = -8.53011309281836
195000  ekin = 1.18642396462085 |  erot = 2.47566002440274 | epot = -12.1921970821463 | etot = -8.53011309312271
196000  ekin = 1.2369145605392 |  erot = 2.49438862695288 | epot = -12.2614162809965 | etot = -8.53011309350438
197000  ekin = 1.29223924615382 |  erot = 2.51832160491041 | epot = -12.3406739449846 | etot = -8.53011309392038
198000  ekin = 1.35193471466299 |  erot = 2.54139178285267 | epot = -12.4234395918359 | etot = -8.53011309432024
199000  ekin = 1.41529957065347 |  erot = 2.55798242673134 | epot = -12.5033950920399 | etot = -8.53011309465512
200000  ekin = 1.481473900578 |  erot = 2.56359779441153 | epot = -12.5751847898788 | etot = -8.53011309488927
201000  ekin = 1.54952685169028 |  erot = 2.55533485734996 | epot = -12.6349748040457 | etot = -8.53011309500544
202000  ekin = 1.61852368373095 |  erot = 2.53209551772288 | epot = -12.6807322964589 | etot = -8.53011309500508
203000  ekin = 1.68755981245379 |  erot = 2.49462961612359 | epot = -12.7123025234438 | etot = -8.53011309486638
204000  ekin = 1.75576103234987 |  erot = 2.44539440890692 | epot = -12.7312685359473 | etot = -8.53011309469053
205000  ekin = 1.82226727517107 |  erot = 2.38780081716033 | epot = -12.7401811867913 | etot = -8.53011309445995
206000  ekin = 1.88619984147264 |  erot = 2.32611076719096 | epot = -12.7424237028677 | etot = -8.53011309420411
207000  ekin = 1.94660231588624 |  erot = 2.26504166017975 | epot = -12.7417570700272 | etot = -8.5301130939612
208000  ekin = 2.00235042264584 |  erot = 2.20925458967812 | epot = -12.7417181061045 | etot = -8.5301130937805
209000  ekin = 2.05203134834761 |  erot = 2.16271925047937 | epot = -12.7448636925487 | etot = -8.53011309372176
210000  ekin = 2.09381524344858 |  erot = 2.12796343491006 | epot = -12.7518917722037 | etot = -8.53011309384504
211000  ekin = 2.12537929046187 |  erot = 2.10530160183663 | epot = -12.760793986487 | etot = -8.53011309418849
212000  ekin = 2.14398845109537 |  erot = 2.09226506761566 | epot = -12.7663666134465 | etot = -8.53011309473546
213000  ekin = 2.14685083920782 |  erot = 2.08357075606551 | epot = -12.7605346906603 | etot = -8.530113095387
214000  ekin = 2.1317793355869 |  erot = 2.07198437940519 | epot = -12.7338768105377 | etot = -8.53011309554561
215000  ekin = 2.09740576159844 |  erot = 2.05243678649467 | epot = -12.6799556440651 | etot = -8.53011309597196
216000  ekin = 2.04414786569907 |  erot = 2.01980811255998 | epot = -12.5940690742957 | etot = -8.53011309603668
217000  ekin = 1.97496281847612 |  erot = 1.97035714827555 | epot = -12.4754330625051 | etot = -8.53011309575345
218000  ekin = 1.8948373238438 |  erot = 1.90369037051482 | epot = -12.3286407894934 | etot = -8.53011309513472
219000  ekin = 1.81041467830664 |  erot = 1.82278463149711 | epot = -12.1633124040823 | etot = -8.5301130942786
220000  ekin = 1.72938454080915 |  erot = 1.73330150874472 | epot = -11.9927991427904 | etot = -8.53011309323654
221000  ekin = 1.65959820381305 |  erot = 1.64273176790434 | epot = -11.8324430640329 | etot = -8.53011309231554
222000  ekin = 1.60845034453789 |  erot = 1.55815968235264 | epot = -11.6967231184019 | etot = -8.53011309151133
223000  ekin = 1.58228239188915 |  erot = 1.48580466478771 | epot = -11.5982001475875 | etot = -8.53011309091067
224000  ekin = 1.5856976551694 |  erot = 1.43046423809878 | epot = -11.5462749838454 | etot = -8.5301130905772
225000  ekin = 1.62100953317662 |  erot = 1.39504063224572 | epot = -11.5461632559814 | etot = -8.53011309055906
226000  ekin = 1.68783126437479 |  erot = 1.38020176396467 | epot = -11.5981461192339 | etot = -8.53011309089441
227000  ekin = 1.78271150290518 |  erot = 1.38413372943446 | epot = -11.6969583246211 | etot = -8.53011309228148
228000  ekin = 1.89495289262362 |  erot = 1.40258789217287 | epot = -11.8276538782981 | etot = -8.53011309350161
229000  ekin = 2.01170607721849 |  erot = 1.42820655801896 | epot = -11.9700257301876 | etot = -8.53011309495016
230000  ekin = 2.11989887159659 |  erot = 1.4523540971715 | epot = -12.1023660650346 | etot = -8.53011309626653
231000  ekin = 2.20759782077804 |  erot = 1.46730876356808 | epot = -12.2050196815073 | etot = -8.53011309716122
232000  ekin = 2.26562589153242 |  erot = 1.46886009000392 | epot = -12.2645990789947 | etot = -8.53011309745836
233000  ekin = 2.28822506975746 |  erot = 1.45787535434379 | epot = -12.2762135212095 | etot = -8.53011309710823
234000  ekin = 2.27464524977865 |  erot = 1.43990370669335 | epot = -12.2446620527941 | etot = -8.53011309632208
235000  ekin = 2.22825507530892 |  erot = 1.42328017859116 | epot = -12.1816483492739 | etot = -8.53011309537382
236000  ekin = 2.15494106311511 |  erot = 1.41661045699289 | epot = -12.1016646145796 | etot = -8.53011309447159
237000  ekin = 2.06197124561426 |  erot = 1.42677729192205 | epot = -12.0188616312522 | etot = -8.53011309371585
238000  ekin = 1.95733575736116 |  erot = 1.45790014382963 | epot = -11.9453489943268 | etot = -8.53011309313597
239000  ekin = 1.84937348817275 |  erot = 1.51100787616932 | epot = -11.8904944570919 | etot = -8.53011309274985
240000  ekin = 1.74634948667573 |  erot = 1.58401675949076 | epot = -11.8604793387578 | etot = -8.53011309259134
241000  ekin = 1.65579840431705 |  erot = 1.67182932722843 | epot = -11.8577408242433 | etot = -8.53011309269777
242000  ekin = 1.58370704114946 |  erot = 1.76665328809221 | epot = -11.8804734223153 | etot = -8.53011309307363
243000  ekin = 1.53379082409438 |  erot = 1.85876363932185 | epot = -11.9226675570786 | etot = -8.53011309366237
244000  ekin = 1.50713311675996 |  erot = 1.93781479613261 | epot = -11.9750610072396 | etot = -8.53011309434702
245000  ekin = 1.50232523408853 |  erot = 1.99453085491372 | epot = -12.0269691839801 | etot = -8.53011309497784
246000  ekin = 1.51606904510282 |  erot = 2.02239007086936 | epot = -12.0685722113878 | etot = -8.53011309541565
247000  ekin = 1.54406668998835 |  erot = 2.01887471172768 | epot = -12.0930544972697 | etot = -8.53011309555362
248000  ekin = 1.58197270416977 |  erot = 1.9860852549186 | epot = -12.0981710544434 | etot = -8.53011309535498
249000  ekin = 1.62609171467958 |  erot = 1.93029875238694 | epot = -12.0865035619571 | etot = -8.53011309489059
250000  ekin = 1.67387536281809 |  erot = 1.86081409573892 | epot = -12.0648025528069 | etot = -8.53011309424987
251000  ekin = 1.72391096985858 |  erot = 1.78844826295717 | epot = -12.0424723264225 | etot = -8.5301130936067
252000  ekin = 1.7753819071169 |  erot = 1.7236719123789 | epot = -12.0291669125776 | etot = -8.53011309308178
253000  ekin = 1.82754829280947 |  erot = 1.67492092834063 | epot = -12.0325823139111 | etot = -8.53011309276105
254000  ekin = 1.87961881561723 |  erot = 1.64770020961713 | epot = -12.0574321179074 | etot = -8.53011309267301
255000  ekin = 1.93045785731808 |  erot = 1.64434942869014 | epot = -12.1049203788171 | etot = -8.5301130928089
256000  ekin = 1.97849877464051 |  erot = 1.66421751998761 | epot = -12.1728293877676 | etot = -8.53011309313951
257000  ekin = 2.0217566179138 |  erot = 1.70407398948232 | epot = -12.2559437010212 | etot = -8.53011309362509
258000  ekin = 2.05791961396887 |  erot = 1.75862748975153 | epot = -12.3466601979401 | etot = -8.53011309421969
259000  ekin = 2.08450645969242 |  erot = 1.82109836581008 | epot = -12.4357179203749 | etot = -8.53011309487241
260000  ekin = 2.09907285067837 |  erot = 1.88382726111915 | epot = -12.5130132073275 | etot = -8.53011309552994
261000  ekin = 2.09944572596161 |  erot = 1.93893768787249 | epot = -12.5684965099611 | etot = -8.53011309612699
262000  ekin = 2.08396569038711 |  erot = 1.97908462797729 | epot = -12.5931634149734 | etot = -8.53011309660901
263000  ekin = 2.05172676882021 |  erot = 1.9982090888738 | epot = -12.580048954553 | etot = -8.53011309685898
264000  ekin = 2.00296719649569 |  erot = 1.9928343917862 | epot = -12.5259146850348 | etot = -8.53011309675296
265000  ekin = 1.93948872899132 |  erot = 1.96339266268781 | epot = -12.4329944878833 | etot = -8.53011309620415
266000  ekin = 1.86494390143915 |  erot = 1.91505343003299 | epot = -12.3101104266354 | etot = -8.53011309516322
267000  ekin = 1.78505719746833 |  erot = 1.85721593585793 | epot = -12.1723862273132 | etot = -8.53011309398698
268000  ekin = 1.70605852586669 |  erot = 1.80175587067256 | epot = -12.0379274893394 | etot = -8.53011309280011
269000  ekin = 1.63387234043008 |  erot = 1.76055577812986 | epot = -11.9245412104251 | etot = -8.53011309186521
270000  ekin = 1.57342106955824 |  erot = 1.74281009478432 | epot = -11.8463442556698 | etot = -8.53011309132727
271000  ekin = 1.52797485202415 |  erot = 1.75341085935497 | epot = -11.8114988026157 | etot = -8.53011309123661
272000  ekin = 1.49894876525735 |  erot = 1.79234603399532 | epot = -11.8214078908094 | etot = -8.53011309155678
273000  ekin = 1.48604758198122 |  erot = 1.85507402496715 | epot = -11.8712346991386 | etot = -8.5301130921902
274000  ekin = 1.48766345157073 |  erot = 1.93349346053598 | epot = -11.9512700051694 | etot = -8.53011309306265
275000  ekin = 1.50135017863795 |  erot = 2.01723774122155 | epot = -12.0487010137587 | etot = -8.5301130938992
276000  ekin = 1.52425343307295 |  erot = 2.09653669779255 | epot = -12.1509032254467 | etot = -8.53011309458124
277000  ekin = 1.55417046599777 |  erot = 2.16339336358524 | epot = -12.2476769246678 | etot = -8.53011309508482
278000  ekin = 1.58883002210858 |  erot = 2.21269572879347 | epot = -12.3316388462086 | etot = -8.53011309530658
279000  ekin = 1.62657848626996 |  erot = 2.24273575291771 | epot = -12.3994273344821 | etot = -8.53011309529447
280000  ekin = 1.6662646237581 |  erot = 2.25488508621539 | epot = -12.4512628051112 | etot = -8.53011309513769
281000  ekin = 1.70666329888322 |  erot = 2.2528781375611 | epot = -12.4896545313672 | etot = -8.5301130949229
282000  ekin = 1.74606224489442 |  erot = 2.24193390477342 | epot = -12.5181092443714 | etot = -8.53011309470351
283000  ekin = 1.78229604375783 |  erot = 2.22773335199481 | epot = -12.5401424902721 | etot = -8.53011309451947
284000  ekin = 1.81303392681889 |  erot = 2.21528431693992 | epot = -12.5584313381479 | etot = -8.53011309438912
285000  ekin = 1.83626784551359 |  erot = 2.20859920573473 | epot = -12.5749801456019 | etot = -8.53011309435358
286000  ekin = 1.85056798130881 |  erot = 2.20962029353652 | epot = -12.5903013692877 | etot = -8.53011309444239
287000  ekin = 1.8550635304434 |  erot = 2.21784540833844 | epot = -12.6030220334124 | etot = -8.53011309463059
288000  ekin = 1.8494233981353 |  erot = 2.23075201933167 | epot = -12.6102885123078 | etot = -8.53011309484083
289000  ekin = 1.8339088801736 |  erot = 2.24488012942888 | epot = -12.6089021045818 | etot = -8.53011309497935
290000  ekin = 1.80943255390652 |  erot = 2.2572237152992 | epot = -12.5967693641603 | etot = -8.53011309495454
291000  ekin = 1.77754353319109 |  erot = 2.26619423186307 | epot = -12.57385085985 | etot = -8.53011309479584
292000  ekin = 1.74029196122666 |  erot = 2.27170357096951 | epot = -12.5421086267524 | etot = -8.5301130945562
293000  ekin = 1.6999754354036 |  erot = 2.27474290666544 | epot = -12.5048314363832 | etot = -8.53011309431417
294000  ekin = 1.65879913990678 |  erot = 2.27646633894027 | epot = -12.4653785730009 | etot = -8.53011309415386
295000  ekin = 1.61857194087987 |  erot = 2.27728965532028 | epot = -12.4259746903009 | etot = -8.53011309410079
296000  ekin = 1.58063856927617 |  erot = 2.27661684716244 | epot = -12.387368510527 | etot = -8.5301130940884
297000  ekin = 1.54603085638124 |  erot = 2.27331893745141 | epot = -12.3494628879054 | etot = -8.53011309407273
298000  ekin = 1.51552933019762 |  erot = 2.26654381109844 | epot = -12.3121862352837 | etot = -8.53011309398763
299000  ekin = 1.48978666564629 |  erot = 2.25633296635495 | epot = -12.2762327258636 | etot = -8.53011309386239
300000  ekin = 1.46918272389791 |  erot = 2.24345468614642 | epot = -12.242750503802 | etot = -8.53011309375768
301000  ekin = 1.45354278560875 |  erot = 2.22882911340882 | epot = -12.2124849927865 | etot = -8.5301130937689
302000  ekin = 1.44183301629794 |  erot = 2.21276714678519 | epot = -12.1847132569687 | etot = -8.53011309388561
303000  ekin = 1.43225770121122 |  erot = 2.19458092752688 | epot = -12.1569517228355 | etot = -8.53011309409737
304000  ekin = 1.42259637356991 |  erot = 2.17276750288897 | epot = -12.1254769707815 | etot = -8.53011309432262
305000  ekin = 1.41064586326832 |  erot = 2.14566468388069 | epot = -12.0864236416132 | etot = -8.5301130944642
306000  ekin = 1.39473877107246 |  erot = 2.11230934515816 | epot = -12.0371612106968 | etot = -8.53011309446616
307000  ekin = 1.3740115615447 |  erot = 2.07305527676066 | epot = -11.9771799326147 | etot = -8.53011309430936
308000  ekin = 1.3485247052802 |  erot = 2.02957445559338 | epot = -11.9082122549388 | etot = -8.53011309406522
309000  ekin = 1.31899505489831 |  erot = 1.9842726911903 | epot = -11.8333808399303 | etot = -8.53011309384171
310000  ekin = 1.28628826657229 |  erot = 1.93930156456122 | epot = -11.7557029248838 | etot = -8.53011309375026
311000  ekin = 1.25093726244378 |  erot = 1.89525998935024 | epot = -11.6763103458619 | etot = -8.53011309406784
312000  ekin = 1.21290642809376 |  erot = 1.84947048977035 | epot = -11.5924900122399 | etot = -8.53011309437575
313000  ekin = 1.1714184611298 |  erot = 1.79876682021561 | epot = -11.5002983761237 | etot = -8.53011309477825
314000  ekin = 1.07288272942862 |  erot = 1.70848696881406 | epot = -11.311482847552 | etot = -8.5301131493093
315000  ekin = 0.929305233250754 |  erot = 1.46737286493929 | epot = -10.9267911417344 | etot = -8.53011304354439
316000  ekin = 1.3343895371699 |  erot = 1.37623199915563 | epot = -11.2407347047628 | etot = -8.53011316843732
317000  ekin = 1.400093717002 |  erot = 1.31826590785373 | epot = -11.2484727303605 | etot = -8.53011310550475
318000  ekin = 1.4311535991829 |  erot = 1.25971123043266 | epot = -11.2209779347353 | etot = -8.53011310511977
319000  ekin = 1.45754379434808 |  erot = 1.20520642772615 | epot = -11.1928633267497 | etot = -8.53011310467545
320000  ekin = 1.48149893345566 |  erot = 1.15864569690776 | epot = -11.17025773465 | etot = -8.53011310428661
321000  ekin = 1.50513128439723 |  erot = 1.1235040010055 | epot = -11.1587483894097 | etot = -8.53011310400692
322000  ekin = 1.52997806002378 |  erot = 1.10223049025858 | epot = -11.1623216541776 | etot = -8.53011310389523
323000  ekin = 1.55672107909495 |  erot = 1.09578101873747 | epot = -11.182615201786 | etot = -8.53011310395358
324000  ekin = 1.58511366200745 |  erot = 1.10363080456385 | epot = -11.2188575707121 | etot = -8.53011310414085
325000  ekin = 1.61412294527432 |  erot = 1.12419697508963 | epot = -11.2684330247499 | etot = -8.5301131043859
326000  ekin = 1.64224941760032 |  erot = 1.15551879655626 | epot = -11.327881318772 | etot = -8.53011310461539
327000  ekin = 1.66792915391916 |  erot = 1.19590561828287 | epot = -11.3939478769661 | etot = -8.53011310476403
328000  ekin = 1.68988361976014 |  erot = 1.24442310373763 | epot = -11.4644198283235 | etot = -8.53011310482578
329000  ekin = 1.70729453548122 |  erot = 1.30088738083626 | epot = -11.5382950211521 | etot = -8.53011310483462
330000  ekin = 1.71977920215653 |  erot = 1.36542606219528 | epot = -11.6153183691923 | etot = -8.53011310484046
331000  ekin = 1.7271994815718 |  erot = 1.43788972641168 | epot = -11.6952023128944 | etot = -8.53011310491089
332000  ekin = 1.72935048705178 |  erot = 1.51741015576131 | epot = -11.7768737478656 | etot = -8.53011310505251
333000  ekin = 1.72589292388536 |  erot = 1.60231164706421 | epot = -11.8583176761893 | etot = -8.53011310523976
334000  ekin = 1.71641096845526 |  erot = 1.69042382797069 | epot = -11.9369479018441 | etot = -8.53011310541811
335000  ekin = 1.70061954221322 |  erot = 1.77963047985444 | epot = -12.010363127601 | etot = -8.5301131055333
336000  ekin = 1.67861266632182 |  erot = 1.86835013660108 | epot = -12.0770759084894 | etot = -8.53011310556652
337000  ekin = 1.65104084371354 |  erot = 1.95564880215523 | epot = -12.1368027514031 | etot = -8.5301131055343
338000  ekin = 1.61919653971752 |  erot = 2.04088006325108 | epot = -12.190189708458 | etot = -8.53011310548938
339000  ekin = 1.58494018858508 |  erot = 2.12306951704665 | epot = -12.238122811097 | etot = -8.53011310546525
340000  ekin = 1.55068751498696 |  erot = 2.20045691490743 | epot = -12.2812575353507 | etot = -8.53011310545628
341000  ekin = 1.51939352315548 |  erot = 2.27052960843886 | epot = -12.3200362370415 | etot = -8.53011310544716
342000  ekin = 1.49422831422776 |  erot = 2.33048372011776 | epot = -12.3548251398142 | etot = -8.53011310546866
343000  ekin = 1.47765440209368 |  erot = 2.37774277923671 | epot = -12.3855102869164 | etot = -8.53011310558606
344000  ekin = 1.47024986717927 |  erot = 2.41039440931555 | epot = -12.4107573822795 | etot = -8.53011310578464
345000  ekin = 1.4703254442581 |  erot = 2.42787360989988 | epot = -12.4283121600592 | etot = -8.53011310590122
346000  ekin = 1.47497435411168 |  erot = 2.43200037641058 | epot = -12.4370878362722 | etot = -8.53011310574992
347000  ekin = 1.48176297397457 |  erot = 2.42757307622205 | epot = -12.4394491555202 | etot = -8.53011310532358
348000  ekin = 1.48960567691877 |  erot = 2.42152466454833 | epot = -12.4412434462867 | etot = -8.53011310481961
349000  ekin = 1.49842206767879 |  erot = 2.42094801211174 | epot = -12.449483184191 | etot = -8.53011310440048
350000  ekin = 1.50804667267444 |  erot = 2.43083585672827 | epot = -12.4689956337612 | etot = -8.53011310435853
351000  ekin = 1.51733539244436 |  erot = 2.45275056185542 | epot = -12.5001990588662 | etot = -8.53011310456645
352000  ekin = 1.52440681732 |  erot = 2.48551818836661 | epot = -12.5400381105947 | etot = -8.53011310490808
353000  ekin = 1.52713336973071 |  erot = 2.52632890408686 | epot = -12.5835753790747 | etot = -8.53011310525712
354000  ekin = 1.52372188533753 |  erot = 2.57191593401478 | epot = -12.6257509248866 | etot = -8.53011310553432
355000  ekin = 1.51309115687089 |  erot = 2.61929569219585 | epot = -12.6624999548058 | etot = -8.53011310573909
356000  ekin = 1.49483332847629 |  erot = 2.66580549560282 | epot = -12.690751930001 | etot = -8.53011310592193
357000  ekin = 1.46901113664047 |  erot = 2.70863650615431 | epot = -12.7077607489362 | etot = -8.5301131061414
358000  ekin = 1.43592917031781 |  erot = 2.74427787084649 | epot = -12.7103201475722 | etot = -8.53011310640789
359000  ekin = 1.39610164165407 |  erot = 2.76842107185796 | epot = -12.6946358201685 | etot = -8.5301131066565
360000  ekin = 1.3504767265446 |  erot = 2.77663698694861 | epot = -12.6572268202645 | etot = -8.53011310677133
361000  ekin = 1.30076611042313 |  erot = 2.76564868782872 | epot = -12.5965279049014 | etot = -8.53011310664958
362000  ekin = 1.24961928501762 |  erot = 2.73457480734076 | epot = -12.5143071986249 | etot = -8.53011310626656
363000  ekin = 1.20045386452402 |  erot = 2.68545051258155 | epot = -12.4160174827976 | etot = -8.530113105692
364000  ekin = 1.157102610977 |  erot = 2.62295556817078 | epot = -12.3101712839486 | etot = -8.53011310480086
365000  ekin = 1.12337541340606 |  erot = 2.55368748907328 | epot = -12.2071760067613 | etot = -8.53011310428193
366000  ekin = 1.10127753424493 |  erot = 2.48317695958238 | epot = -12.1145675977517 | etot = -8.53011310392434
367000  ekin = 1.09158671746534 |  erot = 2.41562896418526 | epot = -12.0373287854038 | etot = -8.53011310375322
368000  ekin = 1.09395460107056 |  erot = 2.35367302017297 | epot = -11.9777407249947 | etot = -8.53011310375121
369000  ekin = 1.10707029824331 |  erot = 2.29842564871272 | epot = -11.9356090508305 | etot = -8.53011310387444
370000  ekin = 1.12891021359741 |  erot = 2.24980412691876 | epot = -11.9088274446063 | etot = -8.53011310409015
371000  ekin = 1.15702393729329 |  erot = 2.20683986953329 | epot = -11.8939769111755 | etot = -8.53011310434893
372000  ekin = 1.1888151292629 |  erot = 2.16808122068957 | epot = -11.8870094545637 | etot = -8.53011310461122
373000  ekin = 1.22180472347242 |  erot = 2.13193560462625 | epot = -11.8838534329408 | etot = -8.5301131048421
374000  ekin = 1.25386446213045 |  erot = 2.0969644455036 | epot = -11.8809420126469 | etot = -8.53011310501288
375000  ekin = 1.2834073568592 |  erot = 2.06212828826987 | epot = -11.8756487502314 | etot = -8.53011310510234
376000  ekin = 1.30952081504534 |  erot = 2.02696442652639 | epot = -11.8665983466716 | etot = -8.53011310509989
377000  ekin = 1.33202999726286 |  erot = 1.99167753887158 | epot = -11.8538206411415 | etot = -8.53011310500704
378000  ekin = 1.35148382625458 |  erot = 1.95712256046334 | epot = -11.8387194915564 | etot = -8.5301131048385
379000  ekin = 1.369064102421 |  erot = 1.92466782261762 | epot = -11.82384502966 | etot = -8.53011310462137
380000  ekin = 1.38611586816741 |  erot = 1.89583861081395 | epot = -11.8120675838441 | etot = -8.53011310486269
381000  ekin = 1.40217385032451 |  erot = 1.87134526426162 | epot = -11.803632219315 | etot = -8.53011310472886
382000  ekin = 1.41800173053399 |  erot = 1.85196748545548 | epot = -11.8000823206103 | etot = -8.53011310462078
383000  ekin = 1.43471626247799 |  erot = 1.83825951701721 | epot = -11.8030888840428 | etot = -8.53011310454761
384000  ekin = 1.45338249836178 |  erot = 1.8303714900458 | epot = -11.8138670929096 | etot = -8.53011310450204
385000  ekin = 1.47500130812885 |  erot = 1.82815692745039 | epot = -11.8332713400434 | etot = -8.53011310446414
386000  ekin = 1.50055250094717 |  erot = 1.83139934862293 | epot = -11.8620649539819 | etot = -8.5301131044118
387000  ekin = 1.53104646326555 |  erot = 1.84005108459159 | epot = -11.9012106521924 | etot = -8.53011310433528
388000  ekin = 1.56751609348179 |  erot = 1.85434854378498 | epot = -11.9519777415169 | etot = -8.53011310425013
389000  ekin = 1.61088446669801 |  erot = 1.87469764895861 | epot = -12.0156952198589 | etot = -8.53011310420226
390000  ekin = 1.66167288139125 |  erot = 1.90128526220805 | epot = -12.0930712478648 | etot = -8.53011310426552
391000  ekin = 1.71956364223298 |  erot = 1.93346596746207 | epot = -12.1831427142166 | etot = -8.5301131045216
392000  ekin = 1.78290672529176 |  erot = 1.96909292130231 | epot = -12.2821127516394 | etot = -8.53011310504532
393000  ekin = 1.84827871010929 |  erot = 2.00406071425718 | epot = -12.3824525302018 | etot = -8.53011310583528
394000  ekin = 1.91039848955051 |  erot = 2.03249756432607 | epot = -12.4730091606569 | etot = -8.53011310678034
395000  ekin = 1.9626508412109 |  erot = 2.04794740083118 | epot = -12.540711349686 | etot = -8.53011310764391
396000  ekin = 1.99833003479206 |  erot = 2.0454869435874 | epot = -12.5739300865153 | etot = -8.53011310813587
397000  ekin = 2.0123250581197 |  erot = 2.02401360401976 | epot = -12.5664517701983 | etot = -8.53011310805884
398000  ekin = 2.00252306207336 |  erot = 1.98743944257818 | epot = -12.5200756120851 | etot = -8.53011310743354
399000  ekin = 1.9701718559996 |  erot = 1.94392108511941 | epot = -12.4442060476114 | etot = -8.5301131064924
400000  ekin = 1.91900875366626 |  erot = 1.90345223754713 | epot = -12.3525740967566 | etot = -8.53011310554319
401000  ekin = 1.85370867757513 |  erot = 1.87511245492143 | epot = -12.2589342373134 | etot = -8.53011310481684
402000  ekin = 1.77849786328493 |  erot = 1.86519132439144 | epot = -12.1738022920808 | etot = -8.53011310440448
403000  ekin = 1.69647765085585 |  erot = 1.87662651194791 | epot = -12.1032172670431 | etot = -8.53011310423931
404000  ekin = 1.60979304525873 |  erot = 1.90948179463012 | epot = -12.0493879441535 | etot = -8.53011310426464
405000  ekin = 1.52031831980354 |  erot = 1.96148591335594 | epot = -12.0119173375337 | etot = -8.53011310437419
406000  ekin = 1.43052069774053 |  erot = 2.02884810423333 | epot = -11.9894819063522 | etot = -8.53011310437832
407000  ekin = 1.34451311631117 |  erot = 2.10762662358732 | epot = -11.9822528435709 | etot = -8.53011310367242
408000  ekin = 1.27105659597624 |  erot = 2.19486129527893 | epot = -11.9960309945651 | etot = -8.53011310330992
409000  ekin = 1.13887966167889 |  erot = 2.29455518643042 | epot = -11.9635479631131 | etot = -8.5301131150038
410000  ekin = 1.06340398971496 |  erot = 2.43839727639424 | epot = -12.0319143782641 | etot = -8.53011311215495
411000  ekin = 1.12994363439163 |  erot = 2.56530077013229 | epot = -12.2253575154564 | etot = -8.53011311093251
412000  ekin = 1.18303314251565 |  erot = 2.647961367565 | epot = -12.3611076219087 | etot = -8.53011311182804
413000  ekin = 1.26155297788366 |  erot = 2.71721639006694 | epot = -12.5088824809558 | etot = -8.5301131130052
414000  ekin = 1.3509234915351 |  erot = 2.76712696986896 | epot = -12.6481635756115 | etot = -8.53011311420743
415000  ekin = 1.43876511602364 |  erot = 2.79254621486906 | epot = -12.7614244458774 | etot = -8.53011311498468
416000  ekin = 1.51568555880255 |  erot = 2.79087249527984 | epot = -12.8366711691915 | etot = -8.53011311510912
417000  ekin = 1.5774627292708 |  erot = 2.76317937782424 | epot = -12.8707552217669 | etot = -8.53011311467188
418000  ekin = 1.62492964319337 |  erot = 2.71407200335297 | epot = -12.8691147604605 | etot = -8.53011311391414
419000  ekin = 1.66144511720312 |  erot = 2.6494832898614 | epot = -12.8410415202834 | etot = -8.53011311321891
420000  ekin = 1.69059185762612 |  erot = 2.57483616462589 | epot = -12.7955411349095 | etot = -8.53011311265746
421000  ekin = 1.71537831168895 |  erot = 2.4944848692942 | epot = -12.7399762932607 | etot = -8.53011311227753
422000  ekin = 1.73777830628493 |  erot = 2.41134366235769 | epot = -12.6792350807076 | etot = -8.53011311206497
423000  ekin = 1.75875042276785 |  erot = 2.32696083577665 | epot = -12.6158243705244 | etot = -8.5301131119799
424000  ekin = 1.77846413727746 |  erot = 2.24181259776204 | epot = -12.5503898470151 | etot = -8.53011311197561
425000  ekin = 1.79665710139619 |  erot = 2.15579348528976 | epot = -12.4825636984917 | etot = -8.53011311180572
426000  ekin = 1.81317574252429 |  erot = 2.0690861526654 | epot = -12.4123750070692 | etot = -8.53011311187953
427000  ekin = 1.82711019090163 |  erot = 1.98123134137931 | epot = -12.3384546442035 | etot = -8.53011311192255
428000  ekin = 1.83751691854821 |  erot = 1.89199984736734 | epot = -12.2596298778276 | etot = -8.53011311191205
429000  ekin = 1.84368310695259 |  erot = 1.80177215302921 | epot = -12.1755683718219 | etot = -8.53011311184013
430000  ekin = 1.84519909790049 |  erot = 1.71159843544078 | epot = -12.0869106450535 | etot = -8.53011311171223
431000  ekin = 1.8419824729196 |  erot = 1.62310758133309 | epot = -11.9952031657953 | etot = -8.53011311154265
432000  ekin = 1.83426509469808 |  erot = 1.5384228551188 | epot = -11.9028010611701 | etot = -8.53011311135323
433000  ekin = 1.82255993369577 |  erot = 1.46009341020983 | epot = -11.8127664550844 | etot = -8.53011311117885
434000  ekin = 1.8075108581923 |  erot = 1.39007773702003 | epot = -11.7277017062243 | etot = -8.53011311101194
435000  ekin = 1.78989394282613 |  erot = 1.32998390314055 | epot = -11.6499909568369 | etot = -8.53011311087023
436000  ekin = 1.77056724604991 |  erot = 1.28100064172276 | epot = -11.5816809985409 | etot = -8.53011311076826
437000  ekin = 1.75036829512574 |  erot = 1.24377047064084 | epot = -11.5242518764822 | etot = -8.53011311071567
438000  ekin = 1.73003454471314 |  erot = 1.21832954508395 | epot = -11.4784772005229 | etot = -8.53011311072585
439000  ekin = 1.71009916119256 |  erot = 1.20407719866515 | epot = -11.444289470637 | etot = -8.53011311077925
440000  ekin = 1.6909660003284 |  erot = 1.19975997138874 | epot = -11.4208390825869 | etot = -8.53011311086975
441000  ekin = 1.67263636924185 |  erot = 1.20336882729014 | epot = -11.4061183077393 | etot = -8.5301131112073
442000  ekin = 1.65454003555858 |  erot = 1.21209014500598 | epot = -11.3967432919143 | etot = -8.5301131113497
443000  ekin = 1.63689233562187 |  erot = 1.22351444913945 | epot = -11.3905198962988 | etot = -8.5301131115375
444000  ekin = 1.61963083195094 |  erot = 1.23489712396683 | epot = -11.3846410676151 | etot = -8.53011311169732
445000  ekin = 1.60286309976439 |  erot = 1.24366705310612 | epot = -11.3766432646847 | etot = -8.53011311181423
446000  ekin = 1.58694903183935 |  erot = 1.24767642065071 | epot = -11.3647385643679 | etot = -8.53011311187784
447000  ekin = 1.57243059659248 |  erot = 1.24537195304132 | epot = -11.3479156615357 | etot = -8.53011311190193
448000  ekin = 1.56000091269129 |  erot = 1.23594098261454 | epot = -11.3260550071527 | etot = -8.53011311184687
449000  ekin = 1.55055832679574 |  erot = 1.21941073242635 | epot = -11.3000821709566 | etot = -8.53011311173451
450000  ekin = 1.54505171747098 |  erot = 1.19665850060397 | epot = -11.2718233296474 | etot = -8.53011311157245
451000  ekin = 1.54440025802266 |  erot = 1.16936613900744 | epot = -11.2438795084035 | etot = -8.53011311137341
452000  ekin = 1.54941604020834 |  erot = 1.13989972058507 | epot = -11.2194288719472 | etot = -8.5301131111538
453000  ekin = 1.56073218733759 |  erot = 1.11111895993854 | epot = -11.2019642583116 | etot = -8.5301131110355
454000  ekin = 1.57840116510927 |  erot = 1.08594835310017 | epot = -11.1944626290754 | etot = -8.53011311086592
455000  ekin = 1.601995726954 |  erot = 1.06716100526496 | epot = -11.1992698429482 | etot = -8.53011311072925
456000  ekin = 1.63102931523391 |  erot = 1.05734777204784 | epot = -11.2184901979328 | etot = -8.53011311065108
457000  ekin = 1.66465491829929 |  erot = 1.05859720823486 | epot = -11.25336523717 | etot = -8.53011311063581
458000  ekin = 1.70170935167593 |  erot = 1.07231891092448 | epot = -11.3041413732864 | etot = -8.53011311068599
459000  ekin = 1.7407794029015 |  erot = 1.09914653783994 | epot = -11.3700390515413 | etot = -8.53011311079982
460000  ekin = 1.78028759701322 |  erot = 1.13890397190042 | epot = -11.4493046798752 | etot = -8.5301131109616
461000  ekin = 1.81860197242949 |  erot = 1.19067102876365 | epot = -11.539386112353 | etot = -8.53011311115989
462000  ekin = 1.85415391005744 |  erot = 1.25289584358374 | epot = -11.6371628650211 | etot = -8.53011311137988
463000  ekin = 1.88554792944948 |  erot = 1.3235024717984 | epot = -11.739163512856 | etot = -8.53011311160815
464000  ekin = 1.91164681845144 |  erot = 1.40002350523732 | epot = -11.8417834355221 | etot = -8.5301131118333
465000  ekin = 1.93162421638187 |  erot = 1.47973907161313 | epot = -11.9414764000402 | etot = -8.5301131120452
466000  ekin = 1.94498500126989 |  erot = 1.55982523463937 | epot = -12.0349233481435 | etot = -8.53011311223423
467000  ekin = 1.95156193454112 |  erot = 1.63751691044159 | epot = -12.1191919573735 | etot = -8.53011311239078
468000  ekin = 1.95150012931985 |  erot = 1.71026532451092 | epot = -12.1918785663379 | etot = -8.53011311250716
469000  ekin = 1.94523738406744 |  erot = 1.7759064103245 | epot = -12.2512569069617 | etot = -8.53011311256974
470000  ekin = 1.93348412613007 |  erot = 1.83286583557099 | epot = -12.2964630742777 | etot = -8.53011311257661
471000  ekin = 1.91719298127392 |  erot = 1.88021093656515 | epot = -12.3275170303717 | etot = -8.53011311253268
472000  ekin = 1.89750254537298 |  erot = 1.91763317251143 | epot = -12.3452488303327 | etot = -8.53011311244833
473000  ekin = 1.87564239828497 |  erot = 1.94536290421053 | epot = -12.3511184148396 | etot = -8.53011311234412
474000  ekin = 1.85280042951765 |  erot = 1.96399915053207 | epot = -12.3469126922909 | etot = -8.53011311224115
475000  ekin = 1.82997212692377 |  erot = 1.9743433684352 | epot = -12.3344286075125 | etot = -8.53011311215353
476000  ekin = 1.80782991664007 |  erot = 1.97731520040876 | epot = -12.3152582291305 | etot = -8.53011311208166
477000  ekin = 1.78665653477381 |  erot = 1.97399991971349 | epot = -12.2907695664986 | etot = -8.53011311201126
478000  ekin = 1.76636958091236 |  erot = 1.9658140143465 | epot = -12.2622967071795 | etot = -8.5301131119206
479000  ekin = 1.74662905134933 |  erot = 1.95469632259907 | epot = -12.2314384857418 | etot = -8.53011311179338
480000  ekin = 1.72698437878123 |  erot = 1.9431887679411 | epot = -12.2002862583526 | etot = -8.53011311163024
481000  ekin = 1.70700474377422 |  erot = 1.93430214046924 | epot = -12.1714199956951 | etot = -8.53011311145166
482000  ekin = 1.68635525356891 |  erot = 1.93116021406649 | epot = -12.147628578926 | etot = -8.53011311129063
483000  ekin = 1.66481678021135 |  erot = 1.93652118160286 | epot = -12.1314510729945 | etot = -8.53011311118025
484000  ekin = 1.6422770599304 |  erot = 1.95232513145262 | epot = -12.124715302525 | etot = -8.53011311114202
485000  ekin = 1.61901562080308 |  erot = 1.97931073968796 | epot = -12.1284394716016 | etot = -8.53011311111052
486000  ekin = 1.59577228279584 |  erot = 2.01691499832701 | epot = -12.1428003923466 | etot = -8.53011311122377
487000  ekin = 1.5726976073156 |  erot = 2.06349128121944 | epot = -12.166302000014 | etot = -8.53011311147895
488000  ekin = 1.54979615320385 |  erot = 2.11629853285763 | epot = -12.1962077977342 | etot = -8.53011311167275
489000  ekin = 1.52793571893382 |  erot = 2.17194986392789 | epot = -12.2299986947139 | etot = -8.53011311185218
490000  ekin = 1.50872304470115 |  erot = 2.22662776559679 | epot = -12.2654639222932 | etot = -8.53011311199526
491000  ekin = 1.49451121745785 |  erot = 2.27632252256503 | epot = -12.3009468521215 | etot = -8.53011311209864
492000  ekin = 1.48823109411415 |  erot = 2.31702824482111 | epot = -12.3353724511176 | etot = -8.53011311218238
493000  ekin = 1.49518318209271 |  erot = 2.34597345237406 | epot = -12.3712697461198 | etot = -8.53011311165304
494000  ekin = 1.51845501165919 |  erot = 2.36107283299034 | epot = -12.4096409568443 | etot = -8.53011311219474
495000  ekin = 1.55341225536929 |  erot = 2.35806327093555 | epot = -12.4415886369949 | etot = -8.53011311069005
496000  ekin = 1.60682048122344 |  erot = 2.3340672304928 | epot = -12.4710008246549 | etot = -8.53011311293862
497000  ekin = 1.66595753312185 |  erot = 2.29001283524384 | epot = -12.4860834812982 | etot = -8.53011311293247
498000  ekin = 1.73079985976382 |  erot = 2.22455469203371 | epot = -12.4854676647411 | etot = -8.53011311294352
499000  ekin = 1.79938231063312 |  erot = 2.13975923972669 | epot = -12.4692546631917 | etot = -8.53011311283187
500000  ekin = 1.86459078890622 |  erot = 2.04085817004223 | epot = -12.4355620715728 | etot = -8.53011311262434
501000  ekin = 1.92273434830708 |  erot = 1.93494769033077 | epot = -12.3877951508818 | etot = -8.53011311224398
502000  ekin = 1.97166638935067 |  erot = 1.83018302876625 | epot = -12.3319625299275 | etot = -8.53011311181053
503000  ekin = 2.01030983363916 |  erot = 1.73409537515224 | epot = -12.2745183201332 | etot = -8.53011311134178
504000  ekin = 2.03852387656583 |  erot = 1.65386645969169 | epot = -12.2225034472042 | etot = -8.53011311094666
505000  ekin = 2.05672143890249 |  erot = 1.5951695431987 | epot = -12.182004092794 | etot = -8.53011311069283
506000  ekin = 2.06541322369564 |  erot = 1.56133329124062 | epot = -12.1568596255599 | etot = -8.53011311062362
507000  ekin = 2.06489683747097 |  erot = 1.55298683202232 | epot = -12.1479967802499 | etot = -8.53011311075663
508000  ekin = 2.05510409508288 |  erot = 1.56796083678997 | epot = -12.1531780429542 | etot = -8.53011311108135
509000  ekin = 2.03562755335735 |  erot = 1.6014641311663 | epot = -12.1672047960773 | etot = -8.53011311155361
510000  ekin = 2.0059290836208 |  erot = 1.64659845424943 | epot = -12.1826406499626 | etot = -8.53011311209234
511000  ekin = 1.9656968001201 |  erot = 1.69527026509278 | epot = -12.1910801777999 | etot = -8.53011311258698
512000  ekin = 1.91525552531113 |  erot = 1.73945419950567 | epot = -12.1848228377404 | etot = -8.53011311292356
513000  ekin = 1.85587746893783 |  erot = 1.77257277562009 | epot = -12.1585633575815 | etot = -8.53011311302363
514000  ekin = 1.78983987134752 |  erot = 1.79060149181183 | epot = -12.1105544760337 | etot = -8.53011311287438
515000  ekin = 1.72017129591416 |  erot = 1.7925412010645 | epot = -12.0428256095076 | etot = -8.53011311252899
516000  ekin = 1.65040042950193 |  erot = 1.78043480915809 | epot = -11.9609483505948 | etot = -8.53011311193474
517000  ekin = 1.58404068014581 |  erot = 1.75852731252286 | epot = -11.8726811041263 | etot = -8.5301131114576
518000  ekin = 1.52414481737364 |  erot = 1.73170053428691 | epot = -11.7859584626124 | etot = -8.53011311095184
519000  ekin = 1.47366796925332 |  erot = 1.70507688462324 | epot = -11.7088579644956 | etot = -8.53011311061909
520000  ekin = 1.4336537817973 |  erot = 1.68280907302141 | epot = -11.646575965153 | etot = -8.53011311033426
521000  ekin = 1.40489785043721 |  erot = 1.66827026613384 | epot = -11.6032812266553 | etot = -8.53011311008428
522000  ekin = 1.38811259815573 |  erot = 1.66372628764844 | epot = -11.5819519960241 | etot = -8.53011311021994
523000  ekin = 1.38336778490129 |  erot = 1.66945534863268 | epot = -11.58293624363 | etot = -8.53011311009606
524000  ekin = 1.3913126502459 |  erot = 1.68543796397887 | epot = -11.6068637243454 | etot = -8.53011311012059
525000  ekin = 1.41205700478391 |  erot = 1.71025646512276 | epot = -11.6524265802486 | etot = -8.53011311034194
526000  ekin = 1.44455820368128 |  erot = 1.7408487288601 | epot = -11.7155200433033 | etot = -8.5301131107619
527000  ekin = 1.48642955052829 |  erot = 1.77280714509435 | epot = -11.7893498069414 | etot = -8.53011311131872
528000  ekin = 1.53418163870907 |  erot = 1.80110112523955 | epot = -11.8653958758444 | etot = -8.53011311189574
529000  ekin = 1.58386362601825 |  erot = 1.82112172078186 | epot = -11.9350984591552 | etot = -8.53011311235511
530000  ekin = 1.63189696415521 |  erot = 1.82978202390416 | epot = -11.9917921006438 | etot = -8.53011311258448
531000  ekin = 1.67581590193207 |  erot = 1.82633306141048 | epot = -12.0322620756507 | etot = -8.5301131123082
532000  ekin = 1.7158553823674 |  erot = 1.81520910325175 | epot = -12.0611775977952 | etot = -8.53011311217609
533000  ekin = 1.75284097660823 |  erot = 1.80146596914443 | epot = -12.0844200576741 | etot = -8.53011311192148
534000  ekin = 1.78745390743537 |  erot = 1.78869315999008 | epot = -12.1062601790962 | etot = -8.53011311167072
535000  ekin = 1.8206503812731 |  erot = 1.780275917528 | epot = -12.1310394103256 | etot = -8.53011311152449
536000  ekin = 1.85299611868859 |  erot = 1.77858522848976 | epot = -12.1616944587211 | etot = -8.53011311154276
537000  ekin = 1.88407496145215 |  erot = 1.78428087125629 | epot = -12.1984689444103 | etot = -8.53011311170191
538000  ekin = 1.91279454454533 |  erot = 1.79686892929592 | epot = -12.2397765856266 | etot = -8.53011311178537
539000  ekin = 1.93839394839969 |  erot = 1.81622314390843 | epot = -12.2847302042266 | etot = -8.53011311191852
540000  ekin = 1.95998962534144 |  erot = 1.84168603209833 | epot = -12.3317887694832 | etot = -8.53011311204347
541000  ekin = 1.97685104517888 |  erot = 1.87234426277005 | epot = -12.3793084201202 | etot = -8.53011311217123
542000  ekin = 1.98798216003479 |  erot = 1.90711972835206 | epot = -12.4252150005513 | etot = -8.53011311216449
543000  ekin = 1.99396475052983 |  erot = 1.945576946181 | epot = -12.4696548087713 | etot = -8.53011311206048
544000  ekin = 1.99659195334791 |  erot = 1.98768793524451 | epot = -12.5143930004874 | etot = -8.53011311189503
545000  ekin = 1.99841939299606 |  erot = 2.03351546468472 | epot = -12.5620479694138 | etot = -8.53011311173304
546000  ekin = 2.00223379008667 |  erot = 2.0827823942969 | epot = -12.6151292960316 | etot = -8.53011311164803
547000  ekin = 2.01043375036019 |  erot = 2.13441666463564 | epot = -12.674963526692 | etot = -8.53011311169613
548000  ekin = 2.02454142532241 |  erot = 2.18636947292415 | epot = -12.7410240101592 | etot = -8.53011311191265
549000  ekin = 2.04472650265224 |  erot = 2.23524716352228 | epot = -12.8100867784561 | etot = -8.53011311228159
550000  ekin = 2.06971706084028 |  erot = 2.27669143349774 | epot = -12.8765216070943 | etot = -8.53011311275624
551000  ekin = 2.09694987343594 |  erot = 2.30602592213473 | epot = -12.9330889088326 | etot = -8.53011311326193
552000  ekin = 2.12288123765233 |  erot = 2.31896388909698 | epot = -12.9719582404551 | etot = -8.53011311370584
553000  ekin = 2.14351313995335 |  erot = 2.31240753793649 | epot = -12.9860337918829 | etot = -8.53011311399303
554000  ekin = 2.15523965907907 |  erot = 2.28547313898653 | epot = -12.9708259121304 | etot = -8.53011311406476
555000  ekin = 2.15534485410926 |  erot = 2.23961985935181 | epot = -12.9250778273599 | etot = -8.53011311389882
556000  ekin = 2.14242415869296 |  erot = 2.17853141058428 | epot = -12.8510686828015 | etot = -8.53011311352426
557000  ekin = 2.11652525560435 |  erot = 2.1075590112211 | epot = -12.7541973798358 | etot = -8.5301131130104
558000  ekin = 2.07899262360117 |  erot = 2.03287016333855 | epot = -12.6419758993834 | etot = -8.53011311244369
559000  ekin = 2.0320952570691 |  erot = 1.96055588826784 | epot = -12.5227642572393 | etot = -8.53011311190237
560000  ekin = 1.97856970493128 |  erot = 1.89593544894334 | epot = -12.4046182653067 | etot = -8.5301131114321
561000  ekin = 1.92120586059015 |  erot = 1.84318662679526 | epot = -12.2945055984573 | etot = -8.53011311107193
562000  ekin = 1.86248053377607 |  erot = 1.8052511136239 | epot = -12.1978447582136 | etot = -8.53011311081363
563000  ekin = 1.8044056602921 |  erot = 1.78397358726299 | epot = -12.1184923582038 | etot = -8.53011311064866
564000  ekin = 1.74859757239431 |  erot = 1.78025486278411 | epot = -12.0589655457279 | etot = -8.53011311054952
565000  ekin = 1.69697420506686 |  erot = 1.79398971152769 | epot = -12.0210770271779 | etot = -8.53011311058339
566000  ekin = 1.64969612949606 |  erot = 1.82405026339996 | epot = -12.0038595036661 | etot = -8.53011311077008
567000  ekin = 1.60592346389133 |  erot = 1.86815174766649 | epot = -12.0041883226168 | etot = -8.53011311105901
568000  ekin = 1.56447342355334 |  erot = 1.9229510651846 | epot = -12.017537600017 | etot = -8.5301131112791
569000  ekin = 1.5249189399058 |  erot = 1.9848167243289 | epot = -12.0398487760181 | etot = -8.53011311178338
570000  ekin = 1.48563885354617 |  erot = 2.04789795967133 | epot = -12.0636499255003 | etot = -8.5301131122828
571000  ekin = 1.44514780819869 |  erot = 2.10567642130785 | epot = -12.0809373422384 | etot = -8.53011311273184
572000  ekin = 1.40265340711305 |  erot = 2.15189441844554 | epot = -12.0846609385934 | etot = -8.53011311303485
573000  ekin = 1.35831475977169 |  erot = 2.18135236040309 | epot = -12.0697802333439 | etot = -8.53011311316915
574000  ekin = 1.31325665398762 |  erot = 2.19054857027398 | epot = -12.033918337377 | etot = -8.53011311311536
575000  ekin = 1.26941751353478 |  erot = 2.17808969341531 | epot = -11.9776203199914 | etot = -8.53011311304127
576000  ekin = 1.22896606046744 |  erot = 2.14379444928284 | epot = -11.9028736225321 | etot = -8.53011311278182
577000  ekin = 1.19393185424958 |  erot = 2.08947552578937 | epot = -11.8135204923717 | etot = -8.53011311233275
578000  ekin = 1.16652110218135 |  erot = 2.01971345754357 | epot = -11.7163476715595 | etot = -8.53011311183457
579000  ekin = 1.14855907858584 |  erot = 1.94028096237537 | epot = -11.6189531523163 | etot = -8.53011311135512
580000  ekin = 1.14121418715426 |  erot = 1.85735567591632 | epot = -11.5286829740285 | etot = -8.53011311095796
581000  ekin = 1.14478819464611 |  erot = 1.7767355740351 | epot = -11.4516368793735 | etot = -8.53011311069233
582000  ekin = 1.15860725310189 |  erot = 1.70317164276779 | epot = -11.391892006456 | etot = -8.53011311058632
583000  ekin = 1.18104542316811 |  erot = 1.63989823949237 | epot = -11.3510567733034 | etot = -8.53011311064297
584000  ekin = 1.20969611011887 |  erot = 1.58840206182665 | epot = -11.3282112827866 | etot = -8.53011311084111
585000  ekin = 1.24168069892305 |  erot = 1.54843600705948 | epot = -11.3202298171212 | etot = -8.53011311113868
586000  ekin = 1.2740546840078 |  erot = 1.51825728966861 | epot = -11.3224250851562 | etot = -8.53011311147982
587000  ekin = 1.30424737194179 |  erot = 1.49504623591216 | epot = -11.3294067196582 | etot = -8.53011311180426
588000  ekin = 1.33045790147862 |  erot = 1.47543949669554 | epot = -11.336010510232 | etot = -8.53011311205788
589000  ekin = 1.35193228855922 |  erot = 1.45609131903564 | epot = -11.3381367197977 | etot = -8.53011311220281
590000  ekin = 1.3690637353216 |  erot = 1.43416814795309 | epot = -11.3333449954988 | etot = -8.53011311222415
591000  ekin = 1.38329049901086 |  erot = 1.40769463798183 | epot = -11.3210982491251 | etot = -8.53011311213237
592000  ekin = 1.39680526625229 |  erot = 1.37570509646357 | epot = -11.3026234746754 | etot = -8.5301131119595
593000  ekin = 1.41212834900077 |  erot = 1.33820418780231 | epot = -11.2804456485532 | etot = -8.53011311175016
594000  ekin = 1.43162615781853 |  erot = 1.295986417953 | epot = -11.2577256873211 | etot = -8.53011311154953
595000  ekin = 1.45706677221744 |  erot = 1.250391132337 | epot = -11.2375710159481 | etot = -8.53011311139362
596000  ekin = 1.48935058064689 |  erot = 1.20330184638379 | epot = -11.222765538265 | etot = -8.53011311123432
597000  ekin = 1.52837107420579 |  erot = 1.15683058607483 | epot = -11.2153147714789 | etot = -8.53011311119825
598000  ekin = 1.57294993725724 |  erot = 1.11287817711154 | epot = -11.2159412255862 | etot = -8.53011311121744
599000  ekin = 1.62105272044028 |  erot = 1.07333264838417 | epot = -11.2244984800962 | etot = -8.5301131112717
600000  ekin = 1.67007785978927 |  erot = 1.04007259181371 | epot = -11.2402635629414 | etot = -8.53011311133838
601000  ekin = 1.71718069772665 |  erot = 1.01497757077084 | epot = -11.2622713798937 | etot = -8.53011311139617
602000  ekin = 1.75956754279021 |  erot = 0.999928377461801 | epot = -11.2896090316898 | etot = -8.53011311143777
603000  ekin = 1.79477210700253 |  erot = 0.996719273887856 | epot = -11.3216044923427 | etot = -8.53011311145232
604000  ekin = 1.82082157915211 |  erot = 1.00697983034402 | epot = -11.3579145210094 | etot = -8.53011311151329
605000  ekin = 1.83582223390645 |  erot = 1.03147611611005 | epot = -11.3974114615043 | etot = -8.53011311148779
606000  ekin = 1.8387140851627 |  erot = 1.07115549980537 | epot = -11.4399826962261 | etot = -8.53011311125804
607000  ekin = 1.83011347633669 |  erot = 1.1264712109122 | epot = -11.4866977985761 | etot = -8.53011311132725
608000  ekin = 1.8102394194917 |  erot = 1.19707781561461 | epot = -11.537430346509 | etot = -8.53011311140273
609000  ekin = 1.77867265022502 |  erot = 1.28228554239947 | epot = -11.5910713041089 | etot = -8.53011311148444
610000  ekin = 1.73547793526514 |  erot = 1.38091511477527 | epot = -11.6465061616037 | etot = -8.53011311156333
611000  ekin = 1.68128247270891 |  erot = 1.49134780299442 | epot = -11.7027433873263 | etot = -8.53011311162298
612000  ekin = 1.61741095621708 |  erot = 1.6116145640346 | epot = -11.7591386318972 | etot = -8.53011311164548
613000  ekin = 1.54603198036209 |  erot = 1.73948721912068 | epot = -11.8156323111033 | etot = -8.53011311162058
614000  ekin = 1.47024512206905 |  erot = 1.87249022213823 | epot = -11.8728484558906 | etot = -8.53011311168336
615000  ekin = 1.39417329366749 |  erot = 2.00621352658744 | epot = -11.9304999319624 | etot = -8.53011311170745
616000  ekin = 1.32190082987795 |  erot = 2.13583847737815 | epot = -11.9878524190141 | etot = -8.53011311175805
617000  ekin = 1.25724259788341 |  erot = 2.25683214183279 | epot = -12.044187851591 | etot = -8.53011311187476
618000  ekin = 1.20346368463748 |  erot = 2.36421640891362 | epot = -12.0977932056388 | etot = -8.53011311208765
619000  ekin = 1.1627837357839 |  erot = 2.45267600796726 | epot = -12.1455728561444 | etot = -8.53011311239321
620000  ekin = 1.13605929310698 |  erot = 2.51695592467634 | epot = -12.1831283305324 | etot = -8.53011311274907
621000  ekin = 1.12273498783652 |  erot = 2.5525832487945 | epot = -12.2054313497004 | etot = -8.53011311306935
622000  ekin = 1.12111468633955 |  erot = 2.55686207164847 | epot = -12.2080898712351 | etot = -8.53011311324703
623000  ekin = 1.12887388452668 |  erot = 2.52989511158575 | epot = -12.1888821093023 | etot = -8.53011311318982
624000  ekin = 1.14366711341982 |  erot = 2.47526890170086 | epot = -12.1490491279779 | etot = -8.53011311285719
625000  ekin = 1.16365333268032 |  erot = 2.40007033438084 | epot = -12.0938367793385 | etot = -8.53011311227731
626000  ekin = 1.1877796889279 |  erot = 2.31409540899866 | epot = -12.0319882094815 | etot = -8.53011311155492
627000  ekin = 1.21575247625636 |  erot = 2.22841508882912 | epot = -11.974280675903 | etot = -8.53011311081753
628000  ekin = 1.24777701345755 |  erot = 2.15375689269322 | epot = -11.9316470163397 | etot = -8.53011311018898
629000  ekin = 1.28416743273269 |  erot = 2.0990785591541 | epot = -11.9133591016497 | etot = -8.53011310976295
630000  ekin = 1.3249536049168 |  erot = 2.07058701615878 | epot = -11.9256537306725 | etot = -8.53011310959688
631000  ekin = 1.36955506517704 |  erot = 2.07123416093218 | epot = -11.970902335822 | etot = -8.53011310971283
632000  ekin = 1.41660411980783 |  erot = 2.10067869858403 | epot = -12.0473959281541 | etot = -8.53011310976226
633000  ekin = 1.46471660335937 |  erot = 2.15728920673495 | epot = -12.1521189203372 | etot = -8.53011311024285
634000  ekin = 1.5116423330738 |  erot = 2.23677755842588 | epot = -12.2785330023927 | etot = -8.53011311089301
635000  ekin = 1.55431486763673 |  erot = 2.33246650108445 | epot = -12.4168944816116 | etot = -8.5301131128904
636000  ekin = 1.58749795609299 |  erot = 2.43289415005748 | epot = -12.5505052200571 | etot = -8.53011311390666
637000  ekin = 1.60559044461902 |  erot = 2.52510908162173 | epot = -12.6608126409174 | etot = -8.53011311467662
638000  ekin = 1.60593314361717 |  erot = 2.60108258773675 | epot = -12.7371288464172 | etot = -8.53011311506329
639000  ekin = 1.58800768940635 |  erot = 2.65612694656144 | epot = -12.7742477510045 | etot = -8.53011311503675
640000  ekin = 1.55357432529172 |  erot = 2.68914087075659 | epot = -12.7728283107672 | etot = -8.53011311471885
641000  ekin = 1.50594258808403 |  erot = 2.70186118673875 | epot = -12.7379168890284 | etot = -8.53011311420558
642000  ekin = 1.44931462465822 |  erot = 2.69765625484959 | epot = -12.6770839931722 | etot = -8.53011311366437
643000  ekin = 1.38808387569846 |  erot = 2.68019687245753 | epot = -12.5983938613571 | etot = -8.53011311320107
644000  ekin = 1.32616709544766 |  erot = 2.65251028990018 | epot = -12.5087904982142 | etot = -8.53011311286636
645000  ekin = 1.26675082971288 |  erot = 2.61647581101856 | epot = -12.4133397533931 | etot = -8.53011311266169
646000  ekin = 1.21233854698239 |  erot = 2.57274112824624 | epot = -12.3151927877793 | etot = -8.53011311255063
647000  ekin = 1.16530705824513 |  erot = 2.5217462541534 | epot = -12.2171664245162 | etot = -8.53011311211771
648000  ekin = 1.12796239477798 |  erot = 2.46431327603398 | epot = -12.122388782996 | etot = -8.53011311218402
649000  ekin = 1.10135546654543 |  erot = 2.39865320679758 | epot = -12.0301217854793 | etot = -8.53011311213631
650000  ekin = 1.08691260033709 |  erot = 2.32393477717278 | epot = -11.9409604894842 | etot = -8.53011311197434
651000  ekin = 1.08628079617831 |  erot = 2.24073961887863 | epot = -11.8571335268109 | etot = -8.53011311175398
652000  ekin = 1.10075131990634 |  erot = 2.15085977532613 | epot = -11.7817242067922 | etot = -8.53011311155974
653000  ekin = 1.13059734565321 |  erot = 2.05677047633761 | epot = -11.7174809334498 | etot = -8.53011311145893
654000  ekin = 1.17466906494936 |  erot = 1.96105944317186 | epot = -11.6658416195893 | etot = -8.53011311146811
655000  ekin = 1.23047347721873 |  erot = 1.86606271801435 | epot = -11.6266493067841 | etot = -8.53011311155106
656000  ekin = 1.29470000779083 |  erot = 1.77378178161793 | epot = -11.5985949010557 | etot = -8.53011311164694
657000  ekin = 1.36393161431824 |  erot = 1.68598333612987 | epot = -11.5800280621529 | etot = -8.53011311170483
658000  ekin = 1.46427470176043 |  erot = 1.51772157409014 | epot = -11.5121093881302 | etot = -8.53011311227959
659000  ekin = 1.64802750939022 |  erot = 1.39327336689376 | epot = -11.5714140171067 | etot = -8.53011314082273
660000  ekin = 1.73185850257778 |  erot = 1.3295411594665 | epot = -11.5915127822407 | etot = -8.53011312019639
661000  ekin = 1.80627684680885 |  erot = 1.27623279768931 | epot = -11.6126227646866 | etot = -8.53011312018847
662000  ekin = 1.87475382732446 |  erot = 1.23350073992408 | epot = -11.6383676874432 | etot = -8.53011312019471
663000  ekin = 1.93633534016178 |  erot = 1.20171441189947 | epot = -11.6681628722886 | etot = -8.53011312022732
664000  ekin = 1.99014964301494 |  erot = 1.18083533498295 | epot = -11.7010980982892 | etot = -8.53011312029132
665000  ekin = 2.03529479420636 |  erot = 1.17046521671664 | epot = -11.735873131308 | etot = -8.53011312038497
666000  ekin = 2.07079068067167 |  erot = 1.16992318050101 | epot = -11.7708269816743 | etot = -8.5301131205016
667000  ekin = 2.09559163008676 |  erot = 1.17833553455765 | epot = -11.8040402852757 | etot = -8.53011312063128
668000  ekin = 2.10864748671423 |  erot = 1.19472204260171 | epot = -11.8334826500796 | etot = -8.53011312076368
669000  ekin = 2.10899520333026 |  erot = 1.21806343010007 | epot = -11.8571717543206 | etot = -8.53011312089023
670000  ekin = 2.09586141354525 |  erot = 1.24733872817407 | epot = -11.8733132627235 | etot = -8.53011312100421
671000  ekin = 2.068762787098 |  erot = 1.28153124625685 | epot = -11.8804071544553 | etot = -8.5301131211004
672000  ekin = 2.02760595017448 |  erot = 1.31961745604762 | epot = -11.8773365273931 | etot = -8.53011312117098
673000  ekin = 1.97280574595705 |  erot = 1.36056605412237 | epot = -11.8634849212816 | etot = -8.53011312120221
674000  ekin = 1.90544539354424 |  erot = 1.40337348376535 | epot = -11.8389319984827 | etot = -8.53011312117309
675000  ekin = 1.82748035868504 |  erot = 1.44714139190344 | epot = -11.8047348716492 | etot = -8.53011312106071
676000  ekin = 1.74193854032682 |  erot = 1.49116973847738 | epot = -11.7632213996555 | etot = -8.53011312085132
677000  ekin = 1.65301515488034 |  erot = 1.53501856941755 | epot = -11.7181468448497 | etot = -8.53011312055176
678000  ekin = 1.56597364723852 |  erot = 1.57850581645581 | epot = -11.6745925833963 | etot = -8.53011311970194
679000  ekin = 1.48964066739842 |  erot = 1.62216732403127 | epot = -11.6419211112302 | etot = -8.53011311980047
680000  ekin = 1.41474111992769 |  erot = 1.66316827970068 | epot = -11.608022522731 | etot = -8.53011312310264
[...]
836000  ekin = 1.63847039446473 |  erot = 2.56396340709026 | epot = -12.7325469250142 | etot = -8.53011312345919
837000  ekin = 1.76350003260508 |  erot = 2.49326751329086 | epot = -12.7868806698075 | etot = -8.53011312391161
838000  ekin = 1.88545581841659 |  erot = 2.41282706135739 | epot = -12.8283960041697 | etot = -8.53011312439575
839000  ekin = 1.99811239252423 |  erot = 2.32192717675838 | epot = -12.8501526941075 | etot = -8.53011312482491
840000  ekin = 2.09569613381754 |  erot = 2.22044440711267 | epot = -12.8462536659934 | etot = -8.53011312506321
841000  ekin = 2.17372526458142 |  erot = 2.10989077519493 | epot = -12.8137291647737 | etot = -8.53011312499732
842000  ekin = 2.22978701489745 |  erot = 1.99424893653508 | epot = -12.7541490760042 | etot = -8.53011312457168
843000  ekin = 2.26403143579391 |  erot = 1.88022583110555 | epot = -12.674370390718 | etot = -8.53011312381855
844000  ekin = 2.27916623050959 |  erot = 1.77673401952997 | epot = -12.5860133728978 | etot = -8.5301131228582
845000  ekin = 2.27988872464566 |  erot = 1.69367250750107 | epot = -12.5036743540144 | etot = -8.5301131218677
846000  ekin = 2.27183600928308 |  erot = 1.64035007883682 | epot = -12.4422992091634 | etot = -8.53011312104352
847000  ekin = 2.26027572817844 |  erot = 1.6239672341206 | epot = -12.4143560828269 | etot = -8.53011312052791
848000  ekin = 2.24926761303696 |  erot = 1.64823314902357 | epot = -12.4276138824767 | etot = -8.53011312041621
849000  ekin = 2.2409304996373 |  erot = 1.7127191869587 | epot = -12.4837628073227 | etot = -8.53011312072673
850000  ekin = 2.23528630972878 |  erot = 1.81271493779141 | epot = -12.5781143689312 | etot = -8.53011312141102
851000  ekin = 2.23059418781143 |  erot = 1.93958610382867 | epot = -12.7002934140097 | etot = -8.53011312236962
852000  ekin = 2.22400796081198 |  erot = 2.08159933081266 | epot = -12.8357204149898 | etot = -8.53011312336517
853000  ekin = 2.21277994498023 |  erot = 2.22526716129808 | epot = -12.9681602307806 | etot = -8.53011312450228
854000  ekin = 2.19416370961739 |  erot = 2.35673636874866 | epot = -13.0810132038027 | etot = -8.53011312543664
855000  ekin = 2.16598116515109 |  erot = 2.46372761528164 | epot = -13.159821906468 | etot = -8.53011312603531
856000  ekin = 2.12753272380137 |  erot = 2.53738513635797 | epot = -13.1950309863878 | etot = -8.53011312622846
857000  ekin = 2.07957021480506 |  erot = 2.5733641191515 | epot = -13.1830474599809 | etot = -8.53011312602436
858000  ekin = 2.02398845904357 |  erot = 2.57205351926334 | epot = -13.1261551038021 | etot = -8.53011312549514
859000  ekin = 1.96347606560471 |  erot = 2.538301329127 | epot = -13.0318905195264 | etot = -8.53011312479471
860000  ekin = 1.90079123527623 |  erot = 2.47952673186276 | epot = -12.9104310912327 | etot = -8.53011312409367
861000  ekin = 1.83808336626078 |  erot = 2.40350575738459 | epot = -12.771702247107 | etot = -8.53011312346161
862000  ekin = 1.7769226964898 |  erot = 2.31773605221603 | epot = -12.6247718716715 | etot = -8.53011312296563
863000  ekin = 1.71824491583962 |  erot = 2.22850238053643 | epot = -12.4768604189972 | etot = -8.53011312262119
864000  ekin = 1.66247784195644 |  erot = 2.14047748401912 | epot = -12.3330684483814 | etot = -8.53011312240586
865000  ekin = 1.60977147001189 |  erot = 2.05677487411754 | epot = -12.1966594664085 | etot = -8.53011312227909
866000  ekin = 1.5602354279003 |  erot = 1.97927297432111 | epot = -12.0696215244206 | etot = -8.53011312219923
867000  ekin = 1.5141162515596 |  erot = 1.90904243445895 | epot = -11.95327180815 | etot = -8.53011312213141
868000  ekin = 1.47188909913906 |  erot = 1.84677021416781 | epot = -11.8487724353568 | etot = -8.53011312204993
869000  ekin = 1.43450342551766 |  erot = 1.79302433223088 | epot = -11.7576408796875 | etot = -8.53011312193895
870000  ekin = 1.40309125560257 |  erot = 1.74850970124891 | epot = -11.6817140786662 | etot = -8.53011312181474
871000  ekin = 1.37958721284379 |  erot = 1.71440263903883 | epot = -11.6241029734475 | etot = -8.53011312156489
872000  ekin = 1.36659086815741 |  erot = 1.69146102325433 | epot = -11.5881650131034 | etot = -8.53011312169162
873000  ekin = 1.36373253533302 |  erot = 1.68047336436782 | epot = -11.5743190213543 | etot = -8.53011312165341
874000  ekin = 1.37056306917168 |  erot = 1.68272728098881 | epot = -11.5834034718139 | etot = -8.53011312165341
875000  ekin = 1.3864192230475 |  erot = 1.69919412002808 | epot = -11.6157264647898 | etot = -8.53011312171422
876000  ekin = 1.41041928725535 |  erot = 1.73002723125778 | epot = -11.6705596403935 | etot = -8.53011312188036
877000  ekin = 1.44135762457885 |  erot = 1.77412255949985 | epot = -11.7455933061831 | etot = -8.53011312210442
878000  ekin = 1.47769632418173 |  erot = 1.82989689230891 | epot = -11.8377063388571 | etot = -8.53011312236644
879000  ekin = 1.51786971939981 |  erot = 1.89513519880948 | epot = -11.9431180408527 | etot = -8.53011312264339
880000  ekin = 1.56043024313837 |  erot = 1.96714021039869 | epot = -12.0576835764586 | etot = -8.53011312292149
881000  ekin = 1.60413749600546 |  erot = 2.04284304208084 | epot = -12.1770936612861 | etot = -8.53011312319976
882000  ekin = 1.64798530769034 |  erot = 2.11880523098331 | epot = -12.2969036621876 | etot = -8.53011312351396
883000  ekin = 1.69122698488457 |  erot = 2.19098801160399 | epot = -12.4123281203044 | etot = -8.53011312381588
884000  ekin = 1.73324713426401 |  erot = 2.25513555685009 | epot = -12.518495815234 | etot = -8.5301131241199
885000  ekin = 1.77353313459879 |  erot = 2.30696174268605 | epot = -12.6106080016839 | etot = -8.53011312439907
886000  ekin = 1.81168812334986 |  erot = 2.34253084485012 | epot = -12.6843320928115 | etot = -8.53011312461151
887000  ekin = 1.84747843477679 |  erot = 2.35884841151242 | epot = -12.7364399709989 | etot = -8.53011312470974
888000  ekin = 1.8809005510878 |  erot = 2.35429714156542 | epot = -12.765310817859 | etot = -8.53011312520577
889000  ekin = 1.91199067528862 |  erot = 2.32652877039544 | epot = -12.768632570677 | etot = -8.53011312499295
890000  ekin = 1.94125303800117 |  erot = 2.27732909895155 | epot = -12.748695261539 | etot = -8.53011312458633
891000  ekin = 1.96982663207205 |  erot = 2.21178980997174 | epot = -12.7117295661083 | etot = -8.53011312406448
892000  ekin = 1.99917310247387 |  erot = 2.13642241819792 | epot = -12.6657086442081 | etot = -8.53011312353632
893000  ekin = 2.03065310417621 |  erot = 2.05798315745513 | epot = -12.6187493847446 | etot = -8.53011312311324
894000  ekin = 2.06504907974643 |  erot = 1.98231723802894 | epot = -12.5774794406568 | etot = -8.53011312288139
895000  ekin = 2.1021701839369 |  erot = 1.91347939811021 | epot = -12.5457627049308 | etot = -8.53011312288371
896000  ekin = 2.14066929405318 |  erot = 1.85328312216171 | epot = -12.5240655391746 | etot = -8.53011312295969
897000  ekin = 2.178881820565 |  erot = 1.80140384588356 | epot = -12.5103987897421 | etot = -8.53011312329356
898000  ekin = 2.21472564822659 |  erot = 1.75594910479886 | epot = -12.5007878767186 | etot = -8.53011312369316
899000  ekin = 2.24569847682448 |  erot = 1.71401610886598 | epot = -12.4898277097489 | etot = -8.53011312405846
900000  ekin = 2.26993925536076 |  erot = 1.67248576848322 | epot = -12.4725381481436 | etot = -8.53011312429966
901000  ekin = 2.28606210285319 |  erot = 1.62859738727852 | epot = -12.4447726152915 | etot = -8.53011312515978
902000  ekin = 2.29042230831636 |  erot = 1.5793253202287 | epot = -12.3998607538073 | etot = -8.53011312526226
903000  ekin = 2.28273813410943 |  erot = 1.52313711845165 | epot = -12.3359883777638 | etot = -8.53011312520276
904000  ekin = 2.26413659223501 |  erot = 1.45995102717232 | epot = -12.2542007444324 | etot = -8.53011312502506
905000  ekin = 2.23616199953194 |  erot = 1.3908814816503 | epot = -12.1571566059684 | etot = -8.53011312478611
906000  ekin = 2.20025203977182 |  erot = 1.31795883319974 | epot = -12.0483239975002 | etot = -8.53011312452868
907000  ekin = 2.15741247689603 |  erot = 1.2438599330396 | epot = -11.9313855341998 | etot = -8.53011312426417
908000  ekin = 2.10821372462424 |  erot = 1.1717580431236 | epot = -11.8100848916697 | etot = -8.53011312392188
909000  ekin = 2.0533959765881 |  erot = 1.1052361371856 | epot = -11.6887452373732 | etot = -8.53011312359954
910000  ekin = 1.9943738863817 |  erot = 1.04840591874189 | epot = -11.5728929279094 | etot = -8.53011312278585
911000  ekin = 1.93472408693351 |  erot = 1.00596121880683 | epot = -11.4707984281725 | etot = -8.5301131224322
912000  ekin = 1.87571848813277 |  erot = 0.981792282316895 | epot = -11.3876238925624 | etot = -8.53011312211272
913000  ekin = 1.81824273788001 |  erot = 0.979441553334138 | epot = -11.3277974130229 | etot = -8.53011312180879
914000  ekin = 1.76344481711691 |  erot = 1.00191943330251 | epot = -11.2954773719654 | etot = -8.53011312154602
915000  ekin = 1.7126576881857 |  erot = 1.05137542112642 | epot = -11.2941462307085 | etot = -8.53011312139635
916000  ekin = 1.66711519083649 |  erot = 1.12858220203734 | epot = -11.3258105142236 | etot = -8.53011312134976
917000  ekin = 1.62763655706369 |  erot = 1.23302216364502 | epot = -11.3907718421526 | etot = -8.53011312144387
918000  ekin = 1.59455865390118 |  erot = 1.36258552106968 | epot = -11.4872572966706 | etot = -8.53011312169973
919000  ekin = 1.56762589341053 |  erot = 1.51336619450293 | epot = -11.6111052100433 | etot = -8.53011312212986
920000  ekin = 1.5459315744459 |  erot = 1.67955640230889 | epot = -11.7556010994845 | etot = -8.5301131227297
921000  ekin = 1.52794851746671 |  erot = 1.85350715088319 | epot = -11.9115687918171 | etot = -8.53011312346721
922000  ekin = 1.51169520995972 |  erot = 2.02606206722181 | epot = -12.067870401454 | etot = -8.5301131242725
923000  ekin = 1.4950738423225 |  erot = 2.18724898577061 | epot = -12.2124359531328 | etot = -8.53011312503965
924000  ekin = 1.47635971360147 |  erot = 2.3273137721574 | epot = -12.3337866114077 | etot = -8.53011312564884
925000  ekin = 1.45471560014799 |  erot = 2.43791688064627 | epot = -12.4227456067991 | etot = -8.53011312600481
926000  ekin = 1.43051136688473 |  erot = 2.51317740630618 | epot = -12.473801899265 | etot = -8.5301131260741
927000  ekin = 1.40525402734709 |  erot = 2.5502684120006 | epot = -12.4856355652394 | etot = -8.53011312589176
928000  ekin = 1.38111941156276 |  erot = 2.54946754684865 | epot = -12.4607000839444 | etot = -8.53011312553295
929000  ekin = 1.3599258527227 |  erot = 2.51283593008147 | epot = -12.4028749085046 | etot = -8.53011312570039
930000  ekin = 1.34158304398879 |  erot = 2.44241099548171 | epot = -12.3141071645525 | etot = -8.53011312508201
931000  ekin = 1.32656952525849 |  erot = 2.34647203270355 | epot = -12.2031546823254 | etot = -8.53011312436339
932000  ekin = 1.31543664435648 |  erot = 2.23535488464011 | epot = -12.0809046526125 | etot = -8.53011312361596
933000  ekin = 1.30881286163193 |  erot = 2.11983848401906 | epot = -11.95876446856 | etot = -8.53011312290906
934000  ekin = 1.30745813481004 |  erot = 2.01001812957095 | epot = -11.847589386687 | etot = -8.53011312230597
935000  ekin = 1.31220098075813 |  erot = 1.9144462159354 | epot = -11.7567603185262 | etot = -8.53011312183264
936000  ekin = 1.32391210171741 |  erot = 1.83958727483052 | epot = -11.6936124980695 | etot = -8.53011312152155
937000  ekin = 1.34332477770944 |  erot = 1.78957436751403 | epot = -11.6630122666068 | etot = -8.53011312138337
938000  ekin = 1.37084792782475 |  erot = 1.76617827878338 | epot = -11.6671393280291 | etot = -8.53011312142099
939000  ekin = 1.40642931156935 |  erot = 1.76890798114243 | epot = -11.7054504143274 | etot = -8.53011312161567
940000  ekin = 1.44952186396214 |  erot = 1.79522267831962 | epot = -11.7748576642577 | etot = -8.53011312197589
941000  ekin = 1.49902948237103 |  erot = 1.84063576443025 | epot = -11.8697783692815 | etot = -8.53011312248019
942000  ekin = 1.55333690858857 |  erot = 1.89898447953926 | epot = -11.9824345112207 | etot = -8.53011312309283
943000  ekin = 1.61046155751663 |  erot = 1.96285592643144 | epot = -12.1034306077032 | etot = -8.53011312375517
944000  ekin = 1.66830779522798 |  erot = 2.02424654682829 | epot = -12.2226674664441 | etot = -8.53011312438782
945000  ekin = 1.72497649037036 |  erot = 2.07544351226215 | epot = -12.3305331275389 | etot = -8.53011312490634
946000  ekin = 1.77904739723341 |  erot = 2.10999554440733 | epot = -12.4191560668842 | etot = -8.53011312524345
947000  ekin = 1.82974878179447 |  erot = 2.1235525324349 | epot = -12.4834144395953 | etot = -8.53011312536594
948000  ekin = 1.87696379691168 |  erot = 2.11435368830262 | epot = -12.5214306113984 | etot = -8.53011312618414
949000  ekin = 1.91868968736917 |  erot = 2.08113041335485 | epot = -12.5299332268206 | etot = -8.5301131260966
950000  ekin = 1.9525004135901 |  erot = 2.02444704715869 | epot = -12.5070605866164 | etot = -8.5301131258676
951000  ekin = 1.97786377860527 |  erot = 1.94836556912359 | epot = -12.4563424732691 | etot = -8.53011312554024
952000  ekin = 1.9944032290504 |  erot = 1.85836147892453 | epot = -12.3828778331274 | etot = -8.53011312515246
953000  ekin = 2.00183985525881 |  erot = 1.76077654422277 | epot = -12.2927295242209 | etot = -8.53011312473928
954000  ekin = 1.99994520547877 |  erot = 1.66230521855966 | epot = -12.1923635483737 | etot = -8.53011312433531
955000  ekin = 1.98848781981187 |  erot = 1.56949886940344 | epot = -12.0880998131888 | etot = -8.53011312397347
956000  ekin = 1.96719248394502 |  erot = 1.48830066036356 | epot = -11.9856062679853 | etot = -8.53011312367672
957000  ekin = 1.93576585488627 |  erot = 1.42368152914648 | epot = -11.8895605074794 | etot = -8.53011312344665
958000  ekin = 1.89410745234003 |  erot = 1.37950780385348 | epot = -11.8037283792177 | etot = -8.53011312302418
959000  ekin = 1.84388200430519 |  erot = 1.35926323940579 | epot = -11.7332583666525 | etot = -8.53011312294155
960000  ekin = 1.78600307796804 |  erot = 1.36453982266578 | epot = -11.6806560234787 | etot = -8.5301131228449
961000  ekin = 1.72147601474392 |  erot = 1.39572572980377 | epot = -11.6473148672821 | etot = -8.53011312273439
962000  ekin = 1.65221748522298 |  erot = 1.4524380059047 | epot = -11.634768613771 | etot = -8.53011312264331
963000  ekin = 1.58085937428924 |  erot = 1.53327574296057 | epot = -11.6442482398661 | etot = -8.5301131226163
964000  ekin = 1.51040322860342 |  erot = 1.63556392925408 | epot = -11.6760802805373 | etot = -8.53011312267978
965000  ekin = 1.44386585375724 |  erot = 1.75533146867227 | epot = -11.7293104452584 | etot = -8.53011312282892
966000  ekin = 1.38401833471973 |  erot = 1.88762696925973 | epot = -11.8017584270141 | etot = -8.53011312303459
967000  ekin = 1.33323855953349 |  erot = 2.02706397428321 | epot = -11.8904156570798 | etot = -8.53011312326314
968000  ekin = 1.29343485248817 |  erot = 2.16835538295901 | epot = -11.9919033589444 | etot = -8.5301131234972
969000  ekin = 1.26598521106734 |  erot = 2.30662029880419 | epot = -12.1027186336141 | etot = -8.53011312374257
970000  ekin = 1.25166332225621 |  erot = 2.43738938129169 | epot = -12.2191658275689 | etot = -8.53011312402102
971000  ekin = 1.25055917700305 |  erot = 2.55639826953469 | epot = -12.3370705708916 | etot = -8.53011312435386
972000  ekin = 1.26202503907091 |  erot = 2.65935818610938 | epot = -12.4514963499266 | etot = -8.53011312474633
973000  ekin = 1.28468152304165 |  erot = 2.7419011912667 | epot = -12.5566958394848 | etot = -8.53011312517645
974000  ekin = 1.31650940090302 |  erot = 2.79983470555576 | epot = -12.64645723205 | etot = -8.5301131255912
975000  ekin = 1.35503678006273 |  erot = 2.82973569321423 | epot = -12.7148855991916 | etot = -8.53011312591465
976000  ekin = 1.39761106498719 |  erot = 2.82978989838473 | epot = -12.757514089437 | etot = -8.53011312606513
977000  ekin = 1.44171682389421 |  erot = 2.80065378127379 | epot = -12.7724837311485 | etot = -8.53011312598046
978000  ekin = 1.48527676990002 |  erot = 2.74603610444877 | epot = -12.7614259999919 | etot = -8.53011312564306
979000  ekin = 1.52686311961727 |  erot = 2.67272089285715 | epot = -12.7296971376689 | etot = -8.53011312519452
980000  ekin = 1.56541539899103 |  erot = 2.58979180874379 | epot = -12.6853203322416 | etot = -8.53011312450682
981000  ekin = 1.60047076755278 |  erot = 2.50776375788484 | epot = -12.6383476492396 | etot = -8.53011312380203
982000  ekin = 1.63230110544612 |  erot = 2.4371358709238 | epot = -12.5995500991041 | etot = -8.53011312273413
983000  ekin = 1.66203103419979 |  erot = 2.38850313754454 | epot = -12.5806472942433 | etot = -8.53011312249895
984000  ekin = 1.68995499845883 |  erot = 2.36799213713314 | epot = -12.5880602580152 | etot = -8.53011312242327
985000  ekin = 1.71562347305687 |  erot = 2.37731939437886 | epot = -12.6230559899602 | etot = -8.5301131225245
986000  ekin = 1.73850018165221 |  erot = 2.41550202449183 | epot = -12.6841153289477 | etot = -8.53011312280364
987000  ekin = 1.75791457125372 |  erot = 2.47889412323631 | epot = -12.7669218177375 | etot = -8.53011312324744
988000  ekin = 1.77306329674351 |  erot = 2.56140924190709 | epot = -12.8645856624799 | etot = -8.53011312382927
989000  ekin = 1.78306912448162 |  erot = 2.65491288897562 | epot = -12.9680951379619 | etot = -8.53011312450465
990000  ekin = 1.78711020292118 |  erot = 2.74980403799705 | epot = -13.0670273661277 | etot = -8.53011312520947
991000  ekin = 1.78462774609367 |  erot = 2.83581968224401 | epot = -13.1505605541974 | etot = -8.53011312585969
992000  ekin = 1.77558737009051 |  erot = 2.9030532797661 | epot = -13.2087537762222 | etot = -8.53011312636561
993000  ekin = 1.76071115996797 |  erot = 2.94306881053661 | epot = -13.2338930971609 | etot = -8.53011312665633
994000  ekin = 1.74155803531838 |  erot = 2.94987789379559 | epot = -13.2215490558191 | etot = -8.53011312670518
995000  ekin = 1.7203663536266 |  erot = 2.92053034159358 | epot = -13.171009821755 | etot = -8.53011312653484
996000  ekin = 1.69928711841057 |  erot = 2.85461248857379 | epot = -13.0840127336349 | etot = -8.53011312665052
997000  ekin = 1.67961730933121 |  erot = 2.75367224451106 | epot = -12.963402680013 | etot = -8.53011312617073
998000  ekin = 1.66320821768275 |  erot = 2.62336921200245 | epot = -12.8166905552899 | etot = -8.53011312560465
999000  ekin = 1.65140969902045 |  erot = 2.47137959793784 | epot = -12.652902421993 | etot = -8.5301131250347
1000000  ekin = 1.64474900328077 |  erot = 2.30633529340389 | epot = -12.481197421207 | etot = -8.53011312452231
   1000000   0.12183326    -1.2831408      0.035021017   -1.0836448      3.258552e-05   64000        
Loop time of 11.8041 on 1 procs for 1000000 steps with 10 atoms

Performance: 73194.863 tau/day, 84716.277 timesteps/s, 847.163 katom-step/s
99.5% CPU use with 1 MPI tasks x 1 OpenMP threads

MPI task timing breakdown:
Section |  min time  |  avg time  |  max time  |%varavg| %total
---------------------------------------------------------------
Pair    | 9.445      | 9.445      | 9.445      |   0.0 | 80.01
Bond    | 0.46517    | 0.46517    | 0.46517    |   0.0 |  3.94
Neigh   | 0.006341   | 0.006341   | 0.006341   |   0.0 |  0.05
Comm    | 0.2823     | 0.2823     | 0.2823     |   0.0 |  2.39
Output  | 0.12112    | 0.12112    | 0.12112    |   0.0 |  1.03
Modify  | 1.1786     | 1.1786     | 1.1786     |   0.0 |  9.98
Other   |            | 0.3055     |            |       |  2.59

Nlocal:             10 ave          10 max          10 min
Histogram: 1 0 0 0 0 0 0 0 0 0
Nghost:              0 ave           0 max           0 min
Histogram: 1 0 0 0 0 0 0 0 0 0
Neighs:             37 ave          37 max          37 min
Histogram: 1 0 0 0 0 0 0 0 0 0

Total # of neighbors = 37
Ave neighs/atom = 3.7
Ave special neighs/atom = 3.6
Neighbor list builds = 1000
Dangerous builds = 0
System init for write_data ...
Generated 0 of 6 mixed pair_coeff terms from geometric mixing rule
Total wall time: 0:00:11
