Position data for a 32-bead polymer consisting of 31-vertex extended spheres

992	 atoms
31	 bonds

3	 atom types
1	 bond types

0	48	 xlo xhi
0	32	 ylo yhi
0	32	 zlo zhi

Atoms

1	1	16.528534	16.347700	15.583780	1
2	2	16.895534	16.030100	15.079380	1
3	2	17.161824	16.636600	15.510430	1
4	2	16.761764	16.646700	16.172100	1
5	2	16.259294	16.072201	16.168270	1
6	2	16.327014	15.682100	15.504160	1
7	2	16.576544	16.310400	14.886430	1
8	2	16.848264	16.912100	15.320890	1
9	2	16.456444	16.915001	15.987430	1
10	2	15.953964	16.340401	15.983610	1
11	2	16.013514	15.957500	15.314440	1
12	2	16.624834	16.258900	16.271450	1
13	2	16.395814	15.750000	15.923170	1
14	2	16.732654	15.721700	15.346070	1
15	2	17.177584	16.230499	15.349450	1
16	2	17.100914	16.556200	15.928550	1
17	2	16.072614	16.744101	15.937440	1
18	2	15.836604	16.241301	15.584950	1
19	2	16.161684	16.223400	15.000720	1
20	2	16.606614	16.732201	15.004120	1
21	2	16.541704	17.047501	15.590330	1
22	2	16.866444	16.048599	16.118880	1
23	2	16.750134	15.786500	15.938650	1
24	2	16.924184	15.773600	15.645690	1
25	2	17.149784	16.031500	15.647410	1
26	2	17.111864	16.200100	15.941400	1
27	2	16.001654	16.808399	15.595830	1
28	2	15.880684	16.550301	15.412780	1
29	2	16.047104	16.544100	15.115100	1
30	2	16.272694	16.802099	15.116820	1
31	2	16.242404	16.964001	15.415540	1
32	1	16.985594	15.991600	14.269280	2
33	2	17.659864	16.142799	14.380610	2
34	2	17.399874	15.649500	13.820470	2
35	2	16.665754	15.837300	13.666080	2
36	2	16.460934	16.425699	14.107050	2
37	2	17.059574	16.627199	14.553130	2
38	2	17.511274	15.845800	14.707910	2
39	2	17.253794	15.357600	14.142240	2
40	2	16.523464	15.552900	13.979490	2
41	2	16.318654	16.141300	14.420460	2
42	2	16.913494	16.335199	14.874890	2
43	2	16.594414	16.246300	13.747710	2
44	2	16.799504	16.664000	14.212660	2
45	2	17.436004	16.519899	14.358570	2
46	2	17.617394	15.998800	13.968030	2
47	2	17.086924	15.838400	13.593860	2
48	2	16.337124	15.731900	14.314510	2
49	2	16.538994	16.143200	14.786540	2
50	2	17.169934	15.988100	14.944610	2
51	2	17.351324	15.467000	14.554070	2
52	2	16.826374	15.317600	14.167750	2
53	2	16.913874	16.393000	13.700340	2
54	2	17.021214	16.607800	13.939200	2
55	2	17.346224	16.533001	14.010860	2
56	2	17.438164	16.268900	13.812930	2
57	2	17.168694	16.184099	13.621680	2
58	2	16.510974	15.587600	14.587850	2
59	2	16.616084	15.798100	14.831500	2
60	2	16.937554	15.716100	14.911010	2
61	2	17.029494	15.452000	14.713080	2
62	2	16.763594	15.374400	14.513970	2
63	1	16.748544	14.540200	14.383720	3
64	2	17.166154	13.983300	14.457250	3
65	2	16.906754	14.428800	15.056430	3
66	2	16.259374	14.781000	14.822760	3
67	2	16.107534	14.572300	14.104440	3
68	2	16.654464	14.082000	13.862960	3
69	2	17.415344	14.344600	14.299550	3
70	2	17.151684	14.783900	14.901480	3
71	2	16.497904	15.126900	14.671860	3
72	2	16.346064	14.918200	13.953540	3
73	2	16.899394	14.437200	13.707980	3
74	2	16.062994	14.553500	14.524790	3
75	2	16.267474	14.185400	14.019440	3
76	2	16.827054	13.868500	14.203080	3
77	2	16.961544	14.053300	14.839300	3
78	2	16.480554	14.478200	15.027390	3
79	2	16.494424	15.179000	14.251870	3
80	2	16.704354	14.818800	13.743110	3
81	2	17.273114	14.515200	13.920940	3
82	2	17.407604	14.700100	14.557140	3
83	2	16.917414	15.111700	14.750990	3
84	2	16.163794	14.221800	14.599850	3
85	2	16.270044	14.031100	14.340790	3
86	2	16.554554	13.869800	14.437440	3
87	2	16.622724	13.963500	14.759890	3
88	2	16.379384	14.181400	14.858010	3
89	2	16.839374	15.201400	14.172400	3
90	2	16.949294	15.015900	13.911080	3
91	2	17.239774	14.863400	14.003950	3
92	2	17.307954	14.957000	14.326420	3
93	2	17.058624	15.166200	14.428310	3
94	1	15.942364	13.368500	14.264100	4
95	2	16.069434	14.017300	14.034340	4
96	2	16.489584	13.380600	13.827680	4
97	2	16.040324	12.760000	13.932200	4
98	2	15.360244	12.986100	14.194760	4
99	2	15.359724	13.756300	14.263870	4
100	2	16.224194	13.974500	14.472110	4
101	2	16.641774	13.338500	14.258010	4
102	2	16.188554	12.719000	14.351380	4
103	2	15.508404	12.945100	14.613960	4
104	2	15.511854	13.714200	14.694240	4
105	2	15.631304	12.861900	13.894530	4
106	2	15.270754	13.384100	14.067630	4
107	2	15.641824	13.933700	13.981020	4
108	2	16.244024	13.733400	13.748550	4
109	2	16.225114	13.066800	13.699190	4
110	2	15.899304	12.787800	14.652630	4
111	2	15.542124	13.309000	14.835220	4
112	2	15.918944	13.857000	14.764860	4
113	2	16.521134	13.656800	14.532370	4
114	2	16.496484	12.991700	14.466790	4
115	2	15.639494	13.140900	13.675510	4
116	2	15.454924	13.410800	13.763550	4
117	2	15.645854	13.689600	13.717350	4
118	2	15.951224	13.588100	13.599460	4
119	2	15.944504	13.248000	13.574540	4
120	2	16.059144	13.024700	14.862580	4
121	2	15.876874	13.294100	14.956980	4
122	2	16.071524	13.571900	14.921410	4
123	2	16.376894	13.470400	14.803510	4
124	2	16.366454	13.131300	14.767970	4
125	1	14.957834	14.002700	13.380940	5
126	2	14.645264	13.438900	13.653700	5
127	2	15.288384	13.414400	13.194800	5
128	2	15.636984	14.102800	13.243700	5
129	2	15.236554	14.552000	13.713390	5
130	2	14.623204	14.160700	13.975030	5
131	2	14.395874	13.595000	13.291800	5
132	2	15.043274	13.567800	12.839100	5
133	2	15.398244	14.252200	12.897400	5
134	2	14.997864	14.701400	13.367010	5
135	2	14.378084	14.314100	13.619340	5
136	2	15.552614	14.288600	13.614600	5
137	2	15.021404	14.320900	14.001170	5
138	2	14.706374	13.731500	13.975190	5
139	2	15.060914	13.333700	13.559320	5
140	2	15.583214	13.690500	13.342190	5
141	2	15.120824	14.558700	12.988100	5
142	2	14.584224	14.594500	13.366770	5
143	2	14.259984	14.010800	13.327400	5
144	2	14.614534	13.613100	12.911600	5
145	2	15.146104	13.964200	12.707700	5
146	2	15.494964	14.012400	13.829710	5
147	2	15.221514	14.027100	14.028890	5
148	2	15.063484	13.725300	14.014850	5
149	2	15.243204	13.523700	13.804070	5
150	2	15.509754	13.703800	13.690830	5
151	2	14.818874	14.435400	12.848600	5
152	2	14.541774	14.452500	13.042500	5
153	2	14.377774	14.154400	13.019700	5
154	2	14.557534	13.952700	12.808900	5
155	2	14.830014	14.129100	12.704400	5
156	1	15.708924	13.248000	12.492400	6
157	2	15.930354	13.906100	12.581000	6
158	2	15.913744	13.530500	11.885700	6
159	2	15.388964	12.965100	11.937700	6
160	2	15.080424	12.975100	12.635900	6
161	2	15.401164	13.547000	13.045500	6
162	2	16.258494	13.610400	12.730200	6
163	2	16.236344	13.239900	12.032500	6
164	2	15.703154	12.682000	12.080600	6
165	2	15.394694	12.691800	12.778700	6
166	2	15.723774	13.256200	13.192200	6
167	2	15.090604	13.062000	12.221800	6
168	2	15.093684	13.367300	12.804400	6
169	2	15.540654	13.864200	12.779000	6
170	2	15.813894	13.855500	12.160800	6
171	2	15.526704	13.353500	11.824900	6
172	2	15.658924	12.549800	12.480200	6
173	2	15.669134	12.848800	13.066100	6
174	2	16.128274	13.334700	13.046200	6
175	2	16.401504	13.325900	12.428000	6
176	2	16.102084	12.834900	12.086500	6
177	2	15.088414	13.416600	12.215700	6
178	2	15.090644	13.575400	12.515000	6
179	2	15.318214	13.828800	12.499000	6
180	2	15.456794	13.824400	12.185600	6
181	2	15.312714	13.568300	12.012400	6
182	2	15.978294	12.614700	12.620400	6
183	2	15.985294	12.769200	12.921800	6
184	2	16.220844	13.015500	12.909400	6
185	2	16.359364	13.011000	12.595900	6
186	2	16.207444	12.762100	12.419200	6
187	1	16.996514	13.930900	12.514400	7
188	2	16.497314	14.149800	12.953500	7
189	2	16.376374	13.973700	12.192600	7
190	2	16.939984	13.492600	11.971500	7
191	2	17.404254	13.363900	12.563600	7
192	2	17.147694	13.759800	13.176200	7
193	2	16.761244	14.512200	12.825200	7
194	2	16.635944	14.330000	12.066500	7
195	2	17.192744	13.839500	11.848800	7
196	2	17.657024	13.710900	12.440800	7
197	2	17.407194	14.116200	13.050100	7
198	2	17.086184	13.270200	12.300600	7
199	2	17.196444	13.407600	12.934400	7
200	2	16.716014	13.821600	13.146400	7
201	2	16.304874	13.935600	12.622200	7
202	2	16.545024	13.588200	12.103600	7
203	2	17.543214	13.897800	12.078600	7
204	2	17.659464	14.043000	12.709500	7
205	2	17.188644	14.470400	12.916800	7
206	2	16.777604	14.584400	12.392500	7
207	2	17.007974	14.223600	11.878800	7
208	2	16.805754	13.257300	12.517600	7
209	2	16.860774	13.328400	12.844200	7
210	2	16.613824	13.538600	12.950000	7
211	2	16.405524	13.596300	12.684300	7
212	2	16.526624	13.421000	12.417900	7
213	2	17.521684	14.239900	12.169800	7
214	2	17.580554	14.316300	12.494500	7
215	2	17.340014	14.535100	12.597400	7
216	2	17.131534	14.592900	12.331600	7
217	2	17.246304	14.408900	12.068400	7
218	1	17.921944	14.883800	12.009200	8
219	2	17.635504	15.310900	11.534300	8
220	2	18.381154	15.050000	11.507500	8
221	2	18.414374	14.394800	11.917000	8
222	2	17.720994	14.239700	12.195700	8
223	2	17.229034	14.792200	11.970700	8
224	2	17.736414	15.552700	11.920000	8
225	2	18.480334	15.287800	11.886800	8
226	2	18.511064	14.626500	12.286300	8
227	2	17.817614	14.471300	12.565000	8
228	2	17.328214	15.030000	12.349900	8
229	2	18.039024	14.199400	11.919500	8
230	2	17.414834	14.405100	11.947700	8
231	2	17.364034	14.971200	11.595500	8
232	2	17.978134	15.108700	11.348600	8
233	2	18.387904	14.622800	11.556500	8
234	2	18.213724	14.618300	12.587400	8
235	2	17.591814	14.829200	12.624000	8
236	2	17.544694	15.404400	12.286000	8
237	2	18.158874	15.541800	12.039200	8
238	2	18.564884	15.046900	12.232900	8
239	2	17.892564	14.306200	11.614600	8
240	2	17.571364	14.413100	11.627600	8
241	2	17.547944	14.701000	11.446300	8
242	2	17.859174	14.770700	11.321100	8
243	2	18.070624	14.524700	11.426800	8
244	2	18.166214	14.962200	12.660500	8
245	2	17.846514	15.072500	12.679000	8
246	2	17.825614	15.366300	12.507000	8
247	2	18.136834	15.436000	12.381900	8
248	2	18.345844	15.184200	12.478300	8
249	1	16.789904	14.978700	11.152900	9
250	2	16.350774	15.369700	10.773200	9
251	2	16.911574	14.903800	10.467600	9
252	2	17.075204	14.360000	10.992300	9
253	2	16.639324	14.469700	11.609200	9
254	2	16.187414	15.086100	11.492700	9
255	2	16.680964	15.642100	10.958000	9
256	2	17.236214	15.171700	10.649400	9
257	2	17.391374	14.620900	11.169300	9
258	2	16.955494	14.730500	11.786200	9
259	2	16.512044	15.354100	11.674400	9
260	2	16.741514	14.286000	11.242000	9
261	2	16.273564	14.665100	11.506500	9
262	2	16.114884	15.141900	11.065200	9
263	2	16.500924	15.044800	10.518800	9
264	2	16.885164	14.511100	10.640700	9
265	2	17.313334	14.757900	11.562100	9
266	2	16.852504	15.142700	11.830500	9
267	2	16.706114	15.629800	11.396200	9
268	2	17.092174	15.532600	10.849800	9
269	2	17.464164	14.988800	10.964800	9
270	2	16.467044	14.369300	11.033200	9
271	2	16.225424	14.564900	11.167800	9
272	2	16.145674	14.806300	10.940400	9
273	2	16.341274	14.757000	10.663500	9
274	2	16.539314	14.485900	10.723500	9
275	2	17.362414	15.108100	11.534400	9
276	2	17.125634	15.307700	11.671700	9
277	2	17.053834	15.555600	11.448700	9
278	2	17.249424	15.506300	11.171800	9
279	2	17.439524	15.228700	11.227400	9
280	1	15.942384	14.176500	10.297400	10
281	2	16.126524	14.832900	10.456600	10
282	2	16.638244	14.252700	10.294200	10
283	2	16.264714	13.722500	9.873100	10
284	2	15.543744	13.950100	9.768400	10
285	2	15.440294	14.631000	10.120200	10
286	2	15.999264	14.608700	10.845200	10
287	2	16.513154	14.032400	10.676200	10
288	2	16.142914	13.507900	10.245100	10
289	2	15.421944	13.735500	10.140400	10
290	2	15.315254	14.410600	10.502200	10
291	2	15.948094	13.899100	9.654700	10
292	2	15.513434	14.376100	9.781600	10
293	2	15.818974	14.848200	10.143500	10
294	2	16.457484	14.646600	10.236200	10
295	2	16.525144	14.056700	9.928500	10
296	2	15.727834	13.510900	10.327600	10
297	2	15.290364	13.983100	10.462900	10
298	2	15.591174	14.446800	10.839200	10
299	2	16.229684	14.245200	10.931900	10
300	2	16.302114	13.663600	10.609900	10
301	2	16.060004	14.232700	9.609700	10
302	2	15.837504	14.479500	9.675100	10
303	2	15.996144	14.719300	9.858700	10
304	2	16.319724	14.617100	9.905700	10
305	2	16.356614	14.315600	9.750500	10
306	2	15.715004	13.624800	10.663300	10
307	2	15.490684	13.868400	10.734500	10
308	2	15.646234	14.102800	10.927300	10
309	2	15.969854	14.000600	10.974300	10
310	2	16.009814	13.704400	10.809800	10
311	1	14.788294	13.589600	9.651400	11
312	2	14.632854	14.040100	9.138700	11
313	2	15.210894	14.147500	9.667000	11
314	2	15.411524	13.451900	9.938500	11
315	2	14.982164	12.918900	9.600500	11
316	2	14.497414	13.262100	9.105400	11
317	2	14.317184	14.078200	9.479800	11
318	2	14.900564	14.184800	10.002400	11
319	2	15.109254	13.488300	10.265100	11
320	2	14.679864	12.955400	9.927100	11
321	2	14.187084	13.299500	9.440700	11
322	2	15.332904	13.149900	9.652600	11
323	2	14.853864	13.047300	9.213700	11
324	2	14.667664	13.639000	8.963700	11
325	2	15.047984	14.110900	9.263000	11
326	2	15.456414	13.795100	9.688100	11
327	2	14.786264	13.215800	10.243300	11
328	2	14.300394	13.114000	9.811800	11
329	2	14.102384	13.707100	9.574300	11
330	2	14.482694	14.179000	9.873700	11
331	2	14.902934	13.861700	10.286100	11
332	2	15.358854	13.324300	9.344800	11
333	2	15.112604	13.273100	9.117900	11
334	2	15.020464	13.576000	8.991200	11
335	2	15.213194	13.815200	9.143000	11
336	2	15.421784	13.656700	9.361300	11
337	2	14.502864	13.427400	10.269700	11
338	2	14.252014	13.376700	10.047800	11
339	2	14.152254	13.680600	9.929300	11
340	2	14.345024	13.919700	10.080900	11
341	2	14.561194	13.760400	10.291100	11
342	1	14.638224	12.297300	9.235200	12
343	2	15.004054	11.707800	9.328300	12
344	2	14.816234	12.212400	9.906800	12
345	2	14.195054	12.611200	9.676800	12
346	2	13.990794	12.374500	8.980500	12
347	2	14.476864	11.819200	8.750000	12
348	2	15.278834	12.032500	9.137300	12
349	2	15.086404	12.531800	9.719000	12
350	2	14.458124	12.922200	9.493900	12
351	2	14.253774	12.685500	8.797600	12
352	2	14.746934	12.138500	8.562200	12
353	2	13.964384	12.386100	9.402800	12
354	2	14.109244	11.969300	8.914800	12
355	2	14.644044	11.611100	9.096200	12
356	2	14.825014	11.820800	9.712800	12
357	2	14.395924	12.301500	9.891900	12
358	2	14.440044	12.948500	9.072000	12
359	2	14.590904	12.538800	8.579900	12
360	2	15.135994	12.192700	8.754200	12
361	2	15.316854	12.402300	9.370900	12
362	2	14.877564	12.871000	9.557000	12
363	2	14.036544	12.051400	9.495400	12
364	2	14.112124	11.835600	9.245300	12
365	2	14.384214	11.653500	9.340800	12
366	2	14.475864	11.759800	9.653300	12
367	2	14.259234	12.006000	9.746600	12
368	2	14.781524	12.932100	8.977400	12
369	2	14.861044	12.721100	8.724600	12
370	2	15.139714	12.546800	8.815400	12
371	2	15.231454	12.653100	9.128000	12
372	2	15.008054	12.891500	9.225800	12
373	1	15.338514	11.272200	9.881700	13
374	2	14.878534	11.676800	9.543000	13
375	2	15.190434	11.012800	9.248700	13
376	2	15.420414	10.578100	9.845300	13
377	2	15.263974	10.945000	10.496000	13
378	2	14.930474	11.622500	10.329800	13
379	2	15.299504	11.877000	9.531300	13
380	2	15.604384	11.209700	9.237300	13
381	2	15.823484	10.769800	9.834100	13
382	2	15.667074	11.136700	10.484900	13
383	2	15.344434	11.819400	10.318400	13
384	2	15.190244	10.661700	10.190500	13
385	2	14.931524	11.209000	10.447800	13
386	2	14.722664	11.598700	9.946000	13
387	2	14.861194	11.273800	9.369800	13
388	2	15.151034	10.694100	9.534600	13
389	2	15.919254	11.008400	10.170100	13
390	2	15.669634	11.560000	10.427300	13
391	2	15.476404	11.957200	9.925100	13
392	2	15.614964	11.632200	9.348800	13
393	2	15.889134	11.045100	9.514100	13
394	2	14.881334	10.771100	10.054500	13
395	2	14.747184	11.053100	10.185500	13
396	2	14.640464	11.249400	9.927800	13
397	2	14.710654	11.084700	9.635700	13
398	2	14.859724	10.788900	9.717000	13
399	2	16.022964	11.314000	10.022700	13
400	2	15.894774	11.598900	10.153600	13
401	2	15.798254	11.800000	9.895700	13
402	2	15.868524	11.635200	9.603500	13
403	2	16.007364	11.334700	9.685100	13
404	1	16.128904	10.491700	8.999500	14
405	2	16.186884	11.171700	9.155300	14
406	2	16.475554	10.838000	8.499500	14
407	2	16.073044	10.190500	8.370100	14
408	2	15.547994	10.109700	8.918100	14
409	2	15.603204	10.703900	9.410100	14
410	2	16.491054	10.927400	9.410600	14
411	2	16.774554	10.597800	8.750500	14
412	2	16.364324	9.956570	8.614700	14
413	2	15.839264	9.875820	9.162700	14
414	2	15.902194	10.463700	9.661100	14
415	2	15.683564	10.220100	8.532800	14
416	2	15.433434	10.488900	9.078600	14
417	2	15.767074	11.054200	9.206300	14
418	2	16.231984	11.125600	8.720900	14
419	2	16.170234	10.602200	8.309500	14
420	2	16.210244	9.797000	8.975000	14
421	2	15.966744	10.060500	9.526400	14
422	2	16.311604	10.616700	9.663600	14
423	2	16.776614	10.688200	9.178200	14
424	2	16.703544	10.173700	8.757200	14
425	2	15.620934	10.569100	8.524200	14
426	2	15.492744	10.709100	8.804700	14
427	2	15.663674	10.997700	8.866900	14
428	2	15.899354	11.033900	8.620800	14
429	2	15.870764	10.767300	8.410000	14
430	2	16.445624	9.906560	9.216700	14
431	2	16.321894	10.043000	9.500900	14
432	2	16.500134	10.325700	9.569300	14
433	2	16.735904	10.362000	9.323200	14
434	2	16.699904	10.101200	9.106300	14
435	1	15.768274	9.065030	9.171300	15
436	2	15.492344	9.351560	9.747200	15
437	2	15.072824	8.986310	9.185600	15
438	2	15.549574	8.504100	8.814100	15
439	2	16.246024	8.555840	9.122000	15
440	2	16.229964	9.072180	9.697300	15
441	2	15.601674	9.688050	9.443400	15
442	2	15.180354	9.317020	8.887000	15
443	2	15.654244	8.826180	8.523200	15
444	2	16.350764	8.877870	8.831200	15
445	2	16.337514	9.402950	9.398600	15
446	2	15.865294	8.379640	9.066900	15
447	2	16.224694	8.675440	9.531600	15
448	2	15.828164	9.096050	9.868100	15
449	2	15.211384	9.050270	9.595300	15
450	2	15.247354	8.602890	9.099400	15
451	2	16.054634	8.962120	8.540900	15
452	2	16.416504	9.265250	8.998900	15
453	2	16.023954	9.698360	9.324000	15
454	2	15.407224	9.652580	9.051400	15
455	2	15.439084	9.192770	8.566700	15
456	2	15.720704	8.401760	9.390100	15
457	2	15.904174	8.554410	9.630300	15
458	2	15.699614	8.767170	9.801000	15
459	2	15.387044	8.744050	9.662800	15
460	2	15.402764	8.517210	9.408600	15
461	2	16.017284	9.314000	8.566400	15
462	2	16.202374	9.471530	8.802200	15
463	2	16.000454	9.692470	8.965500	15
464	2	15.687804	9.669240	8.827300	15
465	2	15.700974	9.434330	8.580500	15
466	1	14.475914	8.656900	8.720800	16
467	2	14.885984	8.093270	8.656100	16
468	2	14.181264	8.174820	8.307600	16
469	2	14.033394	8.931840	8.253300	16
470	2	14.616854	9.321850	8.553500	16
471	2	15.150654	8.822760	8.806300	16
472	2	14.676584	8.085990	9.072600	16
473	2	13.975294	8.167650	8.717100	16
474	2	13.832954	8.924820	8.652100	16
475	2	14.416414	9.314840	8.952300	16
476	2	14.944694	8.815590	9.215900	16
477	2	14.392754	9.154780	8.235800	16
478	2	14.981004	9.100210	8.524900	16
479	2	15.129494	8.450320	8.578400	16
480	2	14.612764	8.104900	8.312600	16
481	2	14.162374	8.553070	8.103700	16
482	2	14.030074	9.142090	8.957100	16
483	2	14.613824	9.087370	9.255300	16
484	2	14.754534	8.437200	9.324200	16
485	2	14.237804	8.091780	9.058300	16
486	2	13.795154	8.540150	8.834100	16
487	2	14.620884	8.925070	8.090700	16
488	2	14.924074	8.895380	8.238800	16
489	2	14.997754	8.563330	8.263800	16
490	2	14.735854	8.388300	8.129000	16
491	2	14.503984	8.614550	8.022600	16
492	2	14.053004	8.905230	9.220200	16
493	2	14.353104	8.875410	9.374400	16
494	2	14.421774	8.543210	9.409300	16
495	2	14.159874	8.368180	9.274600	16
496	2	13.933004	8.594590	9.158200	16
497	1	14.155294	10.049900	9.028300	17
498	2	14.095164	9.355460	8.965100	17
499	2	13.663684	9.879340	8.560000	17
500	2	14.059444	10.543300	8.540900	17
501	2	14.717234	10.452200	8.917200	17
502	2	14.756754	9.727960	9.185000	17
503	2	13.888754	9.493970	9.359600	17
504	2	13.460784	10.015600	8.947700	17
505	2	13.861754	10.675900	8.918600	17
506	2	14.519634	10.584800	9.294900	17
507	2	14.553764	9.864100	9.572900	17
508	2	14.475514	10.471800	8.570500	17
509	2	14.844774	10.044600	8.907700	17
510	2	14.520284	9.460300	8.932900	17
511	2	13.937684	9.541080	8.599700	17
512	2	13.921754	10.172400	8.379800	17
513	2	14.118084	10.711600	9.253500	17
514	2	14.482864	10.287500	9.599400	17
515	2	14.150704	9.708340	9.639200	17
516	2	13.568104	9.789030	9.306000	17
517	2	13.559854	10.415300	9.071500	17
518	2	14.509534	10.146800	8.432200	17
519	2	14.698854	9.925450	8.605100	17
520	2	14.531794	9.628290	8.615400	17
521	2	14.236494	9.669190	8.446500	17
522	2	14.225214	9.991030	8.334200	17
523	2	13.949754	10.522500	9.502100	17
524	2	14.136084	10.303100	9.680600	17
525	2	13.964054	10.009200	9.700300	17
526	2	13.668764	10.050100	9.531400	17
527	2	13.662434	10.368700	9.409700	17
528	1	13.345744	10.569000	7.959500	18
529	2	12.688384	10.511900	8.193200	18
530	2	13.139094	11.155000	8.282000	18
531	2	13.680224	11.139500	7.729800	18
532	2	13.583144	10.513900	7.303400	18
533	2	12.977844	10.115700	7.573600	18
534	2	12.974534	10.275200	8.475200	18
535	2	13.420424	10.922400	8.559200	18
536	2	13.954234	10.912900	7.999800	18
537	2	13.857144	10.287300	7.573400	18
538	2	13.259104	9.882980	7.850800	18
539	2	13.543594	10.926000	7.390800	18
540	2	13.174814	10.388100	7.305300	18
541	2	12.696864	10.384500	7.773100	18
542	2	12.782794	10.938500	8.150700	18
543	2	13.311004	11.266000	7.903600	18
544	2	14.039064	10.516200	7.879300	18
545	2	13.676574	9.973210	7.799800	18
546	2	13.209214	9.960840	8.278100	18
547	2	13.295144	10.514800	8.655700	18
548	2	13.812724	10.851000	8.398200	18
549	2	13.191874	10.969800	7.406600	18
550	2	13.000624	10.693700	7.363400	18
551	2	12.757064	10.694900	7.602400	18
552	2	12.800614	10.975800	7.793800	18
553	2	13.070444	11.144100	7.670500	18
554	2	13.967934	10.328100	8.171400	18
555	2	13.780734	10.048600	8.132300	18
556	2	13.544084	10.044100	8.377900	18
557	2	13.587674	10.325000	8.569400	18
558	2	13.850634	10.499000	8.439300	18
559	1	12.212594	9.729740	8.124500	19
560	2	12.665114	9.758920	8.657900	19
561	2	12.024774	9.295830	8.640700	19
562	2	11.836994	9.183680	7.899000	19
563	2	12.333934	9.558050	7.456900	19
564	2	12.850534	9.917740	7.906000	19
565	2	12.389904	10.135200	8.667000	19
566	2	11.754174	9.665700	8.649700	19
567	2	11.573334	9.544040	7.907800	19
568	2	12.070384	9.918360	7.465600	19
569	2	12.579944	10.287600	7.915000	19
570	2	12.178194	9.215700	7.650700	19
571	2	12.711954	9.599970	7.651500	19
572	2	12.893204	9.706390	8.286400	19
573	2	12.453154	9.374890	8.678000	19
574	2	12.014674	9.074740	8.272000	19
575	2	11.701434	9.867290	7.666500	19
576	2	12.229314	10.259700	7.667600	19
577	2	12.400374	10.380100	8.302700	19
578	2	11.960214	10.048600	8.694300	19
579	2	11.531939	9.734510	8.288000	19
580	2	12.442434	9.120650	7.867300	19
581	2	12.717834	9.317930	7.869300	19
582	2	12.808814	9.369590	8.194000	19
583	2	12.585704	9.201640	8.392500	19
584	2	12.359934	9.048350	8.187800	19
585	2	11.695956	10.141000	7.892000	19
586	2	11.967394	10.343700	7.894300	19
587	2	12.051734	10.404400	8.219200	19
588	2	11.828634	10.236400	8.417600	19
589	2	11.609510	10.074200	8.212700	19
590	1	10.908915	9.364050	7.647700	20
591	2	11.315179	9.067590	7.160799	20
592	2	10.526101	9.097030	7.125901	20
593	2	10.294477	9.689440	7.565500	20
594	2	10.906972	10.027600	7.870700	20
595	2	11.543625	9.658850	7.633000	20
596	2	11.286047	8.785940	7.531400	20
597	2	10.497380	8.820090	7.490300	20
598	2	10.266504	9.419750	7.920200	20
599	2	10.879063	9.757950	8.225500	20
600	2	11.514968	9.381980	7.997400	20
601	2	10.594720	9.986880	7.588000	20
602	2	11.251394	9.974120	7.623800	20
603	2	11.472621	9.468510	7.246001	20
604	2	10.930217	9.168980	6.975701	20
605	2	10.391903	9.499530	7.195401	20
606	2	10.544169	9.499180	8.229700	20
607	2	11.200257	9.480360	8.273400	20
608	2	11.420434	8.964310	7.909400	20
609	2	10.878029	8.664780	7.639100	20
610	2	10.340768	9.005770	7.845100	20
611	2	10.770137	9.945010	7.282500	20
612	2	11.108348	9.937600	7.299300	20
613	2	11.218477	9.679850	7.105000	20
614	2	10.943566	9.528120	6.967900	20
615	2	10.667320	9.694090	7.079501	20
616	2	10.690954	9.181380	8.287300	20
617	2	11.028784	9.169930	8.309400	20
618	2	11.138215	8.905360	8.124000	20
619	2	10.863357	8.753550	7.987000	20
620	2	10.587808	8.926340	8.089600	20
621	1	10.881136	9.277010	9.061600	21
622	2	10.441844	9.122770	8.538900	21
623	2	10.257169	9.074220	9.305800	21
624	2	10.734444	9.545020	9.691400	21
625	2	11.206361	9.882310	9.195200	21
626	2	11.041269	9.634690	8.481600	21
627	2	10.747470	8.774580	8.592800	21
628	2	10.557577	8.732010	9.358900	21
629	2	11.026921	9.211790	9.743100	21
630	2	11.498837	9.549080	9.246900	21
631	2	11.341620	9.292520	8.534600	21
632	2	10.864705	9.862790	9.444300	21
633	2	11.026711	9.913360	8.808800	21
634	2	10.621750	9.514670	8.456400	21
635	2	10.203759	9.215930	8.895700	21
636	2	10.364519	9.440020	9.504900	21
637	2	11.393789	9.260160	9.537800	21
638	2	11.562472	9.303010	8.903500	21
639	2	11.168817	8.891430	8.553100	21
640	2	10.750826	8.592690	8.992400	21
641	2	10.900280	8.829680	9.599600	21
642	2	10.597239	9.898450	9.214100	21
643	2	10.679010	9.923930	8.886400	21
644	2	10.470259	9.720690	8.708900	21
645	2	10.258510	9.569260	8.931600	21
646	2	10.339183	9.681060	9.243600	21
647	2	11.425826	8.954610	9.360500	21
648	2	11.511967	8.975060	9.033500	21
649	2	11.310632	8.763430	8.857400	21
650	2	11.098753	8.611990	9.080000	21
651	2	11.172197	8.732150	9.390800	21
652	1	9.483024	9.466730	9.462500	22
653	2	10.006723	9.118540	9.769800	22
654	2	9.678564	9.776930	10.058900	22
655	2	8.967064	9.833480	9.761200	22
656	2	8.841564	9.238050	9.300500	22
657	2	9.470024	8.787630	9.293100	22
658	2	10.173099	9.362640	9.409000	22
659	2	9.842177	10.016900	9.704100	22
660	2	9.126384	10.067300	9.415800	22
661	2	9.000884	9.471820	8.955000	22
662	2	9.633594	9.027680	8.938500	22
663	2	8.813134	9.451250	9.664900	22
664	2	9.074404	8.900070	9.418900	22
665	2	9.691294	8.830730	9.667700	22
666	2	9.802460	9.358040	10.075900	22
667	2	9.250574	9.735560	10.065500	22
668	2	9.101254	9.874110	9.040200	22
669	2	9.366204	9.328110	8.786300	22
670	2	9.989222	9.267880	9.021800	22
671	2	10.100383	9.795190	9.429900	22
672	2	9.542304	10.163600	9.433000	22
673	2	8.981094	9.238710	9.893800	22
674	2	9.116774	8.954730	9.768500	22
675	2	9.430664	8.921190	9.897900	22
676	2	9.487004	9.188440	10.104700	22
677	2	9.207164	9.383420	10.100400	22
678	2	9.432314	9.900720	8.915600	22
679	2	9.570384	9.620270	8.785100	22
680	2	9.888246	9.592620	8.905700	22
681	2	9.944587	9.859870	9.112500	22
682	2	9.660744	10.049100	9.116900	22
683	1	8.794114	10.443400	10.299000	23
684	2	8.113554	10.331300	10.418800	23
685	2	8.456424	11.043500	10.425700	23
686	2	9.100114	10.997300	9.999700	23
687	2	9.169704	10.286700	9.729600	23
688	2	8.572034	9.862960	9.977000	23
689	2	8.359324	10.211800	10.796500	23
690	2	8.698094	10.925900	10.797000	23
691	2	9.335444	10.882800	10.361300	23
692	2	9.405054	10.172300	10.091200	23
693	2	8.813734	9.745410	10.348300	23
694	2	9.064374	10.695800	9.704800	23
695	2	8.787774	10.099200	9.689600	23
696	2	8.225634	10.118900	10.051100	23
697	2	8.163974	10.748200	10.290300	23
698	2	8.690224	11.096200	10.068700	23
699	2	9.489974	10.488800	10.358900	23
700	2	9.218854	9.889610	10.352000	23
701	2	8.665714	9.904920	10.727500	23
702	2	8.604124	10.534100	10.966700	23
703	2	9.121204	10.886700	10.731000	23
704	2	8.714624	10.683700	9.646500	23
705	2	8.570684	10.377200	9.639000	23
706	2	8.283674	10.390400	9.823000	23
707	2	8.252414	10.709300	9.944200	23
708	2	8.520594	10.888800	9.833400	23
709	2	9.381264	10.359600	10.670800	23
710	2	9.240794	10.051400	10.668800	23
711	2	8.959774	10.061600	10.861900	23
712	2	8.928534	10.380600	10.983100	23
713	2	9.190724	10.563000	10.863300	23
714	1	9.228894	9.455800	11.249400	24
715	2	9.453734	9.341710	11.902300	24
716	2	9.871232	9.177670	11.251600	24
717	2	9.601744	9.625500	10.681700	24
718	2	9.035274	10.059500	10.952700	24
719	2	8.930164	9.898660	11.701700	24
720	2	9.145234	9.012470	11.784600	24
721	2	9.568004	8.854040	11.135900	24
722	2	9.306324	9.310280	10.569000	24
723	2	8.739764	9.744240	10.839900	24
724	2	8.626834	9.575010	11.586000	24
725	2	9.434694	9.982300	10.836700	24
726	2	9.081544	10.129100	11.371800	24
727	2	9.302344	9.753100	11.878800	24
728	2	9.803944	9.368780	11.638900	24
729	2	9.876505	9.520160	10.991600	24
730	2	8.900494	9.412100	10.632700	24
731	2	8.540654	9.551820	11.165300	24
732	2	8.749894	9.163620	11.668000	24
733	2	9.251504	8.779300	11.428100	24
734	2	9.335514	8.942890	10.785100	24
735	2	9.614984	10.029100	11.138500	24
736	2	9.434544	10.104100	11.415100	24
737	2	9.549764	9.911990	11.672300	24
738	2	9.804108	9.717160	11.550700	24
739	2	9.842349	9.791570	11.220000	24
740	2	8.778434	9.136330	10.819300	24
741	2	8.593444	9.206550	11.094200	24
742	2	8.701364	9.006510	11.348600	24
743	2	8.955604	8.811660	11.226900	24
744	2	9.001344	8.894070	10.899100	24
745	1	7.803054	9.816790	11.670100	25
746	2	7.188144	10.130000	11.552400	25
747	2	7.298404	9.347410	11.547500	25
748	2	7.927674	9.197260	11.971100	25
749	2	8.211204	9.853900	12.237700	25
750	2	7.769334	10.438400	11.990400	25
751	2	7.456914	10.167900	11.173200	25
752	2	7.562604	9.384710	11.174600	25
753	2	8.185014	9.233610	11.608000	25
754	2	8.468544	9.890250	11.874500	25
755	2	8.033534	10.475700	11.617500	25
756	2	7.986594	9.496280	12.264600	25
757	2	7.904594	10.148800	12.278000	25
758	2	7.361154	10.299600	11.918600	25
759	2	7.110124	9.718100	11.682600	25
760	2	7.506824	9.227310	11.903900	25
761	2	8.451924	9.561920	11.608000	25
762	2	8.375754	10.215300	11.613100	25
763	2	7.842344	10.367500	11.239700	25
764	2	7.591314	9.785950	11.003600	25
765	2	7.977994	9.293850	11.239000	25
766	2	7.657384	9.614190	12.324100	25
767	2	7.613444	9.949950	12.330600	25
768	2	7.335074	10.024000	12.147800	25
769	2	7.207844	9.729270	12.028200	25
770	2	7.409334	9.477170	12.138700	25
771	2	8.386074	9.717010	11.295900	25
772	2	8.345974	10.053400	11.296900	25
773	2	8.074134	10.128300	11.104900	25
774	2	7.946964	9.833600	10.985200	25
775	2	8.141884	9.580450	11.104900	25
776	1	6.457694	10.301400	11.752100	26
777	2	6.617164	9.657930	11.527500	26
778	2	6.270974	9.815770	12.220200	26
779	2	5.923484	10.503600	12.156800	26
780	2	6.040254	10.777800	11.454000	26
781	2	6.464894	10.271200	11.052700	26
782	2	7.004604	9.871360	11.675100	26
783	2	6.651854	10.025600	12.365300	26
784	2	6.294474	10.708000	12.298100	26
785	2	6.411214	10.982100	11.595400	26
786	2	6.845784	10.481000	11.197800	26
787	2	5.816304	10.581700	11.754900	26
788	2	6.098264	10.461200	11.172900	26
789	2	6.402714	9.866700	11.206200	26
790	2	6.299344	9.623920	11.828400	26
791	2	5.934484	10.076500	12.159100	26
792	2	6.487184	10.951300	12.010600	26
793	2	6.777574	10.835400	11.431800	26