ITEM: TIMESTEP
0
ITEM: NUMBER OF ATOMS
32
ITEM: BOX BOUNDS pp pp pp
0.0000000000000000e+00 4.8000000000000000e+01
0.0000000000000000e+00 3.2000000000000000e+01
0.0000000000000000e+00 3.2000000000000000e+01
ITEM: ATOMS id xu yu zu vx vy vz
590 10.9089 9.36405 7.6477 0 0 0
962 2.04167 10.8342 7.9466 0 0 0
931 3.44968 10.1293 8.1022 0 0 0
900 4.70805 9.97184 8.8808 0 0 0
621 10.8811 9.27701 9.0616 0 0 0
869 5.18802 9.27839 10.0244 0 0 0
652 9.48302 9.46673 9.4625 0 0 0
714 9.22889 9.4558 11.2494 0 0 0
838 4.54242 10.3777 10.9237 0 0 0
683 8.79411 10.4434 10.299 0 0 0
745 7.80305 9.81679 11.6701 0 0 0
807 5.15639 10.4417 12.196 0 0 0
776 6.45769 10.3014 11.7521 0 0 0
528 13.3457 10.569 7.9595 0 0 0
466 14.4759 8.6569 8.7208 0 0 0
559 12.2126 9.72974 8.1245 0 0 0
497 14.1553 10.0499 9.0283 0 0 0
404 16.1289 10.4917 8.9995 0 0 0
435 15.7683 9.06503 9.1713 0 0 0
373 15.3385 11.2722 9.8817 0 0 0
342 14.6382 12.2973 9.2352 0 0 0
311 14.7883 13.5896 9.6514 0 0 0
280 15.9424 14.1765 10.2974 0 0 0
249 16.7899 14.9787 11.1529 0 0 0
156 15.7089 13.248 12.4924 0 0 0
187 16.9965 13.9309 12.5144 0 0 0
218 17.9219 14.8838 12.0092 0 0 0
125 14.9578 14.0027 13.3809 0 0 0
94 15.9424 13.3685 14.2641 0 0 0
63 16.7485 14.5402 14.3837 0 0 0
32 16.9856 15.9916 14.2693 0 0 0
1 16.5285 16.3477 15.5838 0 0 0
ITEM: TIMESTEP
500
ITEM: NUMBER OF ATOMS
32
ITEM: BOX BOUNDS pp pp pp
0.0000000000000000e+00 4.8000000000000000e+01
0.0000000000000000e+00 3.2000000000000000e+01
0.0000000000000000e+00 3.2000000000000000e+01
ITEM: ATOMS id xu yu zu vx vy vz
590 10.9291 9.47264 7.8993 27.8247 13.7756 10.6211
931 3.25484 10.705 8.66528 -12.4824 -20.8182 56.0875
900 4.63271 10.3431 8.94663 -19.286 16.5773 14.9733
621 10.5213 9.71164 9.25992 22.6262 -19.0656 -34.2977
869 5.33676 9.73931 10.0694 -2.47382 49.1608 24.7831
652 9.08388 9.70826 9.47689 0.683982 -67.7582 18.1295
714 8.91063 9.86589 11.143 45.6955 0.252214 29.7527
838 4.64918 10.4721 11.1467 -28.1873 46.6609 18.2653
683 8.70607 10.9092 10.1531 -69.8039 36.7871 88.2054
745 7.6236 10.5081 11.3784 -27.9115 -2.85752 33.8034
807 5.23801 10.3743 12.4825 40.3143 49.9499 42.5834
776 6.22858 10.8827 11.6016 -65.807 -19.3627 73.1598
962 1.83639 10.8594 8.42157 -42.761 39.7037 51.7173
466 14.7868 8.68308 8.69373 8.25095 96.8258 -56.2665
559 12.2276 9.6523 8.44661 18.9999 60.2664 21.4719
497 14.4341 9.92133 9.34034 -32.9883 93.5544 -14.6038
404 16.372 10.455 8.88144 -54.5275 -21.5852 -106.765
435 16.0259 9.09829 9.2628 -67.265 180.574 142.319
373 15.6006 11.1744 9.86085 -94.0055 68.745 -87.506
342 14.6931 12.1125 9.2952 -59.8296 -62.0517 31.4214
311 14.8656 13.4843 9.6993 -24.7308 72.0104 -22.3617
280 15.6322 14.3158 10.5534 -75.4386 -89.4253 3.03976
249 16.5928 15.0846 11.2516 36.3928 -89.8831 -6.35799
156 15.5418 13.3091 12.5861 -63.4405 17.4626 15.1198
187 16.8277 13.9035 12.6276 -52.6873 -0.093932 -61.201
218 17.7817 14.8316 11.9948 31.8446 44.2576 -34.0639
125 14.7009 13.8621 13.6208 -42.4165 13.1365 -63.3023
94 15.5265 13.3007 14.6469 -22.5746 -33.168 -74.2615
63 16.3771 14.4715 14.6286 -58.2096 45.8741 41.9867
32 16.4787 15.8996 14.3553 -98.9485 -74.6318 -48.389
528 13.504 10.3027 8.29942 11.2861 51.4446 35.8607
1 16.1155 16.4016 15.6565 91.4315 33.9352 41.195
ITEM: TIMESTEP
1000
ITEM: NUMBER OF ATOMS
32
ITEM: BOX BOUNDS pp pp pp
0.0000000000000000e+00 4.8000000000000000e+01
0.0000000000000000e+00 3.2000000000000000e+01
0.0000000000000000e+00 3.2000000000000000e+01
ITEM: ATOMS id xu yu zu vx vy vz
931 2.9099 10.3684 8.93866 12.0063 -70.1768 10.16
900 4.32783 10.2539 9.35067 -57.3275 21.5611 -49.8158
621 10.5778 9.88775 9.49864 -24.4205 62.4665 -84.6936
869 5.34101 9.75978 10.3009 -17.3863 10.5885 -38.365
652 9.12327 10.098 9.528 -51.516 35.1954 -19.8554
714 9.00276 10.3127 11.2154 31.695 32.9616 -8.71234
838 4.64032 10.4315 11.3464 29.3613 85.7166 25.0024
683 8.85669 11.3533 10.2191 -14.8326 -23.5805 -0.663256
745 7.6792 10.8236 11.2588 38.0802 83.4171 53.9405
807 5.4148 10.4646 12.5417 34.6255 79.1126 17.3647
776 6.31055 11.0399 11.5643 18.3747 -41.837 87.609
962 1.58681 10.885 8.59299 127.749 -51.5074 -26.7333
590 10.9953 9.376 8.21502 75.0444 94.0536 -30.1819
466 14.7775 9.02703 9.1532 -90.1662 120.964 51.325
559 12.1495 9.6646 9.0022 119.256 45.3562 -113.981
497 14.3196 10.3454 9.56681 -130.081 40.5496 -38.1521
404 16.1994 10.3947 9.15858 24.6775 24.5833 -60.98
435 16.192 8.96078 9.39468 75.7475 115.497 3.82882
373 15.5464 11.4074 9.98345 37.5888 97.1717 -47.233
342 14.378 12.102 9.56097 -2.6745 4.18802 22.366
311 14.2906 13.4319 10.0543 -55.068 -60.1874 14.8656
280 15.207 14.3743 10.594 11.8798 20.9361 -49.9484
249 16.3752 15.0613 11.02 -7.96901 60.8621 29.0296
156 15.6943 13.0706 12.3479 40.802 -92.4077 -36.5012
187 16.9339 13.6772 12.0506 -37.0987 76.6541 10.9151
218 17.6428 14.8305 11.5996 -4.17948 151.406 -56.7895
125 14.816 13.8081 13.2419 -15.123 12.2763 -40.316
94 15.2313 13.5086 14.5937 -57.2914 10.4509 -13.4367
63 16.2968 14.4357 14.4211 53.0021 -69.0251 -6.63645
32 16.2763 15.8779 14.3204 63.5014 -119.117 -29.9002
528 13.2623 10.4554 8.56537 -10.6763 63.8003 -47.4263
1 16.1377 16.4668 15.6388 30.9321 9.77028 -26.3086
ITEM: TIMESTEP
1500
ITEM: NUMBER OF ATOMS
32
ITEM: BOX BOUNDS pp pp pp
0.0000000000000000e+00 4.8000000000000000e+01
0.0000000000000000e+00 3.2000000000000000e+01
0.0000000000000000e+00 3.2000000000000000e+01
ITEM: ATOMS id xu yu zu vx vy vz
962 1.70284 11.2525 8.67295 34.0945 65.4608 -95.5827
931 2.90637 10.4794 8.91426 -18.6258 -24.0698 17.5601
900 4.30517 10.3408 9.31114 12.4402 38.4317 6.12583
869 5.43159 9.69961 9.90211 73.9175 -25.9727 32.5121
652 9.62341 9.9806 9.6748 -11.5331 69.762 13.5949
621 10.9932 9.81495 9.30533 24.8197 -8.17834 -48.6578
683 9.16978 11.241 10.2273 -25.423 -148.822 80.221
714 9.18074 10.2977 11.3145 -14.4516 76.3937 -47.856
838 4.86098 10.3648 11.0551 -5.89876 30.5035 7.48788
745 7.79636 10.725 11.3649 -8.32517 -58.3629 26.4086
807 5.54707 10.3539 12.3524 -3.82003 25.285 -7.92487
776 6.37023 10.9313 11.3472 47.1971 -63.8734 55.6064
590 11.1828 9.22058 8.01159 -89.5832 -22.7181 -12.2597
559 12.4028 9.78357 8.49412 -61.7892 31.5386 19.6942
528 13.5009 10.646 8.05879 24.4662 4.15999 64.7628
466 14.4039 9.02938 9.37058 18.8298 -28.7514 14.3885
435 15.7073 8.8538 9.85243 -89.111 -6.75733 -0.108107
497 13.9402 10.3921 9.38927 -72.1618 27.6428 24.0519
404 15.9316 10.2334 9.66499 15.0843 45.9728 -65.0753
373 15.3516 11.3995 10.2976 -119.707 3.72738 13.6327
342 14.3625 11.9823 9.46341 23.8048 -90.6335 -47.21
311 14.2044 13.3777 9.78786 61.9249 -20.3896 -25.0704
280 14.8731 14.3155 10.63 -56.0811 63.0603 -43.1787
249 16.1437 14.5769 11.2734 -11.0294 15.921 -28.3925
156 15.3602 12.7222 12.4659 -22.5068 53.6583 -5.20486
187 16.6902 13.2364 12.2188 10.8285 -20.9736 -34.6555
218 17.4913 14.3412 11.7464 16.4971 -59.3398 -9.30504
125 14.6339 13.6235 13.3275 -42.1751 -47.2517 33.2429
94 15.0062 13.3917 14.7061 -78.3986 -48.055 -68.0232
63 15.9922 14.4175 14.7939 -54.1215 6.67666 -74.8715
32 16.2177 15.7898 14.3287 3.38729 62.4267 -71.3957
1 16.1243 16.3673 15.6493 17.7416 14.8124 -59.2761
ITEM: TIMESTEP
2000
ITEM: NUMBER OF ATOMS
32
ITEM: BOX BOUNDS pp pp pp
0.0000000000000000e+00 4.8000000000000000e+01
0.0000000000000000e+00 3.2000000000000000e+01
0.0000000000000000e+00 3.2000000000000000e+01
ITEM: ATOMS id xu yu zu vx vy vz
962 1.20596 11.5379 8.42013 -21.8236 46.4075 86.3409
931 2.40368 10.759 8.68474 84.5921 -30.952 -53.852
900 3.74365 10.7682 9.19913 3.90066 -85.341 -15.4976
869 4.74726 9.88121 9.62164 -136.564 -88.682 -19.4684
652 9.41776 10.4008 9.62204 -23.5193 57.6464 -7.73651
621 10.799 10.2302 9.36444 -40.566 -33.9502 16.8319
683 9.02864 11.5277 10.3893 24.8316 86.1429 -96.0875
714 8.87619 10.3684 11.2619 31.2262 66.8068 -6.06317
838 4.50577 10.6217 10.8668 -29.2141 47.764 51.0605
745 7.51547 10.7688 11.2307 -19.7463 18.2447 -20.2593
807 5.40833 10.2453 11.9066 -41.445 -23.2925 9.22099
776 6.14958 10.893 10.8593 -37.8163 39.9404 -10.7642
590 11.1398 9.45952 8.20819 57.8568 6.31086 82.5191
559 12.4461 9.9186 8.49451 22.517 55.892 36.3065
528 13.7705 10.4768 8.32264 65.289 36.391 11.7336
466 14.7412 8.66741 9.43741 22.0307 -8.88634 -24.8399
435 16.0336 8.49376 10.038 -112.372 43.2513 -13.4575
497 14.2425 10.0196 9.59469 80.2321 55.4378 -135.73
404 16.2843 9.8822 10.1833 46.0986 29.7415 -20.3504
373 15.3413 10.9249 10.5126 -4.50965 33.3722 -20.3657
342 14.6137 11.8947 9.73132 -45.509 -15.3061 32.7081
311 14.2544 13.2842 9.81904 -57.9623 24.5082 -25.8982
280 14.9911 14.4302 10.3676 -67.6117 -58.4103 -71.2531
249 16.2805 14.7654 10.9672 -84.1893 -76.2733 -139.862
156 15.3925 12.442 12.0312 -84.5056 0.123117 67.3399
187 16.5425 13.1939 11.5001 -62.9271 -44.1203 -25.6747
218 17.5658 14.2032 11.2952 18.3916 26.5613 -77.3731
125 14.9274 13.3078 13.0769 -33.2719 26.67 29.8928
94 15.0021 12.9345 14.4245 -10.0327 -9.86296 -82.1468
63 15.7552 14.1587 14.6091 10.673 -75.6858 40.8763
32 16.3103 15.4545 14.2797 9.82869 -89.7305 7.14671
1 16.0484 16.0229 15.5061 -118.257 -30.4728 -21.1646
ITEM: TIMESTEP
2500
ITEM: NUMBER OF ATOMS
32
ITEM: BOX BOUNDS pp pp pp
0.0000000000000000e+00 4.8000000000000000e+01
0.0000000000000000e+00 3.2000000000000000e+01
0.0000000000000000e+00 3.2000000000000000e+01
ITEM: ATOMS id xu yu zu vx vy vz
590 11.2498 9.27014 8.13936 10.7112 5.84948 107.257
931 2.50188 11.345 8.67621 57.4274 235.644 6.36554
962 1.26461 12.0717 8.70597 -33.4651 25.8808 -7.79077
869 4.61876 10.0415 9.34893 53.0044 75.2389 -46.6123
621 10.8523 10.1585 9.21981 -17.0312 59.9869 37.4339
900 3.90281 11.2208 8.98224 -29.4107 -6.05309 -33.0181
652 9.42526 10.3506 9.45543 3.58629 -5.04202 -56.012
838 4.60145 10.8124 10.5275 -17.813 92.4533 -15.0617
776 6.31233 10.8676 10.6394 4.34765 63.0543 -30.9417
745 7.63484 10.8088 11.2649 44.776 88.5968 -58.1079
714 9.06909 10.4981 11.0777 34.0233 27.0533 -85.5391
683 9.14056 11.5769 10.1738 67.8173 7.50273 -44.6552
807 5.40844 10.305 11.6154 56.0256 20.869 85.7538
528 13.8405 10.0634 7.65357 61.0151 19.1815 -70.7582
559 12.5597 9.79014 8.25251 54.8552 -22.0735 -14.5865
466 14.5531 8.59616 9.29201 -26.0588 109.154 -34.5872
435 15.6493 8.61592 10.2026 -44.8179 28.8903 -62.7653
497 14.4852 9.99476 8.92539 37.5939 17.6988 -135.317
404 16.3829 9.80936 9.90968 -60.8471 -134.48 39.9961
342 14.9641 11.9345 9.34609 20.048 -58.5207 -60.4565
311 14.7448 13.3197 9.54985 -11.015 -60.0407 53.3021
373 15.6167 10.9852 10.1952 -4.88168 -33.8434 -49.4799
280 15.383 14.4121 10.2876 -84.4639 73.1613 100.498
249 16.6057 14.6162 11.0485 70.5352 100.227 5.38305
218 17.815 13.9099 11.3996 42.9935 1.57444 47.3305
156 15.5385 12.6419 11.917 -16.2219 -19.8444 2.70413
187 16.7781 12.9534 11.3025 57.1318 -83.3949 28.9221
125 14.9054 13.4181 12.9324 32.2809 47.6412 132.365
94 14.9609 12.7726 14.2325 -16.505 -4.45351 63.9404
63 15.6826 13.9683 14.4906 16.8013 -113.954 127.027
32 16.1369 15.2822 14.1883 -33.849 -32.2804 63.0251
1 15.8977 16.0403 15.3659 -62.9714 -52.1529 -18.8885
ITEM: TIMESTEP
3000
ITEM: NUMBER OF ATOMS
32
ITEM: BOX BOUNDS pp pp pp
0.0000000000000000e+00 4.8000000000000000e+01
0.0000000000000000e+00 3.2000000000000000e+01
0.0000000000000000e+00 3.2000000000000000e+01
ITEM: ATOMS id xu yu zu vx vy vz
590 11.305 9.3414 7.73556 -17.4611 46.9578 -87.417
931 2.3002 11.4961 8.27756 -3.81619 -65.0488 -41.1237
962 1.27793 12.3523 8.79052 -19.7281 45.5164 -28.928
869 4.30917 10.2147 9.43964 -3.74229 -17.5323 -77.4169
621 11.1573 10.1039 8.93931 14.2345 -51.6412 1.67521
900 3.55268 11.2397 8.86412 68.0898 15.7706 -70.1256
652 9.77383 10.5128 9.28137 41.974 57.7868 4.59105
838 4.18486 11.0179 10.6303 37.0043 18.9453 -28.0165
776 6.39544 10.9748 10.5191 -35.9143 32.5541 -63.4971
745 7.79216 11.0767 10.9303 -16.614 93.0766 19.9996
714 9.14817 10.5575 10.7623 -27.8974 -22.0253 -17.7019
683 9.32932 11.7212 9.95116 10.0457 -53.6253 30.7853
807 5.30417 10.5814 11.4219 -54.5656 -122.431 -1.62529
528 14.0221 9.74059 7.61363 97.0775 77.5907 -12.3501
559 12.6498 9.7593 8.02254 -24.2354 38.0502 -11.1448
1 15.6296 15.7933 15.6808 17.8806 52.9071 -18.0386
466 14.7945 8.23224 9.40149 41.8021 -71.8556 35.2842
435 15.8332 8.48426 10.4044 -24.7183 3.09822 -35.9288
497 14.568 9.57277 8.92633 0.676035 -5.31445 -63.9329
404 16.3629 9.78197 10.1086 -116.154 79.6433 81.879
342 15.0132 12.0216 9.32426 -0.0421772 8.8915 -6.43246
311 14.6453 13.4068 9.53356 -14.1737 -36.9454 8.80972
373 15.3875 10.8311 10.0283 -37.7973 34.9094 -46.0556
280 15.2453 14.3775 10.4663 59.7607 -3.85882 -8.06351
249 16.3387 14.3677 11.3997 -61.723 33.6041 32.2669
218 17.5977 13.7216 11.4678 -27.6002 34.8769 -92.7839
156 15.2985 12.4927 11.9025 -62.9134 -69.2804 43.4721
187 16.5419 12.7494 11.1832 59.6153 32.3164 -63.4803
125 14.8815 13.2259 13.1039 57.7655 66.3464 -138.185
94 15.3177 12.5153 14.2657 -94.7178 -33.5133 -14.0001
63 15.7421 13.7884 14.7141 67.5304 106.794 9.45122
32 15.9697 15.1549 14.458 48.5086 25.3501 -10.8832
ITEM: TIMESTEP
3500
ITEM: NUMBER OF ATOMS
32
ITEM: BOX BOUNDS pp pp pp
0.0000000000000000e+00 4.8000000000000000e+01
0.0000000000000000e+00 3.2000000000000000e+01
0.0000000000000000e+00 3.2000000000000000e+01
ITEM: ATOMS id xu yu zu vx vy vz
590 11.3651 9.37519 7.66776 88.4515 6.77418 -84.7365
621 10.9099 10.0943 8.79849 47.0254 33.5775 -120.418
900 3.36378 11.4675 8.82299 31.5489 13.1759 5.3517
931 2.06855 11.8299 8.2633 79.6831 -36.7883 -45.3944
962 1.14729 12.8856 8.49143 0.630141 -33.3012 -25.0696
869 4.22118 10.5644 9.55053 107.618 -25.6569 -22.1249
652 9.64233 10.3721 9.29167 13.5763 70.4809 -18.6645
683 9.42167 11.606 9.92568 30.907 -37.5584 65.2766
838 4.35526 11.4484 10.6591 79.3619 -97.1437 20.6925
807 5.26226 10.9816 11.6727 11.7604 -58.4303 18.2322
776 6.37213 11.2549 10.7653 38.2767 38.9122 -84.4719
745 7.61627 11.2002 11.5193 36.5158 -24.0718 -14.0112
714 8.87605 10.7684 10.9987 58.5966 85.2758 39.7404
528 14.0779 9.6845 7.42775 -62.4674 -104.166 -2.09798
559 12.7255 9.86536 7.98287 110.604 -53.0644 -45.2275
1 15.8003 15.575 15.5688 -9.94943 28.2636 -111.579
497 14.6055 9.52623 8.76299 -30.1439 -73.2062 -112.029
466 14.7593 8.13616 9.09426 -1.52242 12.3377 -11.7684
404 15.8673 9.87104 10.1791 -44.309 -89.3852 -49.7269
373 15.4219 11.0881 9.54442 66.6724 -34.472 124.474
342 15.4434 12.4077 8.95485 -17.7816 -2.78056 -5.67789
311 14.9816 13.7245 9.2885 -17.1212 -69.6429 -27.1492
435 15.3743 8.54032 10.3407 -118.688 -52.6255 -91.3275
187 16.6537 12.6977 10.8857 -4.18437 -30.6928 -23.725
280 15.3349 14.5619 10.4014 -62.3601 -74.6041 83.935
249 16.3513 14.4582 11.3804 71.4378 7.26689 45.1682
156 15.3195 12.3864 11.3537 4.69227 26.7383 -33.5524
218 17.5661 13.721 11.3026 14.7109 -88.6275 84.4413
125 14.8807 13.0855 12.5263 39.3021 -34.2567 56.1997
94 15.6128 12.5006 13.6364 -67.1893 -40.9833 7.71118
63 15.9031 13.8913 13.8768 -51.0839 -19.096 -36.9258
32 15.8935 15.3239 14.1485 -41.4985 63.9829 -31.5568
ITEM: TIMESTEP
4000
ITEM: NUMBER OF ATOMS
32
ITEM: BOX BOUNDS pp pp pp
0.0000000000000000e+00 4.8000000000000000e+01
0.0000000000000000e+00 3.2000000000000000e+01
0.0000000000000000e+00 3.2000000000000000e+01
ITEM: ATOMS id xu yu zu vx vy vz
590 11.3984 9.75251 7.59089 49.1109 64.6779 -163.763
621 11.3107 10.8087 8.59886 -25.839 73.6527 32.5821
900 3.91965 11.3652 8.42878 -22.5935 -31.5906 -27.6202
931 2.61154 11.9067 8.07629 -10.1524 -8.36321 -16.6549
962 1.43219 12.5714 8.56691 -60.6568 13.8064 -37.3058
869 4.50403 10.5782 9.45815 -33.2576 -77.6422 40.5642
652 9.93512 10.6552 8.9727 28.0039 1.26371 -86.5587
683 9.37868 11.9045 9.4337 -20.2016 2.98928 -3.74792
838 4.73919 11.4271 10.6111 32.233 -25.2505 -0.720479
807 5.51472 11.1546 11.7721 73.8481 67.6598 4.90993
776 6.70623 11.5641 10.9931 44.1172 75.9714 41.0611
745 8.04257 11.2793 11.3937 -68.1561 104.341 36.0054
714 9.10778 10.9494 10.4937 -22.8497 33.235 -60.5461
528 14.0656 9.8951 7.6146 -26.2231 -8.53868 53.0461
1 15.7223 15.4766 15.6763 -31.7096 -4.65862 15.2752
497 14.3584 9.69768 8.9883 -84.7447 5.53385 5.55457
466 14.5049 8.32284 9.37499 1.5527 -10.5296 -33.9989
404 15.5961 10.0897 10.2054 -65.4233 -104.663 -4.1851
373 15.4103 11.4413 9.78199 -44.5357 -79.7694 72.4289
342 15.655 12.7007 9.1468 -55.1645 -46.4748 108.685
311 14.9672 13.9264 9.39097 -28.7854 -11.1758 85.8423
435 15.2992 8.70655 10.4759 21.9028 -47.6912 40.3373
187 16.7487 13.0484 11.1196 13.135 31.3913 -4.54485
280 15.1925 14.6032 10.6272 -70.358 -18.3349 -44.0645
249 16.2555 14.6407 11.6008 42.0024 -15.7909 -60.1431
156 15.5586 12.389 11.4669 60.5193 -28.7548 -1.8462
218 17.568 14.1756 11.2572 -2.85514 88.0794 -34.0725
125 15.1705 12.9901 12.7264 22.7806 -24.9858 124.119
94 16.0742 12.3615 13.634 66.3035 -109.078 56.8252
63 16.2966 13.7781 13.9442 -5.65658 -13.3418 0.677351
32 16.3076 15.1568 14.379 70.8638 -6.26269 -6.63934
559 12.7056 10.0546 8.04196 37.0807 -17.3512 -15.2936
ITEM: TIMESTEP
4500
ITEM: NUMBER OF ATOMS
32
ITEM: BOX BOUNDS pp pp pp
0.0000000000000000e+00 4.8000000000000000e+01
0.0000000000000000e+00 3.2000000000000000e+01
0.0000000000000000e+00 3.2000000000000000e+01
ITEM: ATOMS id xu yu zu vx vy vz
590 11.602 9.64632 7.40507 3.06856 -18.6247 -28.5753
931 2.65733 11.8681 7.81533 -53.1036 53.1288 40.6627
900 3.89405 11.3769 8.37676 -18.5424 -72.8017 -38.182
652 9.95404 10.6004 8.82862 -70.9306 -64.9346 -15.8754
621 11.3031 10.7209 8.30284 -42.7616 -67.7476 24.0904
962 1.52429 12.4604 8.53749 44.5305 -82.2502 10.3599
869 4.73652 10.5163 9.15323 25.1337 -59.815 25.181
683 9.53868 11.9735 9.01023 -36.3666 -39.3893 -71.2867
745 8.36671 11.644 11.1728 57.7686 121.033 -66.8782
714 9.39689 11.269 10.2158 104.412 1.65309 -59.7812
838 4.9596 11.0952 10.4701 -9.44322 -14.1522 7.47265
776 6.99782 11.4059 10.8567 -28.9317 42.7052 -73.8406
807 5.8831 10.9773 11.5752 12.0156 -75.3555 17.2976
528 14.2115 10.2218 7.82272 -34.1391 -62.2378 -34.3955
559 12.8001 10.2502 7.92385 -12.5906 -59.7882 -136.647
497 14.2987 9.62379 9.12976 25.7747 89.2559 25.2875
342 15.9115 12.7072 9.41698 -10.8372 -31.9469 23.0158
466 14.3686 8.22369 9.40932 -2.83126 41.4576 -131.357
404 15.6688 10.1265 10.574 53.675 24.2097 23.3705
373 15.8648 11.3642 9.85055 63.5865 6.52439 -14.4167
311 15.3096 13.973 9.6756 -19.7856 12.9624 13.7064
435 15.2219 8.75408 10.453 -97.6559 -72.7005 28.9937
187 16.8456 13.0321 11.2733 -65.1257 52.611 -30.0643
280 15.2361 14.5064 10.9946 -15.1837 -18.2111 128.656
218 17.7645 14.1161 11.2636 -4.42611 -56.8154 -93.1016
156 15.8085 12.1029 11.6131 41.2462 21.1916 100.265
249 16.4605 14.6073 11.6938 11.9005 13.3252 -6.46127
94 16.6472 12.2677 13.515 -40.1038 -46.8747 -26.207
125 15.453 12.7351 12.856 -35.5163 0.325283 80.118
63 16.6553 13.619 13.9905 13.4405 -49.1796 140.906
32 16.535 14.8731 14.6031 20.1152 -31.1532 -30.1209
1 15.6973 15.4606 15.5657 -44.644 -37.6893 71.4805
ITEM: TIMESTEP
5000
ITEM: NUMBER OF ATOMS
32
ITEM: BOX BOUNDS pp pp pp
0.0000000000000000e+00 4.8000000000000000e+01
0.0000000000000000e+00 3.2000000000000000e+01
0.0000000000000000e+00 3.2000000000000000e+01
ITEM: ATOMS id xu yu zu vx vy vz
590 11.3617 9.50691 7.27202 -8.70823 80.8435 66.8963
900 3.42294 11.1375 8.38108 37.0059 -66.683 -10.9902
652 9.96012 10.9338 8.79466 -4.07629 16.5587 35.5952
962 0.928824 12.2945 8.9965 -101.065 119.456 23.7846
807 5.68594 10.7008 11.3698 -40.7482 8.32989 -21.5014
869 4.5036 10.4084 9.02422 43.3271 -110.145 38.5794
683 9.28767 12.1769 8.83685 -12.3685 66.9231 99.6317
745 8.01226 11.8157 11.1235 40.9401 -73.4248 -11.6953
714 8.98848 11.5358 10.0907 -57.2738 -67.7478 33.5041
838 4.83291 11.0131 10.2844 27.7867 -19.1643 162.068
776 6.79776 11.2509 10.6038 38.4483 -15.3189 -68.9888
621 11.2221 10.6317 8.15913 -10.6037 -12.4392 110.545
931 1.98931 11.6184 8.31201 -32.1434 42.2807 55.1988
559 12.6804 9.82781 7.66925 32.7012 -9.721 -8.99456
528 14.088 10.0832 7.68191 25.2744 -22.1975 19.2674
497 14.2162 9.76339 9.11958 -10.4204 38.7292 -30.9517
342 15.927 12.9769 9.75233 -9.18522 -2.66991 41.5231
466 14.3109 8.52317 9.85688 22.5162 77.04 40.181
404 15.7583 10.2183 10.5315 46.5479 4.29647 19.6622
373 15.8502 11.5308 9.92237 -41.7394 32.5194 44.3943
311 15.3174 14.2019 10.1627 67.9119 61.4668 -58.206
435 15.2553 8.92564 10.8243 30.2679 108.641 29.8225
187 17.0875 13.0359 11.7619 -32.0115 62.0312 -56.6626
280 15.2113 14.8077 11.4481 2.06397 -41.5763 2.57239
218 17.8229 14.2747 11.6088 -119.023 37.2705 14.89
156 15.8996 12.2725 11.6759 -34.9314 62.8579 -68.4124
249 16.5561 14.7965 11.923 -27.3955 57.7108 -14.5114
94 17.2036 12.4273 13.7063 29.4195 12.6048 48.9743
125 15.9719 12.6878 13.0393 -10.1329 -19.7666 45.0928
63 17.1634 13.8081 14.1786 51.7593 3.78999 105.812
32 16.9621 14.9252 15.0568 -44.2227 -71.56 -9.05708
1 15.7362 15.6025 15.3878 -55.348 25.5433 -13.9416
ITEM: TIMESTEP
5500
ITEM: NUMBER OF ATOMS
32
ITEM: BOX BOUNDS pp pp pp
0.0000000000000000e+00 4.8000000000000000e+01
0.0000000000000000e+00 3.2000000000000000e+01
0.0000000000000000e+00 3.2000000000000000e+01
ITEM: ATOMS id xu yu zu vx vy vz
590 11.2145 9.6783 7.58775 -126.557 -74.0045 46.9636
900 3.42451 11.0509 8.48149 -5.77315 -3.97181 43.7163
869 4.37186 10.2188 9.19379 50.3922 -27.3711 -2.82861
652 9.45056 10.8415 8.87676 -49.9316 -3.74881 64.1197
621 10.8013 10.7487 8.43391 -48.866 67.681 -40.2411
962 1.01269 12.2096 9.31719 92.7445 19.7591 -68.1591
931 2.18343 11.7091 8.72359 7.26038 93.1765 35.1943
683 8.87875 12.1319 9.07118 34.6945 20.7985 118.23
838 4.82875 11.0484 10.2808 88.0148 -56.1705 -69.3059
714 8.92906 11.5013 10.3201 20.5347 82.8142 89.9221
807 5.65475 10.6097 11.3501 115.574 -37.6842 34.3977
776 6.74742 11.3877 10.888 109.031 72.7144 74.3891
745 8.02091 11.77 11.4355 36.4431 82.9057 54.1911
528 13.8908 9.82572 7.85629 -13.8044 20.2782 -7.81536
559 12.5072 10.0968 7.98517 -20.775 39.8751 -66.1566
497 13.7328 9.68697 9.28478 -57.7819 88.5324 37.8592
466 13.9905 8.48608 10.1053 -27.2622 -108.392 65.4443
373 15.5423 11.6882 9.88849 -84.3279 -63.1144 59.6431
342 15.5652 13.0258 9.30835 0.0448059 -69.5521 37.3572
311 15.117 14.2948 9.80463 56.2959 58.1919 29.9927
435 15.1503 9.06032 10.7435 -53.7781 -6.31756 57.4294
404 15.459 10.4508 10.5845 26.7665 38.6159 195.215
280 14.8626 14.6858 11.1556 -107.151 51.3329 15.0805
156 15.4727 12.3444 11.6165 6.88797 -25.8475 10.8861
187 16.6943 13.0293 11.5257 8.83059 23.543 63.0854
249 16.1124 14.8476 11.8337 -45.3751 75.1476 -71.4481
218 17.3189 14.2742 11.3225 -52.8753 32.2891 12.1366
125 15.2259 12.5288 13.0094 -78.4194 41.5988 -91.2805
94 16.3072 12.3526 13.985 -91.5072 17.3463 -38.7952
63 16.5677 13.7353 14.3002 -105.306 4.24359 -63.7733
1 15.8406 15.8653 15.4066 88.8763 27.7316 143.656
32 16.8743 15.0018 14.953 -27.1066 43.9625 -63.7666
ITEM: TIMESTEP
6000
ITEM: NUMBER OF ATOMS
32
ITEM: BOX BOUNDS pp pp pp
0.0000000000000000e+00 4.8000000000000000e+01
0.0000000000000000e+00 3.2000000000000000e+01
0.0000000000000000e+00 3.2000000000000000e+01
ITEM: ATOMS id xu yu zu vx vy vz
590 10.8678 9.68244 7.38421 14.5597 -47.1615 -51.6322
900 3.29831 11.0345 8.33922 -97.8021 35.2581 71.6711
869 4.37685 10.2102 8.8704 -72.4439 109.895 36.93
652 9.09749 10.1579 8.89441 -48.2469 -36.6187 -30.2459
621 10.3833 10.5685 8.42435 32.9127 13.1055 62.8769
962 0.788145 12.0614 9.31815 -41.8213 -42.0002 9.44377
931 1.93909 11.4046 8.77638 -150.097 -50.0475 81.9194
683 9.08 11.5312 9.31461 68.2792 -88.6454 44.6953
838 4.57954 10.8629 10.1308 -90.0129 64.042 -10.5081
714 9.2102 11.2296 10.7309 -76.9648 -129.924 -24.7579
807 5.41872 10.8618 11.3159 46.3664 -23.8701 17.1535
776 6.84853 11.2491 11.1895 31.9477 -7.29588 -10.5767
745 8.20135 11.368 11.7211 -80.4055 13.9013 57.1523
528 13.5191 9.9131 7.78449 35.7042 -19.9955 -6.86562
559 12.0867 10.1849 8.00254 -40.9089 -52.2099 -8.08712
497 13.5147 9.93481 9.21757 -42.7498 14.7516 -16.7256
466 13.5102 8.69719 9.91897 3.47922 39.4476 77.0654
373 15.2338 11.2684 10.4018 -69.4136 87.9282 86.1136
342 15.6015 12.4639 9.74279 46.3273 30.564 -23.1284
311 15.1939 13.8148 9.849 -19.847 23.2991 77.2019
435 14.456 8.84337 10.9412 76.3831 66.2689 18.1504
404 14.8637 10.2004 11.2932 -42.3703 62.5832 17.8078
280 15.1167 14.5109 11.0847 30.9766 23.8689 40.6693
156 15.5362 12.0461 11.9675 14.4144 -1.06734 0.733416
187 16.6608 12.9358 11.8366 85.3716 -45.5076 10.3056
249 16.1985 14.79 11.9649 9.93926 23.204 20.4665
218 17.3413 14.1382 11.4413 52.846 38.7181 5.39866
125 15.3532 12.5237 13.2984 25.6127 40.5137 -36.0548
94 16.2149 12.4359 14.4204 43.282 -71.7504 91.8245
63 16.9766 13.6164 14.3298 -22.82 90.7893 -16.2224
1 15.9265 15.5488 15.4985 -64.1179 -126.868 40.3445
32 17.09 14.9357 14.8351 -24.7143 -36.2327 127.744
ITEM: TIMESTEP
6500
ITEM: NUMBER OF ATOMS
32
ITEM: BOX BOUNDS pp pp pp
0.0000000000000000e+00 4.8000000000000000e+01
0.0000000000000000e+00 3.2000000000000000e+01
0.0000000000000000e+00 3.2000000000000000e+01
ITEM: ATOMS id xu yu zu vx vy vz
590 11.0545 9.29274 7.50069 -50.4771 -39.0096 -5.07874
869 4.20951 10.2771 8.91193 23.1734 68.8636 7.60321
652 9.19163 9.77709 8.76491 -0.991038 -52.6886 -78.483
931 1.68566 11.4582 8.6941 82.4043 55.825 -45.182
900 3.00035 10.9277 8.34629 -37.572 114.244 58.0708
621 10.4807 10.2655 8.35979 84.8831 28.3525 -43.7832
838 4.59056 10.6698 10.2335 41.8556 54.5406 -18.278
962 0.357609 11.742 9.14187 -17.9954 -61.9048 -17.2938
683 9.17947 11.153 9.18896 -16.7276 -29.6136 -70.3233
807 5.51441 10.8024 11.3146 69.125 -38.6791 -31.3452
776 6.91125 10.9072 11.1027 58.3571 -113.894 3.81321
714 8.76511 10.7574 10.4985 -25.4112 -33.703 -54.7202
745 8.14733 10.8654 11.7827 17.4285 -3.88707 -36.6043
528 13.4386 9.55546 7.86342 -48.7126 25.8163 -4.61274
32 17.1022 15.3681 14.8469 -31.4409 0.140345 55.2052
466 13.825 8.47915 10.0451 52.5726 -12.2897 51.7996
497 13.7065 9.67812 9.29725 18.8452 -3.08438 -36.7491
342 15.6942 12.3019 9.64416 29.0579 48.7477 52.185
311 15.224 13.6125 10.0035 84.7889 -47.161 22.525
435 14.8215 8.87 10.9982 1.46413 42.9604 -5.9595
404 14.9281 10.2435 11.4046 -18.4214 -15.0122 -4.74376
373 15.2386 11.2393 10.4472 -54.5864 56.3297 27.7454
280 15.3083 14.2161 11.3124 30.8829 -109.684 75.0927
218 17.6269 14.0347 11.5228 82.3635 12.3469 54.3855
156 15.8742 12.0544 12.1102 -32.5666 -45.8371 36.8856
187 17.093 12.8132 12.0399 133.349 -116.74 76.7548
249 16.4648 14.7716 11.982 -16.6968 -94.5301 58.7199
125 15.5481 12.491 13.43 45.4269 65.8577 -60.89
94 16.3896 12.6032 14.6104 33.7393 -21.3644 -74.9004
63 16.9735 13.9203 14.5822 -28.7923 -106.985 6.79858
559 12.133 9.92466 8.23871 56.308 9.15478 -57.8146
1 15.9915 16.0661 15.4736 -52.8643 47.0353 -5.36501
ITEM: TIMESTEP
7000
ITEM: NUMBER OF ATOMS
32
ITEM: BOX BOUNDS pp pp pp
0.0000000000000000e+00 4.8000000000000000e+01
0.0000000000000000e+00 3.2000000000000000e+01
0.0000000000000000e+00 3.2000000000000000e+01
ITEM: ATOMS id xu yu zu vx vy vz
590 11.1623 9.12453 7.71394 -85.4702 0.717537 -46.5927
869 4.31177 10.1788 8.5787 75.0733 9.095 19.45
652 9.22603 9.66809 8.84639 13.4385 -34.562 100.17
931 1.70356 11.3768 8.40093 47.8063 12.7176 -35.1096
900 3.10917 10.9236 8.30002 109.912 25.1554 -48.0728
621 10.4884 10.1914 8.3655 -48.4771 1.46621 -16.7257
838 4.85625 10.4528 9.88879 110.25 34.1749 32.9647
962 0.414517 11.6766 8.94868 -23.4587 2.32818 -66.0294
683 9.21735 11.0836 9.15183 36.5237 -45.1806 7.47955
807 5.76287 10.3659 10.9994 -5.98149 7.17106 108.143
776 7.15456 10.3968 10.7752 2.46492 60.8791 -26.5581
714 9.17847 10.4844 10.4479 12.0716 -73.0151 -59.7371
745 8.32224 10.5315 11.566 32.3935 67.687 37.122
528 13.5714 9.53959 7.66425 -18.7728 -80.3531 -69.2544
1 16.2671 16.0525 15.9719 140.74 103.988 13.8564
32 17.3081 15.1974 15.4477 77.734 72.2338 -63.3421
466 14.1139 8.5867 9.92509 6.2338 -41.5181 5.87668
497 13.7575 9.70781 9.06889 -74.0019 -84.3523 -0.16161
342 15.9382 12.3692 9.41912 13.5107 -14.2507 -44.9478
311 15.3555 13.3452 10.3069 48.2943 -67.9668 34.384
435 15.1238 8.86534 10.9125 50.2514 142.97 -3.9157
404 15.3236 10.2313 11.2117 -21.6137 -31.9128 18.258
373 15.5288 11.3023 10.3153 -46.6795 -33.3188 -50.6195
280 15.7488 14.0907 11.4452 55.8774 -86.7894 77.1978
218 17.6825 13.8254 11.1754 -41.8705 55.843 -12.828
156 16.104 11.9758 12.0455 -0.868873 -107.758 -14.184
187 17.356 12.6577 12.007 7.80628 -40.977 -12.7108
249 16.9264 14.7073 11.9871 -28.2808 -34.0369 9.52538
125 15.7514 12.2385 13.4214 105.792 43.4186 -26.8033
94 16.422 12.5841 14.6648 90.6194 -19.7778 24.8597
63 17.0335 13.8425 15.0192 37.4262 62.7921 12.1294
559 12.2578 9.92195 8.07004 -91.171 0.844728 -14.7174
ITEM: TIMESTEP
7500
ITEM: NUMBER OF ATOMS
32
ITEM: BOX BOUNDS pp pp pp
0.0000000000000000e+00 4.8000000000000000e+01
0.0000000000000000e+00 3.2000000000000000e+01
0.0000000000000000e+00 3.2000000000000000e+01
ITEM: ATOMS id xu yu zu vx vy vz
590 10.8962 8.91212 7.98219 -42.9933 68.8279 80.0689
869 4.50834 10.1496 8.80365 1.88039 85.5236 -98.6543
652 9.1865 9.61328 9.2843 -0.525688 -8.85026 12.3846
621 10.3506 10.0809 8.64525 -60.7901 -31.843 -8.67178
931 1.89155 11.1272 8.71886 -1.03652 -41.2275 38.8742
900 3.23445 10.7799 8.69873 -64.9655 -85.4507 -53.245
962 0.624299 11.3333 9.22365 2.37986 43.6305 81.3553
838 5.1489 10.1493 10.111 11.254 61.6949 27.9674
683 9.38742 11.0529 9.44887 -55.5247 -58.4609 -27.3591
807 6.05372 9.90956 11.2213 -33.6421 -117.341 40.0604
776 7.39368 10.4619 11.2391 41.4496 -106.519 -40.6045
714 9.49224 10.7496 10.8529 4.74253 -3.00348 24.5317
745 8.58542 10.7514 11.973 28.7552 137.298 97.7942
559 11.8736 9.95385 8.20734 -64.1287 -89.3928 90.1507
528 13.1644 9.53678 7.75501 10.7082 -94.3525 29.5588
497 13.346 9.94684 9.09362 24.0386 3.97528 20.8219
466 14.1079 8.94365 9.85038 79.1835 -5.04997 91.3648
342 16.1421 12.095 9.63778 -28.851 -27.8656 41.5216
435 15.0788 8.74399 10.8694 118.119 -196.893 -4.45634
404 15.2385 10.1799 10.9543 51.557 0.931443 42.391
373 15.0785 11.4431 10.3319 -88.3476 76.4707 119.044
311 15.5515 13.0264 10.5499 -98.7067 2.81734 38.3642
218 18.0151 14.0271 11.022 82.2875 -86.8674 38.5531
156 16.7544 12.1283 11.9812 87.4373 -67.1922 67.0008
187 17.982 12.87 11.8948 20.7693 -9.09047 23.5578
280 16.1226 13.9857 11.4621 68.9893 -56.7362 41.3653
249 17.1991 14.7653 11.9811 49.5046 -78.0358 -87.8822