42157
Atoms. Timestep: 0
3 28 0 0
3 28.5 0.5 0
3 28.5 0 0.5
3 28 0.5 0.5
3 29 0 0
3 29.5 0.5 0
3 29.5 0 0.5
3 29 0.5 0.5
3 30 0 0
3 30.5 0.5 0
3 30.5 0 0.5
3 30 0.5 0.5
3 31 0 0
3 31.5 0.5 0
3 31.5 0 0.5
3 31 0.5 0.5
3 32 0 0
3 32.5 0.5 0
3 32.5 0 0.5
3 32 0.5 0.5
3 33 0 0
3 33.5 0.5 0
3 33.5 0 0.5
3 33 0.5 0.5
3 34 0 0
3 34.5 0.5 0
3 34.5 0 0.5
3 34 0.5 0.5
3 35 0 0
3 35.5 0.5 0
3 35.5 0 0.5
3 35 0.5 0.5
3 28 1 0
3 28.5 1.5 0
3 28.5 1 0.5
3 28 1.5 0.5
3 29 1 0
3 29.5 1.5 0
3 29.5 1 0.5
3 29 1.5 0.5
3 30 1 0
3 30.5 1.5 0
3 30.5 1 0.5
3 30 1.5 0.5
3 31 1 0
3 31.5 1.5 0
3 31.5 1 0.5
3 31 1.5 0.5
3 32 1 0
3 32.5 1.5 0
3 32.5 1 0.5
3 32 1.5 0.5
3 33 1 0
3 33.5 1.5 0
3 33.5 1 0.5
3 33 1.5 0.5
3 34 1 0
3 34.5 1.5 0
3 34.5 1 0.5
3 34 1.5 0.5
3 35 1 0
3 35.5 1.5 0
3 35.5 1 0.5
3 35 1.5 0.5
3 28 2 0
3 28.5 2.5 0
3 28.5 2 0.5
3 28 2.5 0.5
3 29 2 0
3 29.5 2.5 0
3 29.5 2 0.5
3 29 2.5 0.5
3 30 2 0
3 30.5 2.5 0
3 30.5 2 0.5
3 30 2.5 0.5
3 31 2 0
3 31.5 2.5 0
3 31.5 2 0.5
3 31 2.5 0.5
3 32 2 0
3 32.5 2.5 0
3 32.5 2 0.5
3 32 2.5 0.5
3 33 2 0
3 33.5 2.5 0
3 33.5 2 0.5
3 33 2.5 0.5
3 34 2 0
3 34.5 2.5 0
3 34.5 2 0.5
3 34 2.5 0.5
3 35 2 0
3 35.5 2.5 0
3 35.5 2 0.5
3 35 2.5 0.5
3 28 3 0
3 28.5 3.5 0
3 28.5 3 0.5
3 28 3.5 0.5
3 29 3 0
3 29.5 3.5 0
3 29.5 3 0.5
3 29 3.5 0.5
3 30 3 0
3 30.5 3.5 0
3 30.5 3 0.5
3 30 3.5 0.5
3 31 3 0
3 31.5 3.5 0
3 31.5 3 0.5
3 31 3.5 0.5
3 32 3 0
3 32.5 3.5 0
3 32.5 3 0.5
3 32 3.5 0.5
3 33 3 0
3 33.5 3.5 0
3 33.5 3 0.5
3 33 3.5 0.5
3 34 3 0
3 34.5 3.5 0
3 34.5 3 0.5
3 34 3.5 0.5
3 35 3 0
3 35.5 3.5 0
3 35.5 3 0.5
3 35 3.5 0.5
3 28 4 0
3 28.5 4.5 0
3 28.5 4 0.5
3 28 4.5 0.5
3 29 4 0
3 29.5 4.5 0
3 29.5 4 0.5
3 29 4.5 0.5
3 30 4 0
3 30.5 4.5 0
3 30.5 4 0.5
3 30 4.5 0.5
3 31 4 0
3 31.5 4.5 0
3 31.5 4 0.5
3 31 4.5 0.5
3 32 4 0
3 32.5 4.5 0
3 32.5 4 0.5
3 32 4.5 0.5
3 33 4 0
3 33.5 4.5 0
3 33.5 4 0.5
3 33 4.5 0.5
3 34 4 0
3 34.5 4.5 0
3 34.5 4 0.5
3 34 4.5 0.5
3 35 4 0
3 35.5 4.5 0
3 35.5 4 0.5
3 35 4.5 0.5
3 28 5 0
3 28.5 5.5 0
3 28.5 5 0.5
3 28 5.5 0.5
3 29 5 0
3 29.5 5.5 0
3 29.5 5 0.5
3 29 5.5 0.5
3 30 5 0
3 30.5 5.5 0
3 30.5 5 0.5
3 30 5.5 0.5
3 31 5 0
3 31.5 5.5 0
3 31.5 5 0.5
3 31 5.5 0.5
3 32 5 0
3 32.5 5.5 0
3 32.5 5 0.5
3 32 5.5 0.5
3 33 5 0
3 33.5 5.5 0
3 33.5 5 0.5
3 33 5.5 0.5
3 34 5 0
3 34.5 5.5 0
3 34.5 5 0.5
3 34 5.5 0.5
3 35 5 0
3 35.5 5.5 0
3 35.5 5 0.5
3 35 5.5 0.5
3 28 6 0
3 28.5 6.5 0
3 28.5 6 0.5
3 28 6.5 0.5
3 29 6 0
3 29.5 6.5 0
3 29.5 6 0.5
3 29 6.5 0.5
3 30 6 0
3 30.5 6.5 0
3 30.5 6 0.5
3 30 6.5 0.5
3 31 6 0
3 31.5 6.5 0
3 31.5 6 0.5
3 31 6.5 0.5
3 32 6 0
3 32.5 6.5 0
3 32.5 6 0.5
3 32 6.5 0.5
3 33 6 0
3 33.5 6.5 0
3 33.5 6 0.5
3 33 6.5 0.5
3 34 6 0
3 34.5 6.5 0
3 34.5 6 0.5
3 34 6.5 0.5
3 35 6 0
3 35.5 6.5 0
3 35.5 6 0.5
3 35 6.5 0.5
3 28 7 0
3 28.5 7.5 0
3 28.5 7 0.5
3 28 7.5 0.5
3 29 7 0
3 29.5 7.5 0
3 29.5 7 0.5
3 29 7.5 0.5
3 30 7 0
3 30.5 7.5 0
3 30.5 7 0.5
3 30 7.5 0.5
3 31 7 0
3 31.5 7.5 0
3 31.5 7 0.5
3 31 7.5 0.5
3 32 7 0
3 32.5 7.5 0
3 32.5 7 0.5
3 32 7.5 0.5
3 33 7 0
3 33.5 7.5 0
3 33.5 7 0.5
3 33 7.5 0.5
3 34 7 0
3 34.5 7.5 0
3 34.5 7 0.5
3 34 7.5 0.5
3 35 7 0
3 35.5 7.5 0
3 35.5 7 0.5
3 35 7.5 0.5
3 28 0 1
3 28.5 0.5 1
3 28.5 0 1.5
3 28 0.5 1.5
3 29 0 1
3 29.5 0.5 1
3 29.5 0 1.5
3 29 0.5 1.5
3 30 0 1
3 30.5 0.5 1
3 30.5 0 1.5
3 30 0.5 1.5
3 31 0 1
3 31.5 0.5 1
3 31.5 0 1.5
3 31 0.5 1.5
3 32 0 1
3 32.5 0.5 1
3 32.5 0 1.5
3 32 0.5 1.5
3 33 0 1
3 33.5 0.5 1
3 33.5 0 1.5
3 33 0.5 1.5
3 34 0 1
3 34.5 0.5 1
3 34.5 0 1.5
3 34 0.5 1.5
3 35 0 1
3 35.5 0.5 1
3 35.5 0 1.5
3 35 0.5 1.5
3 28 1 1
3 28.5 1.5 1
3 28.5 1 1.5
3 28 1.5 1.5
3 29 1 1
3 29.5 1.5 1
3 29.5 1 1.5
3 29 1.5 1.5
3 30 1 1
3 30.5 1.5 1
3 30.5 1 1.5
3 30 1.5 1.5
3 31 1 1
3 31.5 1.5 1
3 31.5 1 1.5
3 31 1.5 1.5
3 32 1 1
3 32.5 1.5 1
3 32.5 1 1.5
3 32 1.5 1.5
3 33 1 1
3 33.5 1.5 1
3 33.5 1 1.5
3 33 1.5 1.5
3 34 1 1
3 34.5 1.5 1
3 34.5 1 1.5
3 34 1.5 1.5
3 35 1 1
3 35.5 1.5 1
3 35.5 1 1.5
3 35 1.5 1.5
3 28 2 1
3 28.5 2.5 1
3 28.5 2 1.5
3 28 2.5 1.5
3 29 2 1
3 29.5 2.5 1
3 29.5 2 1.5
3 29 2.5 1.5
3 30 2 1
3 30.5 2.5 1
3 30.5 2 1.5
3 30 2.5 1.5
3 31 2 1
3 31.5 2.5 1
3 31.5 2 1.5
3 31 2.5 1.5
3 32 2 1
3 32.5 2.5 1
3 32.5 2 1.5
3 32 2.5 1.5
3 33 2 1
3 33.5 2.5 1
3 33.5 2 1.5
3 33 2.5 1.5
3 34 2 1
3 34.5 2.5 1
3 34.5 2 1.5
3 34 2.5 1.5
3 35 2 1
3 35.5 2.5 1
3 35.5 2 1.5
3 35 2.5 1.5
3 28 3 1
3 28.5 3.5 1
3 28.5 3 1.5
3 28 3.5 1.5
3 29 3 1
3 29.5 3.5 1
3 29.5 3 1.5
3 29 3.5 1.5
3 30 3 1
3 30.5 3.5 1
3 30.5 3 1.5
3 30 3.5 1.5
3 31 3 1
3 31.5 3.5 1
3 31.5 3 1.5
3 31 3.5 1.5
3 32 3 1
3 32.5 3.5 1
3 32.5 3 1.5
3 32 3.5 1.5
3 33 3 1
3 33.5 3.5 1
3 33.5 3 1.5
3 33 3.5 1.5
3 34 3 1
3 34.5 3.5 1
3 34.5 3 1.5
3 34 3.5 1.5
3 35 3 1
3 35.5 3.5 1
3 35.5 3 1.5
3 35 3.5 1.5
3 28 4 1
3 28.5 4.5 1
3 28.5 4 1.5
3 28 4.5 1.5
3 29 4 1
3 29.5 4.5 1
3 29.5 4 1.5
3 29 4.5 1.5
3 30 4 1
3 30.5 4.5 1
3 30.5 4 1.5
3 30 4.5 1.5
3 31 4 1
3 31.5 4.5 1
3 31.5 4 1.5
3 31 4.5 1.5
3 32 4 1
3 32.5 4.5 1
3 32.5 4 1.5
3 32 4.5 1.5
3 33 4 1
3 33.5 4.5 1
3 33.5 4 1.5
3 33 4.5 1.5
3 34 4 1
3 34.5 4.5 1
3 34.5 4 1.5
3 34 4.5 1.5
3 35 4 1
3 35.5 4.5 1
3 35.5 4 1.5
3 35 4.5 1.5
3 28 5 1
3 28.5 5.5 1
3 28.5 5 1.5
3 28 5.5 1.5
3 29 5 1
3 29.5 5.5 1
3 29.5 5 1.5
3 29 5.5 1.5
3 30 5 1
3 30.5 5.5 1
3 30.5 5 1.5
3 30 5.5 1.5
3 31 5 1
3 31.5 5.5 1
3 31.5 5 1.5
3 31 5.5 1.5
3 32 5 1
3 32.5 5.5 1
3 32.5 5 1.5
3 32 5.5 1.5
3 33 5 1
3 33.5 5.5 1
3 33.5 5 1.5
3 33 5.5 1.5
3 34 5 1
3 34.5 5.5 1
3 34.5 5 1.5
3 34 5.5 1.5
3 35 5 1
3 35.5 5.5 1
3 35.5 5 1.5
3 35 5.5 1.5
3 28 6 1
3 28.5 6.5 1
3 28.5 6 1.5
3 28 6.5 1.5
3 29 6 1
3 29.5 6.5 1
3 29.5 6 1.5
3 29 6.5 1.5
3 30 6 1
3 30.5 6.5 1
3 30.5 6 1.5
3 30 6.5 1.5
3 31 6 1
3 31.5 6.5 1
3 31.5 6 1.5
3 31 6.5 1.5
3 32 6 1
3 32.5 6.5 1
3 32.5 6 1.5
3 32 6.5 1.5
3 33 6 1
3 33.5 6.5 1
3 33.5 6 1.5
3 33 6.5 1.5
3 34 6 1
3 34.5 6.5 1
3 34.5 6 1.5
3 34 6.5 1.5
3 35 6 1
3 35.5 6.5 1
3 35.5 6 1.5
3 35 6.5 1.5
3 28 7 1
3 28.5 7.5 1
3 28.5 7 1.5
3 28 7.5 1.5
3 29 7 1
3 29.5 7.5 1
3 29.5 7 1.5
3 29 7.5 1.5
3 30 7 1
3 30.5 7.5 1
3 30.5 7 1.5
3 30 7.5 1.5
3 31 7 1
3 31.5 7.5 1
3 31.5 7 1.5
3 31 7.5 1.5
3 32 7 1
3 32.5 7.5 1
3 32.5 7 1.5
3 32 7.5 1.5
3 33 7 1
3 33.5 7.5 1
3 33.5 7 1.5
3 33 7.5 1.5
3 34 7 1
3 34.5 7.5 1
3 34.5 7 1.5
3 34 7.5 1.5
3 35 7 1
3 35.5 7.5 1
3 35.5 7 1.5
3 35 7.5 1.5
3 28 0 2
3 28.5 0.5 2
3 28.5 0 2.5
3 28 0.5 2.5
3 29 0 2
3 29.5 0.5 2
3 29.5 0 2.5
3 29 0.5 2.5
3 30 0 2
3 30.5 0.5 2
3 30.5 0 2.5
3 30 0.5 2.5
3 31 0 2
3 31.5 0.5 2
3 31.5 0 2.5
3 31 0.5 2.5
3 32 0 2
3 32.5 0.5 2
3 32.5 0 2.5
3 32 0.5 2.5
3 33 0 2
3 33.5 0.5 2
3 33.5 0 2.5
3 33 0.5 2.5
3 34 0 2
3 34.5 0.5 2
3 34.5 0 2.5
3 34 0.5 2.5
3 35 0 2
3 35.5 0.5 2
3 35.5 0 2.5
3 35 0.5 2.5
3 28 1 2
3 28.5 1.5 2
3 28.5 1 2.5
3 28 1.5 2.5
3 29 1 2
3 29.5 1.5 2
3 29.5 1 2.5
3 29 1.5 2.5
3 30 1 2
3 30.5 1.5 2
3 30.5 1 2.5
3 30 1.5 2.5
3 31 1 2
3 31.5 1.5 2
3 31.5 1 2.5
3 31 1.5 2.5
3 32 1 2
3 32.5 1.5 2
3 32.5 1 2.5
3 32 1.5 2.5
3 33 1 2
3 33.5 1.5 2
3 33.5 1 2.5
3 33 1.5 2.5
3 34 1 2
3 34.5 1.5 2
3 34.5 1 2.5
3 34 1.5 2.5
3 35 1 2
3 35.5 1.5 2
3 35.5 1 2.5
3 35 1.5 2.5
3 28 2 2
3 28.5 2.5 2
3 28.5 2 2.5
3 28 2.5 2.5
3 29 2 2
3 29.5 2.5 2
3 29.5 2 2.5
3 29 2.5 2.5
3 30 2 2
3 30.5 2.5 2
3 30.5 2 2.5
3 30 2.5 2.5
3 31 2 2
3 31.5 2.5 2
3 31.5 2 2.5
3 31 2.5 2.5
3 32 2 2
3 32.5 2.5 2
3 32.5 2 2.5
3 32 2.5 2.5
3 33 2 2
3 33.5 2.5 2
3 33.5 2 2.5
3 33 2.5 2.5
3 34 2 2
3 34.5 2.5 2
3 34.5 2 2.5
3 34 2.5 2.5
3 35 2 2
3 35.5 2.5 2
3 35.5 2 2.5
3 35 2.5 2.5
3 28 3 2
3 28.5 3.5 2
3 28.5 3 2.5
3 28 3.5 2.5
3 29 3 2
3 29.5 3.5 2
3 29.5 3 2.5
3 29 3.5 2.5
3 30 3 2
3 30.5 3.5 2
3 30.5 3 2.5
3 30 3.5 2.5
3 31 3 2
3 31.5 3.5 2
3 31.5 3 2.5
3 31 3.5 2.5
3 32 3 2
3 32.5 3.5 2
3 32.5 3 2.5
3 32 3.5 2.5
3 33 3 2
3 33.5 3.5 2
3 33.5 3 2.5
3 33 3.5 2.5
3 34 3 2
3 34.5 3.5 2
3 34.5 3 2.5
3 34 3.5 2.5
3 35 3 2
3 35.5 3.5 2
3 35.5 3 2.5
3 35 3.5 2.5
3 28 4 2
3 28.5 4.5 2
3 28.5 4 2.5
3 28 4.5 2.5
3 29 4 2
3 29.5 4.5 2
3 29.5 4 2.5
3 29 4.5 2.5
3 30 4 2
3 30.5 4.5 2
3 30.5 4 2.5
3 30 4.5 2.5
3 31 4 2
3 31.5 4.5 2
3 31.5 4 2.5
3 31 4.5 2.5
3 32 4 2
3 32.5 4.5 2
3 32.5 4 2.5
3 32 4.5 2.5
3 33 4 2
3 33.5 4.5 2
3 33.5 4 2.5
3 33 4.5 2.5
3 34 4 2
3 34.5 4.5 2
3 34.5 4 2.5
3 34 4.5 2.5
3 35 4 2
3 35.5 4.5 2
3 35.5 4 2.5
3 35 4.5 2.5
3 28 5 2
3 28.5 5.5 2
3 28.5 5 2.5
3 28 5.5 2.5
3 29 5 2
3 29.5 5.5 2
3 29.5 5 2.5
3 29 5.5 2.5
3 30 5 2
3 30.5 5.5 2
3 30.5 5 2.5
3 30 5.5 2.5
3 31 5 2
3 31.5 5.5 2
3 31.5 5 2.5
3 31 5.5 2.5
3 32 5 2
3 32.5 5.5 2
3 32.5 5 2.5
3 32 5.5 2.5
3 33 5 2
3 33.5 5.5 2
3 33.5 5 2.5
3 33 5.5 2.5
3 34 5 2
3 34.5 5.5 2
3 34.5 5 2.5
3 34 5.5 2.5
3 35 5 2
3 35.5 5.5 2
3 35.5 5 2.5
3 35 5.5 2.5
3 28 6 2
3 28.5 6.5 2
3 28.5 6 2.5
3 28 6.5 2.5
3 29 6 2
3 29.5 6.5 2
3 29.5 6 2.5
3 29 6.5 2.5
3 30 6 2
3 30.5 6.5 2
3 30.5 6 2.5
3 30 6.5 2.5
3 31 6 2
3 31.5 6.5 2
3 31.5 6 2.5
3 31 6.5 2.5
3 32 6 2
3 32.5 6.5 2
3 32.5 6 2.5
3 32 6.5 2.5
3 33 6 2
3 33.5 6.5 2
3 33.5 6 2.5
3 33 6.5 2.5
3 34 6 2
3 34.5 6.5 2
3 34.5 6 2.5
3 34 6.5 2.5
3 35 6 2
3 35.5 6.5 2
3 35.5 6 2.5
3 35 6.5 2.5
3 28 7 2
3 28.5 7.5 2
3 28.5 7 2.5
3 28 7.5 2.5
3 29 7 2
3 29.5 7.5 2
3 29.5 7 2.5
3 29 7.5 2.5
3 30 7 2
3 30.5 7.5 2
3 30.5 7 2.5
3 30 7.5 2.5
3 31 7 2
3 31.5 7.5 2
3 31.5 7 2.5
3 31 7.5 2.5
3 32 7 2
3 32.5 7.5 2
3 32.5 7 2.5
3 32 7.5 2.5
3 33 7 2
3 33.5 7.5 2
3 33.5 7 2.5
3 33 7.5 2.5
3 34 7 2
3 34.5 7.5 2
3 34.5 7 2.5
3 34 7.5 2.5
3 35 7 2
3 35.5 7.5 2
3 35.5 7 2.5
3 35 7.5 2.5
3 28 0 3
3 28.5 0.5 3
3 28.5 0 3.5
3 28 0.5 3.5
3 29 0 3
3 29.5 0.5 3
3 29.5 0 3.5
3 29 0.5 3.5
3 30 0 3
3 30.5 0.5 3
3 30.5 0 3.5
3 30 0.5 3.5
3 31 0 3
3 31.5 0.5 3
3 31.5 0 3.5
3 31 0.5 3.5
3 32 0 3
3 32.5 0.5 3
3 32.5 0 3.5
3 32 0.5 3.5
3 33 0 3
3 33.5 0.5 3
3 33.5 0 3.5
3 33 0.5 3.5
3 34 0 3
3 34.5 0.5 3
3 34.5 0 3.5
3 34 0.5 3.5
3 35 0 3
3 35.5 0.5 3
3 35.5 0 3.5
3 35 0.5 3.5
3 28 1 3
3 28.5 1.5 3
3 28.5 1 3.5
3 28 1.5 3.5
3 29 1 3
3 29.5 1.5 3
3 29.5 1 3.5
3 29 1.5 3.5
3 30 1 3
3 30.5 1.5 3
3 30.5 1 3.5
3 30 1.5 3.5
3 31 1 3
3 31.5 1.5 3
3 31.5 1 3.5
3 31 1.5 3.5
3 32 1 3
3 32.5 1.5 3
3 32.5 1 3.5
3 32 1.5 3.5
3 33 1 3
3 33.5 1.5 3
3 33.5 1 3.5
3 33 1.5 3.5
3 34 1 3
3 34.5 1.5 3
3 34.5 1 3.5
3 34 1.5 3.5
3 35 1 3
3 35.5 1.5 3
3 35.5 1 3.5
3 35 1.5 3.5
3 28 2 3
3 28.5 2.5 3
3 28.5 2 3.5
3 28 2.5 3.5
3 29 2 3
3 29.5 2.5 3
3 29.5 2 3.5
3 29 2.5 3.5
3 30 2 3
3 30.5 2.5 3
3 30.5 2 3.5
3 30 2.5 3.5
3 31 2 3
3 31.5 2.5 3
3 31.5 2 3.5
3 31 2.5 3.5
3 32 2 3
3 32.5 2.5 3
3 32.5 2 3.5
3 32 2.5 3.5
3 33 2 3
3 33.5 2.5 3
3 33.5 2 3.5
3 33 2.5 3.5
3 34 2 3
3 34.5 2.5 3
3 34.5 2 3.5
3 34 2.5 3.5
3 35 2 3
3 35.5 2.5 3
3 35.5 2 3.5
3 35 2.5 3.5
3 28 3 3
3 28.5 3.5 3
3 28.5 3 3.5
3 28 3.5 3.5
3 29 3 3
3 29.5 3.5 3
3 29.5 3 3.5
3 29 3.5 3.5
3 30 3 3
3 30.5 3.5 3
3 30.5 3 3.5
3 30 3.5 3.5
3 31 3 3
3 31.5 3.5 3
3 31.5 3 3.5
3 31 3.5 3.5
3 32 3 3
3 32.5 3.5 3
3 32.5 3 3.5
3 32 3.5 3.5
3 33 3 3
3 33.5 3.5 3
3 33.5 3 3.5
3 33 3.5 3.5
3 34 3 3
3 34.5 3.5 3
3 34.5 3 3.5
3 34 3.5 3.5
3 35 3 3
3 35.5 3.5 3
3 35.5 3 3.5
3 35 3.5 3.5
3 28 4 3
3 28.5 4.5 3
3 28.5 4 3.5
3 28 4.5 3.5
3 29 4 3
3 29.5 4.5 3
3 29.5 4 3.5
3 29 4.5 3.5
3 30 4 3
3 30.5 4.5 3
3 30.5 4 3.5
3 30 4.5 3.5
3 31 4 3
3 31.5 4.5 3
3 31.5 4 3.5
3 31 4.5 3.5
3 32 4 3
3 32.5 4.5 3
3 32.5 4 3.5
3 32 4.5 3.5
3 33 4 3
3 33.5 4.5 3
3 33.5 4 3.5
3 33 4.5 3.5
3 34 4 3
3 34.5 4.5 3
3 34.5 4 3.5
3 34 4.5 3.5
3 35 4 3
3 35.5 4.5 3
3 35.5 4 3.5
3 35 4.5 3.5
3 28 5 3
3 28.5 5.5 3
3 28.5 5 3.5
3 28 5.5 3.5
3 29 5 3
3 29.5 5.5 3
3 29.5 5 3.5
3 29 5.5 3.5
3 30 5 3
3 30.5 5.5 3
3 30.5 5 3.5
3 30 5.5 3.5
3 31 5 3
3 31.5 5.5 3
3 31.5 5 3.5
3 31 5.5 3.5
3 32 5 3
3 32.5 5.5 3
3 32.5 5 3.5
3 32 5.5 3.5
3 33 5 3
3 33.5 5.5 3
3 33.5 5 3.5
3 33 5.5 3.5
3 34 5 3
3 34.5 5.5 3
3 34.5 5 3.5
3 34 5.5 3.5
3 35 5 3
3 35.5 5.5 3
3 35.5 5 3.5
3 35 5.5 3.5
3 28 6 3
3 28.5 6.5 3
3 28.5 6 3.5
3 28 6.5 3.5
3 29 6 3
3 29.5 6.5 3
3 29.5 6 3.5
3 29 6.5 3.5
3 30 6 3
3 30.5 6.5 3
3 30.5 6 3.5
3 30 6.5 3.5
3 31 6 3
3 31.5 6.5 3
3 31.5 6 3.5
3 31 6.5 3.5
3 32 6 3
3 32.5 6.5 3
3 32.5 6 3.5
3 32 6.5 3.5
3 33 6 3
3 33.5 6.5 3
3 33.5 6 3.5
3 33 6.5 3.5
3 34 6 3
3 34.5 6.5 3
3 34.5 6 3.5
3 34 6.5 3.5
3 35 6 3
3 35.5 6.5 3
3 35.5 6 3.5
3 35 6.5 3.5
3 28 7 3
3 28.5 7.5 3
3 28.5 7 3.5
3 28 7.5 3.5
3 29 7 3
3 29.5 7.5 3
3 29.5 7 3.5
3 29 7.5 3.5
3 30 7 3
3 30.5 7.5 3
3 30.5 7 3.5
3 30 7.5 3.5
3 31 7 3
3 31.5 7.5 3
3 31.5 7 3.5
3 31 7.5 3.5
3 32 7 3
3 32.5 7.5 3
3 32.5 7 3.5
3 32 7.5 3.5
3 33 7 3
3 33.5 7.5 3
3 33.5 7 3.5
3 33 7.5 3.5
3 34 7 3
3 34.5 7.5 3
3 34.5 7 3.5
3 34 7.5 3.5
3 35 7 3
3 35.5 7.5 3
3 35.5 7 3.5
3 35 7.5 3.5
3 28 0 4
3 28.5 0.5 4
3 28.5 0 4.5
3 28 0.5 4.5
3 29 0 4
3 29.5 0.5 4
3 29.5 0 4.5
3 29 0.5 4.5
3 30 0 4
3 30.5 0.5 4
3 30.5 0 4.5
3 30 0.5 4.5
3 31 0 4
3 31.5 0.5 4
3 31.5 0 4.5
3 31 0.5 4.5
3 32 0 4
3 32.5 0.5 4
3 32.5 0 4.5
3 32 0.5 4.5
3 33 0 4
3 33.5 0.5 4
3 33.5 0 4.5
3 33 0.5 4.5
3 34 0 4
3 34.5 0.5 4
3 34.5 0 4.5
3 34 0.5 4.5
3 35 0 4
3 35.5 0.5 4
3 35.5 0 4.5
3 35 0.5 4.5
3 28 1 4
3 28.5 1.5 4
3 28.5 1 4.5
3 28 1.5 4.5
3 29 1 4
3 29.5 1.5 4
3 29.5 1 4.5
3 29 1.5 4.5
3 30 1 4
3 30.5 1.5 4
3 30.5 1 4.5
3 30 1.5 4.5
3 31 1 4
3 31.5 1.5 4
3 31.5 1 4.5
3 31 1.5 4.5
3 32 1 4
3 32.5 1.5 4
3 32.5 1 4.5
3 32 1.5 4.5
3 33 1 4
3 33.5 1.5 4
3 33.5 1 4.5
3 33 1.5 4.5
3 34 1 4
3 34.5 1.5 4
3 34.5 1 4.5
3 34 1.5 4.5
3 35 1 4
3 35.5 1.5 4
3 35.5 1 4.5
3 35 1.5 4.5
3 28 2 4
3 28.5 2.5 4
3 28.5 2 4.5
3 28 2.5 4.5
3 29 2 4
3 29.5 2.5 4
3 29.5 2 4.5
3 29 2.5 4.5
3 30 2 4
3 30.5 2.5 4
3 30.5 2 4.5
3 30 2.5 4.5
3 31 2 4
3 31.5 2.5 4
3 31.5 2 4.5
3 31 2.5 4.5
3 32 2 4
3 32.5 2.5 4
3 32.5 2 4.5
3 32 2.5 4.5
3 33 2 4
3 33.5 2.5 4
3 33.5 2 4.5
3 33 2.5 4.5
3 34 2 4
3 34.5 2.5 4
3 34.5 2 4.5
3 34 2.5 4.5
3 35 2 4
3 35.5 2.5 4
3 35.5 2 4.5
3 35 2.5 4.5
3 28 3 4
3 28.5 3.5 4
3 28.5 3 4.5
3 28 3.5 4.5
3 29 3 4
3 29.5 3.5 4
3 29.5 3 4.5
3 29 3.5 4.5
3 30 3 4
3 30.5 3.5 4
3 30.5 3 4.5
3 30 3.5 4.5
3 31 3 4
3 31.5 3.5 4
3 31.5 3 4.5
3 31 3.5 4.5
3 32 3 4
3 32.5 3.5 4
3 32.5 3 4.5
3 32 3.5 4.5
3 33 3 4
3 33.5 3.5 4
3 33.5 3 4.5
3 33 3.5 4.5
3 34 3 4
3 34.5 3.5 4
3 34.5 3 4.5
3 34 3.5 4.5
3 35 3 4
3 35.5 3.5 4
3 35.5 3 4.5
3 35 3.5 4.5
3 28 4 4
3 28.5 4.5 4
3 28.5 4 4.5
3 28 4.5 4.5
3 29 4 4
3 29.5 4.5 4
3 29.5 4 4.5
3 29 4.5 4.5
3 30 4 4
3 30.5 4.5 4
3 30.5 4 4.5
3 30 4.5 4.5
3 31 4 4
3 31.5 4.5 4
3 31.5 4 4.5
3 31 4.5 4.5
3 32 4 4
3 32.5 4.5 4
3 32.5 4 4.5
3 32 4.5 4.5
3 33 4 4
3 33.5 4.5 4
3 33.5 4 4.5
3 33 4.5 4.5
3 34 4 4
3 34.5 4.5 4
3 34.5 4 4.5
3 34 4.5 4.5
3 35 4 4
3 35.5 4.5 4
3 35.5 4 4.5
3 35 4.5 4.5
3 28 5 4
3 28.5 5.5 4
3 28.5 5 4.5
3 28 5.5 4.5
3 29 5 4
3 29.5 5.5 4
3 29.5 5 4.5
3 29 5.5 4.5
3 30 5 4
3 30.5 5.5 4
3 30.5 5 4.5
3 30 5.5 4.5
3 31 5 4
3 31.5 5.5 4
3 31.5 5 4.5
3 31 5.5 4.5
3 32 5 4
3 32.5 5.5 4
3 32.5 5 4.5
3 32 5.5 4.5
3 33 5 4
3 33.5 5.5 4
3 33.5 5 4.5
3 33 5.5 4.5
3 34 5 4
3 34.5 5.5 4
3 34.5 5 4.5
3 34 5.5 4.5
3 35 5 4
3 35.5 5.5 4
3 35.5 5 4.5
3 35 5.5 4.5
3 28 6 4
3 28.5 6.5 4
3 28.5 6 4.5
3 28 6.5 4.5
3 29 6 4
3 29.5 6.5 4
3 29.5 6 4.5
3 29 6.5 4.5
3 30 6 4
3 30.5 6.5 4
3 30.5 6 4.5
3 30 6.5 4.5
3 31 6 4
3 31.5 6.5 4
3 31.5 6 4.5
3 31 6.5 4.5
3 32 6 4
3 32.5 6.5 4
3 32.5 6 4.5
3 32 6.5 4.5
3 33 6 4
3 33.5 6.5 4
3 33.5 6 4.5
3 33 6.5 4.5
3 34 6 4
3 34.5 6.5 4
3 34.5 6 4.5
3 34 6.5 4.5
3 35 6 4
3 35.5 6.5 4
3 35.5 6 4.5
3 35 6.5 4.5
3 28 7 4
3 28.5 7.5 4
3 28.5 7 4.5
3 28 7.5 4.5
3 29 7 4
3 29.5 7.5 4
3 29.5 7 4.5
3 29 7.5 4.5
3 30 7 4
3 30.5 7.5 4
3 30.5 7 4.5
3 30 7.5 4.5
3 31 7 4
3 31.5 7.5 4
3 31.5 7 4.5
3 31 7.5 4.5
3 32 7 4
3 32.5 7.5 4
3 32.5 7 4.5
3 32 7.5 4.5
3 33 7 4
3 33.5 7.5 4
3 33.5 7 4.5
3 33 7.5 4.5
3 34 7 4
3 34.5 7.5 4
3 34.5 7 4.5
3 34 7.5 4.5
3 35 7 4
3 35.5 7.5 4
3 35.5 7 4.5
3 35 7.5 4.5
3 28 0 5
3 28.5 0.5 5
3 28.5 0 5.5
3 28 0.5 5.5
3 29 0 5
3 29.5 0.5 5
3 29.5 0 5.5
3 29 0.5 5.5
3 30 0 5
3 30.5 0.5 5
3 30.5 0 5.5
3 30 0.5 5.5
3 31 0 5
3 31.5 0.5 5
3 31.5 0 5.5
3 31 0.5 5.5
3 32 0 5
3 32.5 0.5 5
3 32.5 0 5.5
3 32 0.5 5.5
3 33 0 5
3 33.5 0.5 5
3 33.5 0 5.5
3 33 0.5 5.5
3 34 0 5
3 34.5 0.5 5
3 34.5 0 5.5
3 34 0.5 5.5
3 35 0 5
3 35.5 0.5 5
3 35.5 0 5.5
3 35 0.5 5.5
3 28 1 5
3 28.5 1.5 5
3 28.5 1 5.5
3 28 1.5 5.5
3 29 1 5
3 29.5 1.5 5
3 29.5 1 5.5
3 29 1.5 5.5
3 30 1 5
3 30.5 1.5 5
3 30.5 1 5.5
3 30 1.5 5.5
3 31 1 5
3 31.5 1.5 5
3 31.5 1 5.5
3 31 1.5 5.5
3 32 1 5
3 32.5 1.5 5
3 32.5 1 5.5
3 32 1.5 5.5
3 33 1 5
3 33.5 1.5 5
3 33.5 1 5.5
3 33 1.5 5.5
3 34 1 5
3 34.5 1.5 5
3 34.5 1 5.5
3 34 1.5 5.5
3 35 1 5
3 35.5 1.5 5
3 35.5 1 5.5
3 35 1.5 5.5
3 28 2 5
3 28.5 2.5 5
3 28.5 2 5.5
3 28 2.5 5.5
3 29 2 5
3 29.5 2.5 5
3 29.5 2 5.5
3 29 2.5 5.5
3 30 2 5
3 30.5 2.5 5
3 30.5 2 5.5
3 30 2.5 5.5
3 31 2 5
3 31.5 2.5 5
3 31.5 2 5.5
3 31 2.5 5.5
3 32 2 5
3 32.5 2.5 5
3 32.5 2 5.5
3 32 2.5 5.5
3 33 2 5
3 33.5 2.5 5
3 33.5 2 5.5
3 33 2.5 5.5
3 34 2 5
3 34.5 2.5 5
3 34.5 2 5.5
3 34 2.5 5.5
3 35 2 5
3 35.5 2.5 5
3 35.5 2 5.5
3 35 2.5 5.5
3 28 3 5
3 28.5 3.5 5
3 28.5 3 5.5
3 28 3.5 5.5
3 29 3 5
3 29.5 3.5 5
3 29.5 3 5.5
3 29 3.5 5.5
3 30 3 5
3 30.5 3.5 5
3 30.5 3 5.5
3 30 3.5 5.5
3 31 3 5
3 31.5 3.5 5
3 31.5 3 5.5
3 31 3.5 5.5
3 32 3 5
3 32.5 3.5 5
3 32.5 3 5.5
3 32 3.5 5.5
3 33 3 5
3 33.5 3.5 5
3 33.5 3 5.5
3 33 3.5 5.5
3 34 3 5
3 34.5 3.5 5
3 34.5 3 5.5
3 34 3.5 5.5
3 35 3 5
3 35.5 3.5 5
3 35.5 3 5.5
3 35 3.5 5.5
3 28 4 5
3 28.5 4.5 5
3 28.5 4 5.5
3 28 4.5 5.5
3 29 4 5
3 29.5 4.5 5
3 29.5 4 5.5
3 29 4.5 5.5
3 30 4 5
3 30.5 4.5 5
3 30.5 4 5.5
3 30 4.5 5.5
3 31 4 5
3 31.5 4.5 5
3 31.5 4 5.5
3 31 4.5 5.5
3 32 4 5
3 32.5 4.5 5
3 32.5 4 5.5
3 32 4.5 5.5
3 33 4 5
3 33.5 4.5 5
3 33.5 4 5.5
3 33 4.5 5.5
3 34 4 5
3 34.5 4.5 5
3 34.5 4 5.5
3 34 4.5 5.5
3 35 4 5
3 35.5 4.5 5
3 35.5 4 5.5
3 35 4.5 5.5
3 28 5 5
3 28.5 5.5 5
3 28.5 5 5.5
3 28 5.5 5.5
3 29 5 5
3 29.5 5.5 5
3 29.5 5 5.5
3 29 5.5 5.5
3 30 5 5
3 30.5 5.5 5
3 30.5 5 5.5
3 30 5.5 5.5
3 31 5 5
3 31.5 5.5 5
3 31.5 5 5.5
3 31 5.5 5.5
3 32 5 5
3 32.5 5.5 5
3 32.5 5 5.5
3 32 5.5 5.5
3 33 5 5
3 33.5 5.5 5
3 33.5 5 5.5
3 33 5.5 5.5
3 34 5 5
3 34.5 5.5 5
3 34.5 5 5.5
3 34 5.5 5.5
3 35 5 5
3 35.5 5.5 5
3 35.5 5 5.5
3 35 5.5 5.5
3 28 6 5
3 28.5 6.5 5
3 28.5 6 5.5
3 28 6.5 5.5
3 29 6 5
3 29.5 6.5 5
3 29.5 6 5.5
3 29 6.5 5.5
3 30 6 5
3 30.5 6.5 5
3 30.5 6 5.5
3 30 6.5 5.5
3 31 6 5
3 31.5 6.5 5
3 31.5 6 5.5
3 31 6.5 5.5
3 32 6 5
3 32.5 6.5 5
3 32.5 6 5.5
3 32 6.5 5.5
3 33 6 5
3 33.5 6.5 5
3 33.5 6 5.5
3 33 6.5 5.5
3 34 6 5
3 34.5 6.5 5
3 34.5 6 5.5
3 34 6.5 5.5
3 35 6 5
3 35.5 6.5 5
3 35.5 6 5.5
3 35 6.5 5.5
3 28 7 5
3 28.5 7.5 5
3 28.5 7 5.5
3 28 7.5 5.5
3 29 7 5
3 29.5 7.5 5
3 29.5 7 5.5
3 29 7.5 5.5
3 30 7 5
3 30.5 7.5 5
3 30.5 7 5.5
3 30 7.5 5.5
3 31 7 5
3 31.5 7.5 5
3 31.5 7 5.5
3 31 7.5 5.5
3 32 7 5
3 32.5 7.5 5
3 32.5 7 5.5
3 32 7.5 5.5
3 33 7 5
3 33.5 7.5 5
3 33.5 7 5.5
3 33 7.5 5.5
3 34 7 5
3 34.5 7.5 5
3 34.5 7 5.5
3 34 7.5 5.5
3 35 7 5
3 35.5 7.5 5
3 35.5 7 5.5
3 35 7.5 5.5
3 28 0 6
3 28.5 0.5 6
3 28.5 0 6.5
3 28 0.5 6.5
3 29 0 6
3 29.5 0.5 6
3 29.5 0 6.5
3 29 0.5 6.5
3 30 0 6
3 30.5 0.5 6
3 30.5 0 6.5
3 30 0.5 6.5
3 31 0 6
3 31.5 0.5 6
3 31.5 0 6.5
3 31 0.5 6.5
3 32 0 6
3 32.5 0.5 6
3 32.5 0 6.5
3 32 0.5 6.5
3 33 0 6
3 33.5 0.5 6
3 33.5 0 6.5
3 33 0.5 6.5
3 34 0 6
3 34.5 0.5 6
3 34.5 0 6.5
3 34 0.5 6.5
3 35 0 6
3 35.5 0.5 6
3 35.5 0 6.5
3 35 0.5 6.5
3 28 1 6
3 28.5 1.5 6
3 28.5 1 6.5
3 28 1.5 6.5
3 29 1 6
3 29.5 1.5 6
3 29.5 1 6.5
3 29 1.5 6.5
3 30 1 6
3 30.5 1.5 6
3 30.5 1 6.5
3 30 1.5 6.5
3 31 1 6
3 31.5 1.5 6
3 31.5 1 6.5
3 31 1.5 6.5
3 32 1 6
3 32.5 1.5 6
3 32.5 1 6.5
3 32 1.5 6.5
3 33 1 6
3 33.5 1.5 6
3 33.5 1 6.5
3 33 1.5 6.5
3 34 1 6
3 34.5 1.5 6
3 34.5 1 6.5
3 34 1.5 6.5
3 35 1 6
3 35.5 1.5 6
3 35.5 1 6.5
3 35 1.5 6.5
3 28 2 6
3 28.5 2.5 6
3 28.5 2 6.5
3 28 2.5 6.5
3 29 2 6
3 29.5 2.5 6
3 29.5 2 6.5
3 29 2.5 6.5
3 30 2 6
3 30.5 2.5 6
3 30.5 2 6.5
3 30 2.5 6.5
3 31 2 6
3 31.5 2.5 6
3 31.5 2 6.5
3 31 2.5 6.5
3 32 2 6
3 32.5 2.5 6
3 32.5 2 6.5
3 32 2.5 6.5
3 33 2 6
3 33.5 2.5 6
3 33.5 2 6.5
3 33 2.5 6.5
3 34 2 6
3 34.5 2.5 6
3 34.5 2 6.5
3 34 2.5 6.5
3 35 2 6
3 35.5 2.5 6
3 35.5 2 6.5
3 35 2.5 6.5
3 28 3 6
3 28.5 3.5 6
3 28.5 3 6.5
3 28 3.5 6.5
3 29 3 6
3 29.5 3.5 6
3 29.5 3 6.5
3 29 3.5 6.5
3 30 3 6
3 30.5 3.5 6
3 30.5 3 6.5
3 30 3.5 6.5
3 31 3 6
3 31.5 3.5 6
3 31.5 3 6.5
3 31 3.5 6.5
3 32 3 6
3 32.5 3.5 6
3 32.5 3 6.5
3 32 3.5 6.5
3 33 3 6
3 33.5 3.5 6
3 33.5 3 6.5
3 33 3.5 6.5
3 34 3 6
3 34.5 3.5 6
3 34.5 3 6.5
3 34 3.5 6.5
3 35 3 6
3 35.5 3.5 6
3 35.5 3 6.5
3 35 3.5 6.5
3 28 4 6
3 28.5 4.5 6
3 28.5 4 6.5
3 28 4.5 6.5
3 29 4 6
3 29.5 4.5 6
3 29.5 4 6.5
3 29 4.5 6.5
3 30 4 6
3 30.5 4.5 6
3 30.5 4 6.5
3 30 4.5 6.5
3 31 4 6
3 31.5 4.5 6
3 31.5 4 6.5
3 31 4.5 6.5
3 32 4 6
3 32.5 4.5 6
3 32.5 4 6.5
3 32 4.5 6.5
3 33 4 6
3 33.5 4.5 6
3 33.5 4 6.5
3 33 4.5 6.5
3 34 4 6
3 34.5 4.5 6
3 34.5 4 6.5
3 34 4.5 6.5
3 35 4 6
3 35.5 4.5 6
3 35.5 4 6.5
3 35 4.5 6.5
3 28 5 6
3 28.5 5.5 6
3 28.5 5 6.5
3 28 5.5 6.5
3 29 5 6
3 29.5 5.5 6
3 29.5 5 6.5
3 29 5.5 6.5
3 30 5 6
3 30.5 5.5 6
3 30.5 5 6.5
3 30 5.5 6.5
3 31 5 6
3 31.5 5.5 6
3 31.5 5 6.5
3 31 5.5 6.5
3 32 5 6
3 32.5 5.5 6
3 32.5 5 6.5
3 32 5.5 6.5
3 33 5 6
3 33.5 5.5 6
3 33.5 5 6.5
3 33 5.5 6.5
3 34 5 6
3 34.5 5.5 6
3 34.5 5 6.5
3 34 5.5 6.5
3 35 5 6
3 35.5 5.5 6
3 35.5 5 6.5
3 35 5.5 6.5
3 28 6 6
3 28.5 6.5 6
3 28.5 6 6.5
3 28 6.5 6.5
3 29 6 6
3 29.5 6.5 6
3 29.5 6 6.5
3 29 6.5 6.5
3 30 6 6
3 30.5 6.5 6
3 30.5 6 6.5
3 30 6.5 6.5
3 31 6 6
3 31.5 6.5 6
3 31.5 6 6.5
3 31 6.5 6.5
3 32 6 6
3 32.5 6.5 6
3 32.5 6 6.5
3 32 6.5 6.5
3 33 6 6
3 33.5 6.5 6
3 33.5 6 6.5
3 33 6.5 6.5
3 34 6 6
3 34.5 6.5 6
3 34.5 6 6.5
3 34 6.5 6.5
3 35 6 6
3 35.5 6.5 6
3 35.5 6 6.5
3 35 6.5 6.5
3 28 7 6
3 28.5 7.5 6
3 28.5 7 6.5
3 28 7.5 6.5
3 29 7 6
3 29.5 7.5 6
3 29.5 7 6.5
3 29 7.5 6.5
3 30 7 6
3 30.5 7.5 6
3 30.5 7 6.5
3 30 7.5 6.5
3 31 7 6
3 31.5 7.5 6
3 31.5 7 6.5
3 31 7.5 6.5
3 32 7 6
3 32.5 7.5 6
3 32.5 7 6.5
3 32 7.5 6.5
3 33 7 6
3 33.5 7.5 6
3 33.5 7 6.5
3 33 7.5 6.5
3 34 7 6
3 34.5 7.5 6
3 34.5 7 6.5
3 34 7.5 6.5
3 35 7 6
3 35.5 7.5 6
3 35.5 7 6.5
3 35 7.5 6.5
3 28 0 7
3 28.5 0.5 7
3 28.5 0 7.5
3 28 0.5 7.5
3 29 0 7
3 29.5 0.5 7
3 29.5 0 7.5
3 29 0.5 7.5
3 30 0 7
3 30.5 0.5 7
3 30.5 0 7.5
3 30 0.5 7.5
3 31 0 7
3 31.5 0.5 7
3 31.5 0 7.5
3 31 0.5 7.5
3 32 0 7
3 32.5 0.5 7
3 32.5 0 7.5
3 32 0.5 7.5
3 33 0 7
3 33.5 0.5 7
3 33.5 0 7.5
3 33 0.5 7.5
3 34 0 7
3 34.5 0.5 7
3 34.5 0 7.5
3 34 0.5 7.5
3 35 0 7
3 35.5 0.5 7
3 35.5 0 7.5
3 35 0.5 7.5
3 28 1 7
3 28.5 1.5 7
3 28.5 1 7.5
3 28 1.5 7.5
3 29 1 7
3 29.5 1.5 7
3 29.5 1 7.5
3 29 1.5 7.5
3 30 1 7
3 30.5 1.5 7
3 30.5 1 7.5
3 30 1.5 7.5
3 31 1 7
3 31.5 1.5 7
3 31.5 1 7.5
3 31 1.5 7.5
3 32 1 7
3 32.5 1.5 7
3 32.5 1 7.5
3 32 1.5 7.5
3 33 1 7
3 33.5 1.5 7
3 33.5 1 7.5
3 33 1.5 7.5
3 34 1 7
3 34.5 1.5 7
3 34.5 1 7.5
3 34 1.5 7.5
3 35 1 7
3 35.5 1.5 7
3 35.5 1 7.5
3 35 1.5 7.5
3 28 2 7
3 28.5 2.5 7
3 28.5 2 7.5
3 28 2.5 7.5
3 29 2 7
3 29.5 2.5 7
3 29.5 2 7.5
3 29 2.5 7.5
3 30 2 7
3 30.5 2.5 7
3 30.5 2 7.5
3 30 2.5 7.5
3 31 2 7
3 31.5 2.5 7
3 31.5 2 7.5
3 31 2.5 7.5
3 32 2 7
3 32.5 2.5 7
3 32.5 2 7.5
3 32 2.5 7.5
3 33 2 7
3 33.5 2.5 7
3 33.5 2 7.5
3 33 2.5 7.5
3 34 2 7
3 34.5 2.5 7
3 34.5 2 7.5
3 34 2.5 7.5
3 35 2 7
3 35.5 2.5 7
3 35.5 2 7.5
3 35 2.5 7.5
3 28 3 7
3 28.5 3.5 7
3 28.5 3 7.5
3 28 3.5 7.5
3 29 3 7
3 29.5 3.5 7
3 29.5 3 7.5
3 29 3.5 7.5
3 30 3 7
3 30.5 3.5 7
3 30.5 3 7.5
3 30 3.5 7.5
3 31 3 7
3 31.5 3.5 7
3 31.5 3 7.5
3 31 3.5 7.5
3 32 3 7
3 32.5 3.5 7
3 32.5 3 7.5
3 32 3.5 7.5
3 33 3 7
3 33.5 3.5 7
3 33.5 3 7.5
3 33 3.5 7.5
3 34 3 7
3 34.5 3.5 7
3 34.5 3 7.5
3 34 3.5 7.5
3 35 3 7
3 35.5 3.5 7
3 35.5 3 7.5
3 35 3.5 7.5
3 28 4 7
3 28.5 4.5 7
3 28.5 4 7.5
3 28 4.5 7.5
3 29 4 7
3 29.5 4.5 7
3 29.5 4 7.5
3 29 4.5 7.5
3 30 4 7
3 30.5 4.5 7
3 30.5 4 7.5
3 30 4.5 7.5
3 31 4 7
3 31.5 4.5 7
3 31.5 4 7.5
3 31 4.5 7.5
3 32 4 7
3 32.5 4.5 7
3 32.5 4 7.5
3 32 4.5 7.5
3 33 4 7
3 33.5 4.5 7
3 33.5 4 7.5
3 33 4.5 7.5
3 34 4 7
3 34.5 4.5 7
3 34.5 4 7.5
3 34 4.5 7.5
3 35 4 7
3 35.5 4.5 7
3 35.5 4 7.5
3 35 4.5 7.5
3 28 5 7
3 28.5 5.5 7
3 28.5 5 7.5
3 28 5.5 7.5
3 29 5 7
3 29.5 5.5 7
3 29.5 5 7.5
3 29 5.5 7.5
3 30 5 7
3 30.5 5.5 7
3 30.5 5 7.5
3 30 5.5 7.5
3 31 5 7
3 31.5 5.5 7
3 31.5 5 7.5
3 31 5.5 7.5
3 32 5 7
3 32.5 5.5 7
3 32.5 5 7.5
3 32 5.5 7.5
3 33 5 7
3 33.5 5.5 7
3 33.5 5 7.5
3 33 5.5 7.5
3 34 5 7
3 34.5 5.5 7
3 34.5 5 7.5
3 34 5.5 7.5
3 35 5 7
3 35.5 5.5 7
3 35.5 5 7.5
3 35 5.5 7.5
3 28 6 7
3 28.5 6.5 7
3 28.5 6 7.5
3 28 6.5 7.5
3 29 6 7
3 29.5 6.5 7
3 29.5 6 7.5
3 29 6.5 7.5
3 30 6 7
3 30.5 6.5 7
3 30.5 6 7.5
3 30 6.5 7.5
3 31 6 7
3 31.5 6.5 7
3 31.5 6 7.5
3 31 6.5 7.5
3 32 6 7
3 32.5 6.5 7
3 32.5 6 7.5
3 32 6.5 7.5
3 33 6 7
3 33.5 6.5 7
3 33.5 6 7.5
3 33 6.5 7.5
3 34 6 7
3 34.5 6.5 7
3 34.5 6 7.5
3 34 6.5 7.5
3 35 6 7
3 35.5 6.5 7
3 35.5 6 7.5
3 35 6.5 7.5
3 28 7 7
3 28.5 7.5 7
3 28.5 7 7.5
3 28 7.5 7.5
3 29 7 7
3 29.5 7.5 7
3 29.5 7 7.5
3 29 7.5 7.5
3 30 7 7
3 30.5 7.5 7
3 30.5 7 7.5
3 30 7.5 7.5
3 31 7 7
3 31.5 7.5 7
3 31.5 7 7.5
3 31 7.5 7.5
3 32 7 7
3 32.5 7.5 7
3 32.5 7 7.5
3 32 7.5 7.5
3 33 7 7
3 33.5 7.5 7
3 33.5 7 7.5
3 33 7.5 7.5
3 34 7 7
3 34.5 7.5 7
3 34.5 7 7.5
3 34 7.5 7.5
3 35 7 7
3 35.5 7.5 7
3 35.5 7 7.5
3 35 7.5 7.5
3 28 0 8
3 28.5 0.5 8
3 28.5 0 8.5
3 28 0.5 8.5
3 29 0 8
3 29.5 0.5 8
3 29.5 0 8.5
3 29 0.5 8.5
3 30 0 8
3 30.5 0.5 8
3 30.5 0 8.5
3 30 0.5 8.5
3 31 0 8
3 31.5 0.5 8
3 31.5 0 8.5
3 31 0.5 8.5
3 32 0 8
3 32.5 0.5 8
3 32.5 0 8.5
3 32 0.5 8.5
3 33 0 8
3 33.5 0.5 8
3 33.5 0 8.5
3 33 0.5 8.5
3 34 0 8
3 34.5 0.5 8
3 34.5 0 8.5
3 34 0.5 8.5
3 35 0 8
3 35.5 0.5 8
3 35.5 0 8.5
3 35 0.5 8.5
3 28 1 8
3 28.5 1.5 8
3 28.5 1 8.5
3 28 1.5 8.5
3 29 1 8
3 29.5 1.5 8
3 29.5 1 8.5
3 29 1.5 8.5
3 30 1 8
3 30.5 1.5 8
3 30.5 1 8.5
3 30 1.5 8.5
3 31 1 8
3 31.5 1.5 8
3 31.5 1 8.5
3 31 1.5 8.5
3 32 1 8
3 32.5 1.5 8
3 32.5 1 8.5
3 32 1.5 8.5
3 33 1 8
3 33.5 1.5 8
3 33.5 1 8.5
3 33 1.5 8.5
3 34 1 8
3 34.5 1.5 8
3 34.5 1 8.5
3 34 1.5 8.5
3 35 1 8
3 35.5 1.5 8
3 35.5 1 8.5
3 35 1.5 8.5
3 28 2 8
3 28.5 2.5 8
3 28.5 2 8.5
3 28 2.5 8.5
3 29 2 8
3 29.5 2.5 8
3 29.5 2 8.5
3 29 2.5 8.5
3 30 2 8
3 30.5 2.5 8
3 30.5 2 8.5
3 30 2.5 8.5
3 31 2 8
3 31.5 2.5 8
3 31.5 2 8.5
3 31 2.5 8.5
3 32 2 8
3 32.5 2.5 8
3 32.5 2 8.5
3 32 2.5 8.5
3 33 2 8
3 33.5 2.5 8
3 33.5 2 8.5
3 33 2.5 8.5
3 34 2 8
3 34.5 2.5 8
3 34.5 2 8.5
3 34 2.5 8.5
3 35 2 8
3 35.5 2.5 8
3 35.5 2 8.5
3 35 2.5 8.5
3 28 3 8
3 28.5 3.5 8
3 28.5 3 8.5
3 28 3.5 8.5
3 29 3 8
3 29.5 3.5 8
3 29.5 3 8.5
3 29 3.5 8.5
3 30 3 8
3 30.5 3.5 8
3 30.5 3 8.5
3 30 3.5 8.5
3 31 3 8
3 31.5 3.5 8
3 31.5 3 8.5
3 31 3.5 8.5
3 32 3 8
3 32.5 3.5 8
3 32.5 3 8.5
3 32 3.5 8.5
3 33 3 8
3 33.5 3.5 8
3 33.5 3 8.5
3 33 3.5 8.5
3 34 3 8
3 34.5 3.5 8
3 34.5 3 8.5
3 34 3.5 8.5
3 35 3 8
3 35.5 3.5 8
3 35.5 3 8.5
3 35 3.5 8.5
3 28 4 8
3 28.5 4.5 8
3 28.5 4 8.5
3 28 4.5 8.5
3 29 4 8
3 29.5 4.5 8
3 29.5 4 8.5
3 29 4.5 8.5
3 30 4 8
3 30.5 4.5 8
3 30.5 4 8.5
3 30 4.5 8.5
3 31 4 8
3 31.5 4.5 8
3 31.5 4 8.5
3 31 4.5 8.5
3 32 4 8
3 32.5 4.5 8
3 32.5 4 8.5
3 32 4.5 8.5
3 33 4 8
3 33.5 4.5 8
3 33.5 4 8.5
3 33 4.5 8.5
3 34 4 8
3 34.5 4.5 8
3 34.5 4 8.5
3 34 4.5 8.5
3 35 4 8
3 35.5 4.5 8
3 35.5 4 8.5
3 35 4.5 8.5
3 28 5 8
3 28.5 5.5 8
3 28.5 5 8.5
3 28 5.5 8.5
3 29 5 8
3 29.5 5.5 8
3 29.5 5 8.5
3 29 5.5 8.5
3 30 5 8
3 30.5 5.5 8
3 30.5 5 8.5
3 30 5.5 8.5
3 31 5 8
3 31.5 5.5 8
3 31.5 5 8.5
3 31 5.5 8.5
3 32 5 8
3 32.5 5.5 8
3 32.5 5 8.5
3 32 5.5 8.5
3 33 5 8
3 33.5 5.5 8
3 33.5 5 8.5
3 33 5.5 8.5
3 34 5 8
3 34.5 5.5 8
3 34.5 5 8.5
3 34 5.5 8.5
3 35 5 8
3 35.5 5.5 8
3 35.5 5 8.5
3 35 5.5 8.5
3 28 6 8
3 28.5 6.5 8
3 28.5 6 8.5
3 28 6.5 8.5
3 29 6 8
3 29.5 6.5 8
3 29.5 6 8.5
3 29 6.5 8.5
3 30 6 8
3 30.5 6.5 8
3 30.5 6 8.5
3 30 6.5 8.5
3 31 6 8
3 31.5 6.5 8
3 31.5 6 8.5
3 31 6.5 8.5
3 32 6 8
3 32.5 6.5 8
3 32.5 6 8.5
3 32 6.5 8.5
3 33 6 8
3 33.5 6.5 8
3 33.5 6 8.5
3 33 6.5 8.5
3 34 6 8
3 34.5 6.5 8
3 34.5 6 8.5
3 34 6.5 8.5
3 35 6 8
3 35.5 6.5 8
3 35.5 6 8.5
3 35 6.5 8.5
3 28 7 8
3 28.5 7.5 8
3 28.5 7 8.5
3 28 7.5 8.5
3 29 7 8
3 29.5 7.5 8
3 29.5 7 8.5
3 29 7.5 8.5
3 30 7 8
3 30.5 7.5 8
3 30.5 7 8.5
3 30 7.5 8.5
3 31 7 8
3 31.5 7.5 8
3 31.5 7 8.5
3 31 7.5 8.5
3 32 7 8
3 32.5 7.5 8
3 32.5 7 8.5
3 32 7.5 8.5
3 33 7 8
3 33.5 7.5 8
3 33.5 7 8.5
3 33 7.5 8.5
3 34 7 8
3 34.5 7.5 8
3 34.5 7 8.5
3 34 7.5 8.5
3 35 7 8
3 35.5 7.5 8
3 35.5 7 8.5
3 35 7.5 8.5
3 28 0 9
3 28.5 0.5 9
3 28.5 0 9.5
3 28 0.5 9.5
3 29 0 9
3 29.5 0.5 9
3 29.5 0 9.5
3 29 0.5 9.5
3 30 0 9
3 30.5 0.5 9
3 30.5 0 9.5
3 30 0.5 9.5
3 31 0 9
3 31.5 0.5 9
3 31.5 0 9.5
3 31 0.5 9.5
3 32 0 9
3 32.5 0.5 9
3 32.5 0 9.5
3 32 0.5 9.5
3 33 0 9
3 33.5 0.5 9
3 33.5 0 9.5
3 33 0.5 9.5
3 34 0 9
3 34.5 0.5 9
3 34.5 0 9.5
3 34 0.5 9.5
3 35 0 9
3 35.5 0.5 9
3 35.5 0 9.5
3 35 0.5 9.5
3 28 1 9
3 28.5 1.5 9
3 28.5 1 9.5
3 28 1.5 9.5
3 29 1 9
3 29.5 1.5 9
3 29.5 1 9.5
3 29 1.5 9.5
3 30 1 9
3 30.5 1.5 9
3 30.5 1 9.5
3 30 1.5 9.5
3 31 1 9
3 31.5 1.5 9
3 31.5 1 9.5
3 31 1.5 9.5
3 32 1 9
3 32.5 1.5 9
3 32.5 1 9.5
3 32 1.5 9.5
3 33 1 9
3 33.5 1.5 9
3 33.5 1 9.5
3 33 1.5 9.5
3 34 1 9
3 34.5 1.5 9
3 34.5 1 9.5
3 34 1.5 9.5
3 35 1 9
3 35.5 1.5 9
3 35.5 1 9.5
3 35 1.5 9.5
3 28 2 9
3 28.5 2.5 9
3 28.5 2 9.5
3 28 2.5 9.5
3 29 2 9
3 29.5 2.5 9
3 29.5 2 9.5
3 29 2.5 9.5
3 30 2 9
3 30.5 2.5 9
3 30.5 2 9.5
3 30 2.5 9.5
3 31 2 9
3 31.5 2.5 9
3 31.5 2 9.5
3 31 2.5 9.5
3 32 2 9
3 32.5 2.5 9
3 32.5 2 9.5
3 32 2.5 9.5
3 33 2 9
3 33.5 2.5 9
3 33.5 2 9.5
3 33 2.5 9.5
3 34 2 9
3 34.5 2.5 9
3 34.5 2 9.5
3 34 2.5 9.5
3 35 2 9
3 35.5 2.5 9
3 35.5 2 9.5
3 35 2.5 9.5
3 28 3 9
3 28.5 3.5 9
3 28.5 3 9.5
3 28 3.5 9.5
3 29 3 9
3 29.5 3.5 9
3 29.5 3 9.5
3 29 3.5 9.5
3 30 3 9
3 30.5 3.5 9
3 30.5 3 9.5
3 30 3.5 9.5
3 31 3 9
3 31.5 3.5 9
3 31.5 3 9.5
3 31 3.5 9.5
3 32 3 9
3 32.5 3.5 9
3 32.5 3 9.5
3 32 3.5 9.5
3 33 3 9
3 33.5 3.5 9
3 33.5 3 9.5
3 33 3.5 9.5
3 34 3 9
3 34.5 3.5 9
3 34.5 3 9.5
3 34 3.5 9.5
3 35 3 9
3 35.5 3.5 9
3 35.5 3 9.5
3 35 3.5 9.5
3 28 4 9
3 28.5 4.5 9
3 28.5 4 9.5
3 28 4.5 9.5
3 29 4 9
3 29.5 4.5 9
3 29.5 4 9.5
3 29 4.5 9.5
3 30 4 9
3 30.5 4.5 9
3 30.5 4 9.5
3 30 4.5 9.5
3 31 4 9
3 31.5 4.5 9
3 31.5 4 9.5
3 31 4.5 9.5
3 32 4 9
3 32.5 4.5 9
3 32.5 4 9.5
3 32 4.5 9.5
3 33 4 9
3 33.5 4.5 9
3 33.5 4 9.5
3 33 4.5 9.5
3 34 4 9
3 34.5 4.5 9
3 34.5 4 9.5
3 34 4.5 9.5
3 35 4 9
3 35.5 4.5 9
3 35.5 4 9.5
3 35 4.5 9.5
3 28 5 9
3 28.5 5.5 9
3 28.5 5 9.5
3 28 5.5 9.5
3 29 5 9
3 29.5 5.5 9
3 29.5 5 9.5
3 29 5.5 9.5
3 30 5 9
3 30.5 5.5 9
3 30.5 5 9.5
3 30 5.5 9.5
3 31 5 9
3 31.5 5.5 9
3 31.5 5 9.5
3 31 5.5 9.5
3 32 5 9
3 32.5 5.5 9
3 32.5 5 9.5
3 32 5.5 9.5
3 33 5 9
3 33.5 5.5 9
3 33.5 5 9.5
3 33 5.5 9.5
3 34 5 9
3 34.5 5.5 9
3 34.5 5 9.5
3 34 5.5 9.5
3 35 5 9
3 35.5 5.5 9
3 35.5 5 9.5
3 35 5.5 9.5
3 28 6 9
3 28.5 6.5 9