LAMMPS data file via write_data, version 5 Nov 2016, timestep = 10000

500 atoms
1 atom types

1.2241895764161672e+00 2.3775810423583533e+01 xlo xhi
1.2241895764161672e+00 2.3775810423583533e+01 ylo yhi
1.2241895764161672e+00 2.3775810423583533e+01 zlo zhi

Masses

1 62.5

Pair Coeffs # lj/cut

1 1.1 2.8

Atoms # full

8 0 1 0.0000000000000000e+00 2.2367351778863620e+00 4.3397812343410447e+00 2.1026801897226846e+00 0 0 0
107 0 1 0.0000000000000000e+00 3.8592368755011521e+00 2.5203497926882878e+00 4.4809160539222912e+00 0 0 0
86 0 1 0.0000000000000000e+00 4.8070031995581113e+00 1.9150815957483038e+00 1.5925658928688478e+00 0 1 0
7 0 1 0.0000000000000000e+00 1.9104993755548345e+00 2.3692309420940195e+01 2.3506848367864830e+00 0 -1 0
185 0 1 0.0000000000000000e+00 6.6596939759489651e+00 3.3402850144619070e+00 3.8972460879794224e+00 0 1 0
186 0 1 0.0000000000000000e+00 7.8080813886336724e+00 1.6054277745707473e+00 1.6708895453563164e+00 0 1 0
412 0 1 0.0000000000000000e+00 8.3829537565436070e+00 4.4614668403626760e+00 1.7320402379993904e+00 0 0 1
109 0 1 0.0000000000000000e+00 9.7871569948118982e+00 3.0376060151568387e+00 3.9618233427606286e+00 0 0 0
31 0 1 0.0000000000000000e+00 1.1662036730416872e+01 3.8507404018157487e+00 1.7848263324390086e+00 0 0 0
111 0 1 0.0000000000000000e+00 1.2826410178884048e+01 2.4885325784657146e+00 4.2049807265779471e+00 0 0 0
420 0 1 0.0000000000000000e+00 1.6133145988874297e+01 2.3461605116751829e+00 4.0543325184973327e+00 0 0 1
18 0 1 0.0000000000000000e+00 1.8502977453171610e+01 3.5825362220473158e+00 2.0643998741004825e+00 0 0 0
117 0 1 0.0000000000000000e+00 1.9522308682374671e+01 2.0944485946496076e+00 4.3510180336658273e+00 0 0 0
1 0 1 0.0000000000000000e+00 2.2195483081078287e+01 3.1399853552193022e+00 3.3896735435649319e+00 -1 0 0
22 0 1 0.0000000000000000e+00 2.7073393630466600e+00 8.5923801459113527e+00 1.6154184276564620e+00 0 0 0
28 0 1 0.0000000000000000e+00 4.3198668591574165e+00 5.5821417178931121e+00 4.7736841106055117e+00 0 0 0
27 0 1 0.0000000000000000e+00 7.0690034141193543e+00 6.5760982900986553e+00 3.7062378136710401e+00 0 0 0
26 0 1 0.0000000000000000e+00 5.7414194750208036e+00 8.1452322748441475e+00 1.3574007707144053e+00 0 0 0
25 0 1 0.0000000000000000e+00 5.1938616265341837e+00 4.9537734920985450e+00 1.4778678218983465e+00 0 0 0
447 0 1 0.0000000000000000e+00 8.9257948012734669e+00 7.7759159461764931e+00 1.6257687951987028e+00 0 0 1
11 0 1 0.0000000000000000e+00 1.0156977016349282e+01 6.1660299437112114e+00 3.8535777839602181e+00 0 0 0
432 0 1 0.0000000000000000e+00 1.2159342164703197e+01 6.8553314897324578e+00 1.5523549893385256e+00 0 0 1
116 0 1 0.0000000000000000e+00 1.3398284496002775e+01 5.8228279427533058e+00 4.0205762183013647e+00 0 0 0
130 0 1 0.0000000000000000e+00 1.5256608689875710e+01 7.5401188614284393e+00 1.2911104291614990e+00 0 0 0
114 0 1 0.0000000000000000e+00 1.6477595950349141e+01 5.6598011887856172e+00 3.3226218479197729e+00 0 0 0
35 0 1 0.0000000000000000e+00 1.8907749880821655e+01 7.1802044231377362e+00 2.2399458508028722e+00 0 0 0
34 0 1 0.0000000000000000e+00 1.9957769966273517e+01 5.3858151390081686e+00 4.4628301333205496e+00 0 0 0
39 0 1 0.0000000000000000e+00 2.2940759804964529e+01 6.4121708088683862e+00 3.5989680083445728e+00 0 0 0
44 0 1 0.0000000000000000e+00 2.1781970090489928e+01 8.5778550857256874e+00 1.6495377124369159e+00 -1 0 0
57 0 1 0.0000000000000000e+00 2.0663715549292398e+01 8.4758110478874116e+00 4.6225794062956149e+00 0 0 0
316 0 1 0.0000000000000000e+00 2.1312801192477153e+01 5.3556848600347049e+00 1.3975476108473202e+00 0 0 1
41 0 1 0.0000000000000000e+00 4.2067915958608140e+00 1.0465861152950742e+01 3.5041474453799286e+00 0 0 0
79 0 1 0.0000000000000000e+00 3.0095461820614196e+00 1.1985927949171982e+01 1.4284766289257931e+00 1 0 0
45 0 1 0.0000000000000000e+00 7.2379929867655690e+00 9.7297812821570915e+00 3.6642218730850384e+00 0 0 0
46 0 1 0.0000000000000000e+00 6.1019173466248580e+00 1.1325771282780750e+01 1.2407025840222992e+00 0 0 0
146 0 1 0.0000000000000000e+00 1.0571132329018893e+01 9.3786967293094747e+00 3.4448729661039623e+00 0 0 0
153 0 1 0.0000000000000000e+00 9.3086355649316292e+00 1.1011590577221536e+01 1.2920396375179124e+00 0 0 0
149 0 1 0.0000000000000000e+00 1.2275798518744221e+01 1.1150420441353843e+01 2.3690015381901926e+01 0 0 -1
150 0 1 0.0000000000000000e+00 1.3647945901568880e+01 9.0164514013433923e+00 3.6538288588737289e+00 0 0 0
71 0 1 0.0000000000000000e+00 1.4022691306131367e+01 1.2271472637335892e+01 3.5404249436459434e+00 0 0 0
156 0 1 0.0000000000000000e+00 1.5704741281971289e+01 1.0557858959097414e+01 1.4915127104638419e+00 0 0 0
134 0 1 0.0000000000000000e+00 1.6788203073110992e+01 8.6179377819643523e+00 3.8605848392352038e+00 0 0 0
354 0 1 0.0000000000000000e+00 1.7155591102396230e+01 1.1884334296189055e+01 3.6979169763404522e+00 0 0 1
78 0 1 0.0000000000000000e+00 1.9447626023192072e+01 1.0200320157050690e+01 2.5997899714981676e+00 0 0 0
24 0 1 0.0000000000000000e+00 2.3543725718913819e+01 9.7060515411947019e+00 3.8209769107212872e+00 -1 0 0
62 0 1 0.0000000000000000e+00 2.2037427544712493e+01 1.1390980595723907e+01 1.8485060676711826e+00 -1 0 0
43 0 1 0.0000000000000000e+00 1.4905598981616575e+00 1.2560005189499245e+01 4.1669606806262802e+00 0 0 0
158 0 1 0.0000000000000000e+00 2.1240405628628043e+00 1.5723635704642700e+01 4.4243118688233913e+00 1 0 0
42 0 1 0.0000000000000000e+00 4.6368851172401886e+00 1.3536747489999728e+01 3.5515631084556230e+00 0 0 0
52 0 1 0.0000000000000000e+00 7.6172204362379876e+00 1.2852375405278300e+01 3.3490301469826127e+00 0 0 0
65 0 1 0.0000000000000000e+00 6.3117723709170059e+00 1.4866474355561438e+01 1.3103758765783242e+00 0 0 0
170 0 1 0.0000000000000000e+00 7.9703195739872292e+00 1.5943349127042573e+01 3.8176592027448999e+00 0 0 0
73 0 1 0.0000000000000000e+00 1.0733644011421362e+01 1.2367048235645335e+01 3.6980542169495738e+00 0 0 0
72 0 1 0.0000000000000000e+00 9.5049459018656215e+00 1.4437790668606876e+01 1.4408902405150243e+00 0 0 0
91 0 1 0.0000000000000000e+00 1.1161893632067047e+01 1.5551349408896334e+01 3.6849999298961351e+00 0 0 0
76 0 1 0.0000000000000000e+00 1.2584136621124655e+01 1.4604625583876187e+01 2.3506829592943035e+01 0 0 -1
174 0 1 0.0000000000000000e+00 1.4437776174460291e+01 1.5093329312610461e+01 3.5138806639120221e+00 0 0 0
77 0 1 0.0000000000000000e+00 1.6110459228771308e+01 1.3875174684268488e+01 1.3883713026600113e+00 0 0 0
75 0 1 0.0000000000000000e+00 1.7631220327760666e+01 1.5066721679344980e+01 4.0823779931218223e+00 0 0 0
59 0 1 0.0000000000000000e+00 1.9813133236669145e+01 1.3431180669759735e+01 2.8499261142075412e+00 0 0 0
63 0 1 0.0000000000000000e+00 2.2866117225239492e+01 1.4421694425813289e+01 2.1401313888535984e+00 -1 0 0
181 0 1 0.0000000000000000e+00 2.4256900952119080e+00 1.8738734034519815e+01 4.6604618616102300e+00 0 0 0
484 0 1 0.0000000000000000e+00 3.5098100609197744e+00 1.8570025596277759e+01 1.4659531019827150e+00 0 0 1
162 0 1 0.0000000000000000e+00 4.7369419113963431e+00 1.6561769843355265e+01 3.7621139600418121e+00 0 0 0
64 0 1 0.0000000000000000e+00 5.1701243994629742e+00 1.9725770630123314e+01 3.7673964657892842e+00 0 0 0
142 0 1 0.0000000000000000e+00 6.6140298785609737e+00 1.7986430238060990e+01 1.5217772340774411e+00 0 0 0
83 0 1 0.0000000000000000e+00 8.4089941915310451e+00 1.9094412509169068e+01 4.0089719185229242e+00 0 0 0
70 0 1 0.0000000000000000e+00 1.1644480199279741e+01 1.8862936234132810e+01 3.7907053102889665e+00 0 0 0
69 0 1 0.0000000000000000e+00 9.6937688054146456e+00 1.7544299870508539e+01 1.5871238512287320e+00 0 0 0
214 0 1 0.0000000000000000e+00 1.5021179322202071e+01 1.8348994386283529e+01 3.9023104474410326e+00 0 -1 0
475 0 1 0.0000000000000000e+00 1.6546281524119657e+01 1.6821050501330202e+01 1.9446247514342243e+00 0 0 1
197 0 1 0.0000000000000000e+00 1.8233834838282640e+01 1.8262067218244205e+01 3.8568629428285557e+00 0 0 0
74 0 1 0.0000000000000000e+00 2.0452383794790890e+01 1.6075459838899068e+01 3.0243293158725857e+00 0 0 0
161 0 1 0.0000000000000000e+00 2.3300059929774747e+01 1.7793791592955486e+01 2.0660099490439228e+00 -1 0 0
496 0 1 0.0000000000000000e+00 2.0905002211911373e+01 1.9628010687222762e+01 3.2398690437707551e+00 0 0 1
102 0 1 0.0000000000000000e+00 3.0296418972008095e+00 2.1630114255489573e+01 4.6656829208725519e+00 0 -1 0
5 0 1 0.0000000000000000e+00 4.1050629767183562e+00 2.1620235639271769e+01 1.5815554171706458e+00 0 -1 0
82 0 1 0.0000000000000000e+00 2.3703287559640522e+01 2.0868183405173262e+01 1.8311974953895049e+00 -1 0 0
88 0 1 0.0000000000000000e+00 5.8205684928035106e+00 2.2741329530783894e+01 3.8553109685038534e+00 0 0 0
66 0 1 0.0000000000000000e+00 7.1147895719606966e+00 2.0969038826966361e+01 1.4141916064525695e+00 0 0 0
10 0 1 0.0000000000000000e+00 1.0950773363830070e+01 2.3467404402785398e+01 1.5406281899854875e+00 0 -1 0
67 0 1 0.0000000000000000e+00 9.1805665504012577e+00 2.2414127328785057e+01 3.9608809745081666e+00 0 0 0
472 0 1 0.0000000000000000e+00 1.0175393544686795e+01 2.0576805907504820e+01 1.7816752251812624e+00 0 0 1
13 0 1 0.0000000000000000e+00 1.2131582001343034e+01 2.1936272809988793e+01 3.9431243369924762e+00 0 -1 0
94 0 1 0.0000000000000000e+00 1.5492400310179690e+01 2.1512990777991298e+01 3.9975325608588603e+00 0 0 0
490 0 1 0.0000000000000000e+00 1.6927300977326464e+01 2.0031729502384238e+01 1.8883724180632901e+00 0 0 1
500 0 1 0.0000000000000000e+00 1.7521982692663151e+01 2.2978826286703672e+01 1.9299190953999761e+00 0 0 1
100 0 1 0.0000000000000000e+00 1.8615252890601511e+01 2.1283026729513630e+01 4.0586832274525246e+00 0 0 0
419 0 1 0.0000000000000000e+00 2.1360046907396232e+01 2.2773956501153712e+01 3.1067962754928713e+00 0 -1 1
19 0 1 0.0000000000000000e+00 2.7183291353913197e+00 2.5149739986367416e+00 7.5487755697730705e+00 1 0 0
101 0 1 0.0000000000000000e+00 1.4930581304661033e+00 4.6313433944047739e+00 5.6306691003382463e+00 0 0 0
125 0 1 0.0000000000000000e+00 5.6996619256973569e+00 3.7621244246227721e+00 6.7721936299910173e+00 0 0 0
87 0 1 0.0000000000000000e+00 7.7478547291014106e+00 1.7540439837594306e+00 6.1101925500926351e+00 0 1 0
105 0 1 0.0000000000000000e+00 8.4256702953952889e+00 4.8403377456454999e+00 6.0500373224077295e+00 0 0 0
110 0 1 0.0000000000000000e+00 1.1359984541984348e+01 4.2872067037929646e+00 6.1126569216869031e+00 0 0 0
192 0 1 0.0000000000000000e+00 9.5331614637814219e+00 2.8127474959498660e+00 8.3922405757302379e+00 0 1 0
191 0 1 0.0000000000000000e+00 1.0876208091639096e+01 2.3489281240158352e+01 6.1557818382493350e+00 0 0 0
209 0 1 0.0000000000000000e+00 1.2703222426081689e+01 2.4638552041770829e+00 8.2610496872087218e+00 0 0 0
115 0 1 0.0000000000000000e+00 1.5884796517797218e+01 2.2939507396826930e+00 8.2067237121908967e+00 0 0 0
120 0 1 0.0000000000000000e+00 1.4638182500859903e+01 3.9794207466717961e+00 6.1619310276620549e+00 0 0 0
113 0 1 0.0000000000000000e+00 1.7909766822388825e+01 3.6409843558899118e+00 6.1966685271216848e+00 0 0 0
217 0 1 0.0000000000000000e+00 1.9342803354398470e+01 1.7229974251689459e+00 8.5599882640541338e+00 0 0 0
194 0 1 0.0000000000000000e+00 1.9746482406244965e+01 5.0163913020036066e+00 8.1834489950545084e+00 0 1 0
237 0 1 0.0000000000000000e+00 2.1232234181461003e+01 3.1958104027295349e+00 6.3159628740693670e+00 0 0 0
4 0 1 0.0000000000000000e+00 2.2927700136931065e+01 4.4396839906808232e+00 8.6158049248741282e+00 -1 0 0
301 0 1 0.0000000000000000e+00 2.2300428092545438e+01 2.3613549949462520e+01 8.5457032965555246e+00 -1 -1 0
2 0 1 0.0000000000000000e+00 2.3351550086702623e+01 2.3662377829195599e+01 5.4900429728801887e+00 -1 -1 0
38 0 1 0.0000000000000000e+00 2.3397482943693757e+00 7.6078326756036407e+00 5.8737970148571881e+00 1 0 0
106 0 1 0.0000000000000000e+00 3.2649246049283325e+00 5.6973815151622844e+00 8.1125820424431048e+00 0 0 0
122 0 1 0.0000000000000000e+00 4.1920991271913461e+00 8.8057716470737333e+00 8.2038658955882902e+00 0 0 0
32 0 1 0.0000000000000000e+00 5.3822932104298440e+00 8.3277885351363707e+00 5.3672599913233396e+00 0 0 0
108 0 1 0.0000000000000000e+00 6.4919881223553677e+00 6.8488440404593645e+00 7.4552980662562636e+00 0 0 0
131 0 1 0.0000000000000000e+00 8.8079708494902231e+00 8.0104576735253037e+00 5.8673149148367676e+00 0 0 0
151 0 1 0.0000000000000000e+00 1.1833701136014042e+01 7.5336563217614660e+00 5.9980653487159392e+00 0 0 0
232 0 1 0.0000000000000000e+00 1.0159289653691792e+01 6.1047742799331166e+00 8.3117114336400117e+00 0 0 0
135 0 1 0.0000000000000000e+00 1.4873324058511550e+01 7.2670442769031593e+00 6.1416863242816664e+00 0 0 0
112 0 1 0.0000000000000000e+00 1.3159993317943018e+01 5.6400763348990886e+00 8.4636748268835831e+00 0 0 0
139 0 1 0.0000000000000000e+00 1.7782771507485855e+01 6.7417456959062116e+00 6.0835327921663591e+00 0 0 0
136 0 1 0.0000000000000000e+00 1.6837041570194756e+01 8.6224743923349045e+00 8.2697554737858674e+00 0 0 0
233 0 1 0.0000000000000000e+00 1.6186474443369910e+01 5.2790095839991897e+00 8.3242092702420010e+00 0 0 0
118 0 1 0.0000000000000000e+00 1.9859767787161481e+01 8.3063628670108880e+00 8.3400279734588665e+00 0 0 0
37 0 1 0.0000000000000000e+00 2.1897824133670937e+01 6.4219860288758381e+00 6.6862358698411386e+00 0 0 0
23 0 1 0.0000000000000000e+00 2.7603818167236827e+00 1.0815127136156901e+01 6.1629100030640505e+00 0 0 0
141 0 1 0.0000000000000000e+00 4.6144569037367908e+00 1.1977197318006805e+01 8.5718695975012835e+00 0 0 0
132 0 1 0.0000000000000000e+00 7.1399760799927900e+00 9.6951679383606226e+00 7.5766745988686353e+00 0 0 0
148 0 1 0.0000000000000000e+00 5.6776175969344091e+00 1.1518495761338709e+01 5.8330560497569852e+00 0 0 0
126 0 1 0.0000000000000000e+00 8.9644779001455781e+00 1.1185480734727138e+01 5.9034223500172915e+00 0 0 0
147 0 1 0.0000000000000000e+00 1.0733647203669321e+01 9.3649143202502163e+00 8.3109390067801403e+00 0 0 0
152 0 1 0.0000000000000000e+00 1.2362208002565069e+01 1.0612234121161945e+01 5.8017131097650001e+00 0 0 0
230 0 1 0.0000000000000000e+00 1.3611226166435964e+01 9.0098167544563452e+00 8.2673507798272787e+00 0 0 0
173 0 1 0.0000000000000000e+00 1.5463012826125500e+01 1.0532974307504498e+01 5.8437535319719958e+00 0 0 0
196 0 1 0.0000000000000000e+00 1.3976283759595093e+01 1.2041868499573985e+01 8.4028213690747702e+00 0 0 0
137 0 1 0.0000000000000000e+00 1.8427726770108144e+01 9.8757618133182614e+00 6.1255774208109308e+00 0 0 0
179 0 1 0.0000000000000000e+00 1.7493172737442464e+01 1.1761848019255334e+01 8.2772974587814581e+00 0 0 0
60 0 1 0.0000000000000000e+00 2.1116066909596981e+01 1.1375786373898160e+01 5.1541773039274688e+00 0 0 0
157 0 1 0.0000000000000000e+00 2.2623870885280908e+01 9.5070754125350572e+00 7.0027516865798880e+00 0 0 0
273 0 1 0.0000000000000000e+00 2.0567835326321855e+01 1.1278516337286726e+01 8.2153436280933505e+00 0 0 0
163 0 1 0.0000000000000000e+00 2.3060017979860987e+01 1.2554946879385733e+01 7.2250133460460013e+00 -1 0 0
143 0 1 0.0000000000000000e+00 3.2886908789793199e+00 1.3755807244672802e+01 6.3276495519989844e+00 0 0 0
48 0 1 0.0000000000000000e+00 6.1974116048857120e+00 1.4869937034126693e+01 5.8327185489755546e+00 0 0 0
263 0 1 0.0000000000000000e+00 7.3905346345820355e+00 1.3075740672555472e+01 8.0294162797173758e+00 0 0 0
249 0 1 0.0000000000000000e+00 1.0816010406507326e+01 1.2459330722909714e+01 8.1875619376552535e+00 0 0 0
172 0 1 0.0000000000000000e+00 9.4632401168736173e+00 1.4339013951728054e+01 5.7524360100715120e+00 0 0 0
246 0 1 0.0000000000000000e+00 1.1445937728138391e+01 1.5597061867043584e+01 8.3521092508745767e+00 0 0 0
250 0 1 0.0000000000000000e+00 1.2356744711383124e+01 1.3730502486498956e+01 6.0094850364126415e+00 0 0 0
278 0 1 0.0000000000000000e+00 1.4335479823611502e+01 1.5275803206482106e+01 8.3427341204894852e+00 0 0 0
40 0 1 0.0000000000000000e+00 1.5569932166060720e+01 1.3718689267578334e+01 6.0688082418431710e+00 0 0 0
138 0 1 0.0000000000000000e+00 1.9011157610276264e+01 1.3124941168738411e+01 6.0708061827500597e+00 0 0 0
277 0 1 0.0000000000000000e+00 1.7771902440300295e+01 1.4795521599646776e+01 8.5473614059089442e+00 0 0 0
99 0 1 0.0000000000000000e+00 2.3600040285071621e+01 1.5906128496653148e+01 7.4975664660630290e+00 0 0 0
154 0 1 0.0000000000000000e+00 2.1956797301224960e+01 1.4563771906574297e+01 5.1979375201773443e+00 0 0 0
140 0 1 0.0000000000000000e+00 2.0990727263069964e+01 1.4626012162656640e+01 8.2675064009518469e+00 0 0 0
68 0 1 0.0000000000000000e+00 3.9571539548331933e+00 1.7018572496119766e+01 6.7071084669003609e+00 0 0 0
164 0 1 0.0000000000000000e+00 1.5553760037547903e+00 1.8860437670113186e+01 7.5721282113381019e+00 0 0 0
168 0 1 0.0000000000000000e+00 8.0735351311497858e+00 1.6333829166864547e+01 8.0950076155473418e+00 0 0 0
165 0 1 0.0000000000000000e+00 6.6340335170684117e+00 1.7961634798422374e+01 6.0396569212922060e+00 0 0 0
266 0 1 0.0000000000000000e+00 8.4783915578095019e+00 1.9292582519931599e+01 8.1843708166603477e+00 0 0 0
269 0 1 0.0000000000000000e+00 1.0005722473535037e+01 1.7434946337876831e+01 6.0369732784277597e+00 0 0 0
270 0 1 0.0000000000000000e+00 1.1656863109039321e+01 1.8937956858641591e+01 8.3190532225887495e+00 0 0 0
176 0 1 0.0000000000000000e+00 1.2993956906248259e+01 1.6833782158177044e+01 5.8167455229951415e+00 0 0 0
291 0 1 0.0000000000000000e+00 1.4981956224849389e+01 1.8669046408908734e+01 8.2944042523373973e+00 0 0 0
293 0 1 0.0000000000000000e+00 1.6300258615124996e+01 1.6626594813511872e+01 6.1725421171059649e+00 0 0 0
80 0 1 0.0000000000000000e+00 1.9582677237868253e+01 1.6336468813672077e+01 6.1164939903443676e+00 0 0 0
95 0 1 0.0000000000000000e+00 1.8206755195736633e+01 1.7883194171139451e+01 8.4531694235547690e+00 0 0 0
190 0 1 0.0000000000000000e+00 1.6545844491892666e+01 1.9642342417438130e+01 6.1335747596720802e+00 0 0 0
198 0 1 0.0000000000000000e+00 1.9988128595493308e+01 1.9475771135974391e+01 6.2511853410032518e+00 0 0 0
98 0 1 0.0000000000000000e+00 2.2236876368766374e+01 1.7419106517816360e+01 5.1734091332843883e+00 0 0 0
180 0 1 0.0000000000000000e+00 2.1322778508450895e+01 1.7707383587838699e+01 8.2604700250779217e+00 0 0 0
166 0 1 0.0000000000000000e+00 4.3404636012374267e+00 2.0064435435136389e+01 6.9931871509871879e+00 0 0 0
298 0 1 0.0000000000000000e+00 2.0424560054754339e+00 2.1885139153171153e+01 7.6795337302919693e+00 1 0 0
103 0 1 0.0000000000000000e+00 4.9055736282730296e+00 2.3222161485144277e+01 6.6359013611197843e+00 0 -1 0
169 0 1 0.0000000000000000e+00 7.3389040080857040e+00 2.1239615586893123e+01 6.1316527654991821e+00 0 0 0
189 0 1 0.0000000000000000e+00 1.0418077274933015e+01 2.0547184958698253e+01 5.8661192156967363e+00 0 0 0
286 0 1 0.0000000000000000e+00 9.1897256417785709e+00 2.2431701105779524e+01 8.2448530919376672e+00 0 0 0
292 0 1 0.0000000000000000e+00 1.2396137131996433e+01 2.1967046810381106e+01 8.1284436474063462e+00 0 0 0
193 0 1 0.0000000000000000e+00 1.3433411070557469e+01 2.0075648495296875e+01 5.8910337783469444e+00 0 0 0
96 0 1 0.0000000000000000e+00 1.4290632729504575e+01 2.3502583423939306e+01 6.1091351270253336e+00 0 0 0
17 0 1 0.0000000000000000e+00 1.5564641615050308e+01 2.1495817540242975e+01 8.3383234215733619e+00 0 -1 0
200 0 1 0.0000000000000000e+00 1.7376681056359566e+01 2.3068258877071692e+01 6.2292780687341534e+00 0 0 0
199 0 1 0.0000000000000000e+00 1.8700193165269610e+01 2.1021857418944826e+01 8.6010708295701335e+00 0 0 0
84 0 1 0.0000000000000000e+00 2.2786029606067594e+01 2.0738703347408951e+01 5.3113391700228441e+00 -1 0 0
182 0 1 0.0000000000000000e+00 2.0450238117908953e+01 2.2471373690444096e+01 6.2155927406688960e+00 -1 0 0
381 0 1 0.0000000000000000e+00 2.1878670608697711e+01 2.0546380033356193e+01 8.4573016666275969e+00 -1 0 0
124 0 1 0.0000000000000000e+00 4.5817983348446631e+00 3.7539289085527763e+00 9.8325268072853085e+00 0 0 0
218 0 1 0.0000000000000000e+00 1.7449415436469269e+00 2.6588785045134706e+00 1.0625159969996719e+01 1 0 0
187 0 1 0.0000000000000000e+00 6.8881326094987205e+00 1.7208041942655377e+00 9.0634080095311873e+00 0 1 0
203 0 1 0.0000000000000000e+00 5.6741365050535109e+00 1.9391612229124058e+00 1.1877772818173790e+01 0 0 0
206 0 1 0.0000000000000000e+00 7.3384282592340533e+00 4.6779200699874650e+00 9.5271513814357309e+00 0 0 0
188 0 1 0.0000000000000000e+00 8.7122888408020156e+00 2.9997991542419387e+00 1.1337557226650581e+01 0 1 0
227 0 1 0.0000000000000000e+00 1.1365464508686326e+01 4.5857298709082173e+00 1.0487613423133739e+01 0 0 0
211 0 1 0.0000000000000000e+00 1.4642972512053262e+01 3.9018027187403663e+00 1.0557889250175222e+01 0 0 0
334 0 1 0.0000000000000000e+00 1.7647204911753548e+01 3.5458738739392750e+00 1.0502971460019396e+01 0 0 0
119 0 1 0.0000000000000000e+00 2.0994085465621517e+01 3.0406126560357758e+00 1.0579922987286961e+01 0 0 0
224 0 1 0.0000000000000000e+00 2.2658062231323708e+00 5.5297381161373078e+00 1.0893006775456504e+01 0 0 0
225 0 1 0.0000000000000000e+00 5.3029146849557405e+00 6.8809354468758404e+00 1.0486576958824839e+01 0 0 0
204 0 1 0.0000000000000000e+00 6.3633850701473200e+00 4.7852753293934729e+00 1.2295707584185163e+01 0 0 0
129 0 1 0.0000000000000000e+00 7.9918315498641821e+00 8.0283651727266907e+00 9.7867100443921480e+00 0 0 0
228 0 1 0.0000000000000000e+00 9.0962414664539288e+00 6.1730255484291332e+00 1.1850262574458140e+01 0 0 0
229 0 1 0.0000000000000000e+00 1.1780814580695358e+01 7.5656028827037956e+00 1.0619809875330487e+01 0 0 0
235 0 1 0.0000000000000000e+00 1.4819015387871127e+01 7.2095274544688790e+00 1.0464414586058671e+01 0 0 0
240 0 1 0.0000000000000000e+00 1.8124714571258565e+01 6.7517480082688959e+00 1.0316994867150543e+01 0 0 0
221 0 1 0.0000000000000000e+00 1.2242648887458358e+00 7.5757109714029305e+00 8.9819675995906127e+00 0 0 0
20 0 1 0.0000000000000000e+00 2.1499055010836770e+01 6.4682591466732031e+00 1.0450794248475654e+01 0 0 0
241 0 1 0.0000000000000000e+00 2.7211668472554607e+00 8.7090399512347538e+00 1.1181642964224318e+01 0 0 0
121 0 1 0.0000000000000000e+00 1.7907010997823409e+00 1.0664187268496665e+01 9.2817940281738309e+00 0 0 0
145 0 1 0.0000000000000000e+00 3.6937216829741257e+00 1.2004558058321768e+01 1.1440349934082343e+01 0 0 0
128 0 1 0.0000000000000000e+00 5.8422694927221874e+00 1.0063215738310490e+01 1.0563226243616272e+01 0 0 0
47 0 1 0.0000000000000000e+00 8.6603062372441677e+00 1.1079613193627100e+01 9.9265873919385257e+00 0 0 0
226 0 1 0.0000000000000000e+00 9.5479001520889177e+00 9.4343159134793346e+00 1.2185010275256216e+01 0 0 0
231 0 1 0.0000000000000000e+00 1.2127113181186177e+01 1.0483576383993872e+01 1.0699826979832412e+01 0 0 0
234 0 1 0.0000000000000000e+00 1.5270897775076518e+01 1.0215322462580259e+01 1.0797500114240792e+01 0 0 0
238 0 1 0.0000000000000000e+00 1.8612251531182089e+01 9.9935520959521522e+00 1.0730476814732064e+01 0 0 0
123 0 1 0.0000000000000000e+00 2.1652513387563005e+01 9.5775873765909676e+00 1.0502047914683372e+01 -1 0 0
159 0 1 0.0000000000000000e+00 2.2228510955781005e+01 1.2629864135073081e+01 1.0567238802535547e+01 0 0 0
261 0 1 0.0000000000000000e+00 2.2745403874271464e+00 1.3806765344773384e+01 9.3219211675770204e+00 0 0 0
144 0 1 0.0000000000000000e+00 4.1492192198390523e+00 1.4983678068831281e+01 1.1704620349178107e+01 0 0 0
258 0 1 0.0000000000000000e+00 5.3805335828089866e+00 1.5093035563829865e+01 8.7134966192076941e+00 1 0 0
252 0 1 0.0000000000000000e+00 6.3552922499465812e+00 1.3287192873896931e+01 1.0924476564500019e+01 0 0 0
285 0 1 0.0000000000000000e+00 7.0220907373380212e+00 1.6329710716490446e+01 1.1076814754075762e+01 0 0 0
265 0 1 0.0000000000000000e+00 1.0534774955543348e+01 1.2552954165598841e+01 1.2265570870113777e+01 0 0 0
167 0 1 0.0000000000000000e+00 9.1970654333819581e+00 1.4183184606363602e+01 1.0091929461571766e+01 0 0 0
393 0 1 0.0000000000000000e+00 1.0899971182133037e+01 1.5725944581243636e+01 1.2330722966147599e+01 0 0 0
171 0 1 0.0000000000000000e+00 1.2919425610219212e+01 1.3944707690921051e+01 1.0614340674372389e+01 0 0 0
160 0 1 0.0000000000000000e+00 1.6129423426237430e+01 1.3276132159253219e+01 1.0538799139202288e+01 0 0 0
155 0 1 0.0000000000000000e+00 1.9091840870901258e+01 1.3026033064968519e+01 1.0700898471805548e+01 0 0 0
378 0 1 0.0000000000000000e+00 1.9475024643374155e+01 1.6057454267678452e+01 1.0739468980400082e+01 0 0 0
283 0 1 0.0000000000000000e+00 2.2662910036835235e+01 1.5695237264887465e+01 1.0757723874296397e+01 -1 0 0
264 0 1 0.0000000000000000e+00 3.0486805273601663e+00 1.6929901233640237e+01 9.7454848918696104e+00 0 0 0
184 0 1 0.0000000000000000e+00 4.8458318004908820e+00 1.8444587655047677e+01 1.2110451707118976e+01 0 0 0
262 0 1 0.0000000000000000e+00 5.7660734560744338e+00 1.8323530137213361e+01 9.0748924580149026e+00 0 0 0
268 0 1 0.0000000000000000e+00 7.7360223524392611e+00 1.9479765046861957e+01 1.1262263161535577e+01 0 0 0
365 0 1 0.0000000000000000e+00 9.8062767948068377e+00 1.7562075254541433e+01 1.0361217142870318e+01 0 0 0
294 0 1 0.0000000000000000e+00 1.3216821944170929e+01 1.7317900637234153e+01 1.0483298585525946e+01 0 0 0
274 0 1 0.0000000000000000e+00 1.6334896420142488e+01 1.6432499825995706e+01 1.0525706530470885e+01 0 0 0
394 0 1 0.0000000000000000e+00 1.6823622167196930e+01 1.9593999504262904e+01 1.0461173973420211e+01 0 0 0
281 0 1 0.0000000000000000e+00 2.0029042131614666e+01 1.9205771971426643e+01 1.0663559170573910e+01 -1 0 0
299 0 1 0.0000000000000000e+00 2.3144514142138405e+01 1.8695282363090513e+01 1.0481446837510880e+01 0 0 0
183 0 1 0.0000000000000000e+00 3.4052767964345882e+00 2.0323372941171158e+01 1.0013066099234882e+01 0 0 0
104 0 1 0.0000000000000000e+00 3.8461984991654576e+00 2.3298898007490294e+01 9.8173406099095164e+00 0 -1 0
382 0 1 0.0000000000000000e+00 2.3538634446853401e+01 2.2140284196679559e+01 1.0889161283708301e+01 -1 0 0
363 0 1 0.0000000000000000e+00 5.2936584349396263e+00 2.1447405635567954e+01 1.2152789564057324e+01 0 0 0
282 0 1 0.0000000000000000e+00 6.3834524677594704e+00 2.1309015758180628e+01 9.1468590587980394e+00 0 0 0
288 0 1 0.0000000000000000e+00 8.0945792825272882e+00 2.2536402480037552e+01 1.1270013074397847e+01 0 0 0
290 0 1 0.0000000000000000e+00 1.1087301747341961e+01 2.3644795087044514e+01 1.0455823853497769e+01 0 0 0
289 0 1 0.0000000000000000e+00 1.0441881436161097e+01 2.0567848448489883e+01 1.0578117641356158e+01 0 0 0
272 0 1 0.0000000000000000e+00 1.3527719212045218e+01 2.0285412187803999e+01 1.0721830511252493e+01 0 0 0
390 0 1 0.0000000000000000e+00 1.4157646200638050e+01 2.3329322525896586e+01 1.0465871850010965e+01 0 0 0
210 0 1 0.0000000000000000e+00 1.7303550254531721e+01 2.3027542789555774e+01 1.0910447882243952e+01 0 -1 0
201 0 1 0.0000000000000000e+00 2.0499989062736816e+01 2.2553522565194896e+01 1.0838349053479867e+01 -1 -1 0
321 0 1 0.0000000000000000e+00 3.4422722779226791e+00 3.7401842455659415e+00 1.3125149288314773e+01 0 0 0
304 0 1 0.0000000000000000e+00 4.8198934034189813e+00 1.7643487607008259e+00 1.5257063013668722e+01 0 0 0
324 0 1 0.0000000000000000e+00 1.5140006273377509e+00 2.5078576355710105e+00 1.4951289944924950e+01 0 0 0
305 0 1 0.0000000000000000e+00 7.4721384922377645e+00 3.1060130249408431e+00 1.4468259772434530e+01 0 0 0
202 0 1 0.0000000000000000e+00 1.0473494584721877e+01 4.4538024665346061e+00 1.3832406112479374e+01 0 0 0
307 0 1 0.0000000000000000e+00 1.1787980478656099e+01 2.5433704385202200e+00 1.5665653875139787e+01 0 0 0
207 0 1 0.0000000000000000e+00 1.2751259954853012e+01 2.4427002589267013e+00 1.2642539912288722e+01 0 0 0
333 0 1 0.0000000000000000e+00 1.4702347666709521e+01 3.7322532704210207e+00 1.5173402281167652e+01 0 0 0
213 0 1 0.0000000000000000e+00 1.5829670946470085e+01 2.1068359885535290e+00 1.2928325557741132e+01 0 0 0
314 0 1 0.0000000000000000e+00 1.8985815692552833e+01 1.5367746945271654e+00 1.2945424009435659e+01 0 0 0
336 0 1 0.0000000000000000e+00 1.9546776172986426e+01 4.8790035503176163e+00 1.2624839287283800e+01 0 0 0
335 0 1 0.0000000000000000e+00 1.7750713832714652e+01 3.3267767217365614e+00 1.5022002084117817e+01 0 0 0
337 0 1 0.0000000000000000e+00 2.2803668595658067e+01 4.3460308526050184e+00 1.2811653637509647e+01 0 0 0
318 0 1 0.0000000000000000e+00 2.0880188838929357e+01 2.7519405848942267e+00 1.5068109581866368e+01 0 0 0
243 0 1 0.0000000000000000e+00 4.0400197608485371e+00 7.0517028503287378e+00 1.3346798760541642e+01 0 0 0
322 0 1 0.0000000000000000e+00 2.0402828800635131e+00 5.5258785055719075e+00 1.5334363678021955e+01 0 0 0
339 0 1 0.0000000000000000e+00 2.5616317906212158e+00 8.6696619720905979e+00 1.5372030519238706e+01 1 0 0
127 0 1 0.0000000000000000e+00 6.9058371416355913e+00 8.1065253095604319e+00 1.2790016481588069e+01 0 0 0
222 0 1 0.0000000000000000e+00 5.2632654156551864e+00 5.0331050983912364e+00 1.5422406500228277e+01 0 0 0
302 0 1 0.0000000000000000e+00 8.1025356782690121e+00 6.0378947921271529e+00 1.4832417572450506e+01 0 0 0
328 0 1 0.0000000000000000e+00 5.7548443019164059e+00 8.2163332337196948e+00 1.5808603035824570e+01 0 0 0
251 0 1 0.0000000000000000e+00 1.0725837647096853e+01 7.4689165437712566e+00 1.4004402606367393e+01 0 0 0
326 0 1 0.0000000000000000e+00 1.3561624743525233e+01 5.3734605250857062e+00 1.3019043619467373e+01 0 0 0
355 0 1 0.0000000000000000e+00 1.5185016965082470e+01 6.7026377703720694e+00 1.5289539280591701e+01 0 0 0
330 0 1 0.0000000000000000e+00 1.3719761390800544e+01 8.5080847754374993e+00 1.3091883562679284e+01 0 0 0
216 0 1 0.0000000000000000e+00 1.6563050793658228e+01 5.1658796905717468e+00 1.3010442718867697e+01 0 0 0
212 0 1 0.0000000000000000e+00 1.6733716663329332e+01 8.3369079528081329e+00 1.2751366693912521e+01 0 0 0
279 0 1 0.0000000000000000e+00 1.8202428350949965e+01 6.5660349514780663e+00 1.5236313134311423e+01 0 0 0
353 0 1 0.0000000000000000e+00 2.0123245744280041e+01 7.9904078381154253e+00 1.2667533676757097e+01 0 0 0
259 0 1 0.0000000000000000e+00 2.3157737334214232e+01 7.2069953281292225e+00 1.2920548942840851e+01 0 0 0
458 0 1 0.0000000000000000e+00 2.1306216599056278e+01 5.8397669254447351e+00 1.5157193866982169e+01 0 0 0