Generated by yaff2lammps

                 424 atoms
                 512 bonds
                1824 angles 
                1248 dihedrals
                 192 impropers

                   7 atom types
                   7 bond types
                  29 angle types
                  11 dihedral types
                   3 improper types

    0.0000000000000000000000000000000000    26.4070248643267468935391661943867803 xlo xhi
    0.0000000000000000000000000000000000    26.4070252891212220447414438240230083 ylo yhi
    0.0000000000000000000000000000000000    26.4070257154843517355402582325041294 zlo zhi
   -0.0000000007111492372846892652846758    -0.0000000000659408828932501509572980    -0.0000000000464737531820980317620204 xy xz yz

Masses

    1     65.40900000 #              Zn
    2     15.99940000 #            O_CE
    3     15.99940000 #            O_CA
    4     12.01070000 #            C_CA
    5     12.01070000 #            C_PH
    6     12.01070000 #            C_PC
    7      1.00794000 #            H_PH

Bond Coeffs

       1    682.36094515      1.27102391
       2    499.48089314      1.38650552
       3    328.64606795      1.49449724
       4    465.15110963      1.39880394
       5    406.68075027      1.08330871
       6    107.02127303      2.03268653
       7    113.67644184      1.98848069

Angle Coeffs

       1               cross    193.48062339    101.27328163    101.27328163      1.27218805      1.27218805    123.91120600
       2               cross     90.86010618    104.60333096     43.56504880      1.27186911      1.49086906    118.21448172
       3               cross     90.86010618     43.56504880    104.60333096      1.49086906      1.27186911    118.21448172
       4               cross    130.81104940     12.67739461     16.17645862      1.39837427      1.38759779    120.07946149
       5               cross    130.81104940     16.17645862     12.67739461      1.38759779      1.39837427    120.07946149
       6               cross     11.41676921     30.63883886     25.17734414      1.08331485      1.39837427    119.52155527
       7               cross     11.41676921     25.17734414     30.63883886      1.39837427      1.08331485    119.52155527
       8               cross     12.44667401     28.35704887     28.27577085      1.38759779      1.08331485    120.41324047
       9               cross     12.44667401     28.27577085     28.35704887      1.08331485      1.38759779    120.41324047
      10               cross     75.95522848     37.17414513     10.05189907      1.49086906      1.39837427    119.94754556
      11               cross     75.95522848     10.05189907     37.17414513      1.39837427      1.49086906    119.94754556
      12               cross    144.65705708     -7.34407121     -7.34407121      1.39837427      1.39837427    119.90241395
      13               cross     20.17000841      2.28355442     -7.92322284      1.98727825      2.03828701    109.42277782
      14               cross     20.17000841     -7.92322284      2.28355442      2.03828701      1.98727825    109.42277782
      15               cross     22.09014578     27.25520258     27.25520258      1.98727825      1.98727825    108.41474547
      16               cross     35.09855972     13.51120456     13.51120456      2.03828701      2.03828701    110.23699695
      17               cross     60.09401332      6.52883112      6.33031133      1.27250698      1.98727825    133.24307044
      18               cross     60.09401332      6.33031133      6.52883112      1.98727825      1.27250698    133.24307044
      19                 mm3     89.55892156    124.04066786
      20                 mm3     66.99975548    120.08429731
      21                 mm3     36.80738383    120.34964823
      22                 mm3     78.98317285    118.11635047
      23                 mm3     45.56202376    120.27481067
      24                 mm3     38.05295940    119.66571944
      25                 mm3     69.51816469    119.99726194
      26                 mm3     10.37923783    135.02173615
      27                 mm3      7.08946285    108.92035063
      28                 mm3      9.10447143    107.51166462
      29                 mm3     29.71892770    109.45766072

Dihedral Coeffs

       1    1      3.64767899     2   -180.00000000
       2    1      2.35495004     2   -180.00000000
       3    1      0.77392291     2   -180.00000000
       4    1      4.23729765     2   -180.00000000
       5    1      3.96491674     2   -180.00000000
       6    1      3.27183804     2   -180.00000000
       7    1      2.21748040     2   -180.00000000
       8    1      5.15273943     2   -180.00000000
       9    1      0.07197799     2   -180.00000000
      10    1      1.18073306     2   -180.00000000
      11    1      0.13801067     3   -180.00000000

Improper Coeffs

       1     27.54315214      0.30000000
       2    196.72513766      0.20000000
       3     21.31242806      0.10000000

Pair Coeffs

    1       0.276000000000       2.290000000000       2.073000000000 #              Zn
    2       0.059000000000       1.820000000000       1.132500000000 #            O_CE
    3       0.059000000000       1.820000000000       1.132500000000 #            O_CA
    4       0.056000000000       1.940000000000       1.164600000000 #            C_CA
    5       0.056000000000       1.960000000000       1.164600000000 #            C_PH
    6       0.056000000000       1.960000000000       1.164600000000 #            C_PC
    7       0.020000000000       1.620000000000       0.730900000000 #            H_PH

Atoms

    1   1   1     1.1385908011000001049950469678151421     7.7681655356393379818769062694627792     5.4353470464458997213341717724688351     5.4353481400207055429518732125870883
    2   1   1     1.1385908011000001049950469678151421    18.6388604818900276427484641317278147    20.9716793824397242929080675821751356    20.9716786980636094028795923804864287
    3   1   1     1.1385908011000001049950469678151421    18.6388604828091395404499053256586194    20.9716793882223804246223153313621879     5.4353481469762670030831941403448582
    4   1   1     1.1385908011000001049950469678151421     7.7681655364778690042726339015644044     5.4353470521724522868112217111047357    20.9716787050184301222088834038004279
    5   1   1     1.1385908011000001049950469678151421    18.6388604820358487756948306923732162     5.4353470549395410671422723680734634    20.9716787022728006206762074725702405
    6   1   1     1.1385908011000001049950469678151421     7.7681655348670091143503668718039989    20.9716793909088075054114597151055932     5.4353481442725533057114262192044407
    7   1   1     1.1385908011000001049950469678151421     7.7681655357115895199626720568630844    20.9716793851271745552367065101861954    20.9716787007712568424722121562808752
    8   1   1     1.1385908011000001049950469678151421    18.6388604829732216217053064610809088     5.4353470492259390312028699554502964     5.4353481427881851217875919246580452
    9   1   1     1.1385908011000001049950469678151421     5.4353480335349191321370199148077518     7.7681659778904474933369783684611320     5.4353473910968492788242656388320029
   10   1   1     1.1385908011000001049950469678151421    20.9716779882094357390087679959833622    18.6388604499221948174181306967511773    20.9716794503401686711185902822762728
   11   1   1     1.1385908011000001049950469678151421     5.4353480418414452657316360273398459    18.6388604476287227385000733193010092    20.9716794526507896989642176777124405
   12   1   1     1.1385908011000001049950469678151421    20.9716779971001834326216339832171798     7.7681659755144787382619142590556294     5.4353473934498337527543299074750394
   13   1   1     1.1385908011000001049950469678151421    20.9716779939941133648062532301992178    18.6388604508393349590278376126661897     5.4353473947126449417055482626892626
   14   1   1     1.1385908011000001049950469678151421     5.4353480392393134223993911291472614     7.7681659787512575832124639418907464    20.9716794539569519884025794453918934
   15   1   1     1.1385908011000001049950469678151421    20.9716779912964526033647416625171900     7.7681659763617938452284761297050864    20.9716794515814761723504489054903388
   16   1   1     1.1385908011000001049950469678151421     5.4353480361288601940827902581077069    18.6388604485427613610681873979046941     5.4353473923970669900995744683314115
   17   1   1     1.1385908011000001049950469678151421     5.4353473615433571808353008236736059     5.4353484119468289392784754454623908     7.7681665390863825493283911782782525
   18   1   1     1.1385908011000001049950469678151421    20.9716786635264433868997002718970180    20.9716780214450366770506661850959063    18.6388602999156418604798091109842062
   19   1   1     1.1385908011000001049950469678151421    20.9716786678593969384110096143558621     5.4353484156213465183782318490557373    18.6388602987394449428393272683024406
   20   1   1     1.1385908011000001049950469678151421     5.4353473649551853341677087882999331    20.9716780252386136851328046759590507     7.7681665379556230632829283422324806
   21   1   1     1.1385908011000001049950469678151421     5.4353473663194220577565829444210976    20.9716780238284776771706674480810761    18.6388602975496908698005427140742540
   22   1   1     1.1385908011000001049950469678151421    20.9716786692716929962898575467988849     5.4353484142481827134929517342243344     7.7681665367625623019876002217642963
   23   1   1     1.1385908011000001049950469678151421    20.9716786649501152339780674083158374    20.9716780228583630218963662628084421     7.7681665355948394946494772739242762
   24   1   1     1.1385908011000001049950469678151421     5.4353473629214468232362378330435604     5.4353484133301899206003326980862767    18.6388602964345366785892110783606768
   25   1   1     1.1385908011000001049950469678151421     7.7681661448906043077045069367159158    18.6388603674339208282617619261145592    18.6388609743165929444330686237663031
   26   1   1     1.1385908011000001049950469678151421    18.6388598649385599514971545431762934     7.7681660573387638635267649078741670     7.7681658552096362058136946870945394
   27   1   1     1.1385908011000001049950469678151421    18.6388598693962634911258646752685308     7.7681660528421563327583498903550208    18.6388609736337329536581819411367178
   28   1   1     1.1385908011000001049950469678151421     7.7681661493951921215739275794476271    18.6388603629757554358548077289015055     7.7681658545225156231595065037254244
   29   1   1     1.1385908011000001049950469678151421    18.6388598684865343102501356042921543    18.6388603657511033873106498504057527     7.7681658517638823013840010389685631
   30   1   1     1.1385908011000001049950469678151421     7.7681661489359852268421491316985339     7.7681660555329976602934038965031505    18.6388609709207209164105734089389443
   31   1   1     1.1385908011000001049950469678151421     7.7681661534287194115222519030794501     7.7681660600201682953525050834286958     7.7681658579038215250989196647424251
   32   1   1     1.1385908011000001049950469678151421    18.6388598729334624692910438170656562    18.6388603702083806012979039223864675    18.6388609770715056868084502639248967
   33   1   2    -1.1996262903999999060999925859505311     6.6017567794254068402892698941286653     6.6017568805824877742338685493450612     6.6017569851852506701561651425436139
   34   1   2    -1.1996262903999999060999925859505311    19.8052692450136689217288221698254347    19.8052695509050984412624529795721173    19.8052698542058642772190069081261754
   35   1   2    -1.1996262903999999060999925859505311    19.8052692451266771911377873038873076    19.8052695509947689345153776230290532     6.6017569850626030003581945493351668
   36   1   2    -1.1996262903999999060999925859505311     6.6017567794610032549940115131903440     6.6017568806120694446804009203333408    19.8052698540833276297234988305717707
   37   1   2    -1.1996262903999999060999925859505311    19.8052692455747880728722520871087909     6.6017568806341531129078248341102153    19.8052698541859548697630089009180665
   38   1   2    -1.1996262903999999060999925859505311     6.6017567792593823128299845848232508    19.8052695509999701073411415563896298     6.6017569849619262001283459539990872
   39   1   2    -1.1996262903999999060999925859505311     6.6017567793064513281819927215110511    19.8052695509013538810449972515925765    19.8052698543089888971735490486025810
   40   1   2    -1.1996262903999999060999925859505311    19.8052692456725587533128418726846576     6.6017568805577271362494684581179172     6.6017569850833739408813016780186445
   41   1   3    -0.6614125480999999417974777315976098     7.3942181733283014466451277257874608     5.8092937865263580832220213778782636     3.5019658020624895300443313317373395
   42   1   3    -0.6614125480999999417974777315976098    19.0128078425525721684152813395485282    20.5977326425952682598108367528766394    22.9050610423764169354399200528860092
   43   1   3    -0.6614125480999999417974777315976098    19.0128078411376932876919454429298639    20.5977326418579700373356899945065379     3.5019658064874317204839826445095241
   44   1   3    -0.6614125480999999417974777315976098     7.3942181718381911892379321216139942     5.8092937857008299928907035791780800    22.9050610467861481822637870209291577
   45   1   3    -0.6614125480999999417974777315976098    19.0128078564215385881652764510363340     5.8092937813638991784159770759288222    22.9050610450410161433865141589194536
   46   1   3    -0.6614125480999999417974777315976098     7.3942181862512610379667421511840075    20.5977326373507381163108220789581537     3.5019658046746764412660013476852328
   47   1   3    -0.6614125480999999417974777315976098     7.3942181846366104025491949869319797    20.5977326379863434624439832987263799    22.9050610442565165669748239452019334
   48   1   3    -0.6614125480999999417974777315976098    19.0128078545243539565490209497511387     5.8092937816891616620296190376393497     3.5019658041565966399844000989105552
   49   1   3    -0.6614125480999999417974777315976098     3.5019657909495807146527113218326122     7.3942187212764647341600721119903028     5.8092944677925419938446793821640313
   50   1   3    -0.6614125480999999417974777315976098    22.9050602369784179757061792770400643    19.0128076948782052113529061898589134    20.5977323618679157846145244548097253
   51   1   3    -0.6614125480999999417974777315976098     3.5019657972852078486880600394215435    19.0128076933941407844486093381419778    20.5977323633455640106149076018482447
   52   1   3    -0.6614125480999999417974777315976098    22.9050602427862557419757649768143892     7.3942187215476389283708158473018557     5.8092944675320916658733949589077383
   53   1   3    -0.6614125480999999417974777315976098    22.9050602407389938264259399147704244    19.0128077137566151577630080282688141     5.8092944665556016659024862747173756
   54   1   3    -0.6614125480999999417974777315976098     3.5019657945506681429037598718423396     7.3942187399778358525281873880885541    20.5977323605050735011445794953033328
   55   1   3    -0.6614125480999999417974777315976098    22.9050602387797610504094336647540331     7.3942187407221728889794576389249414    20.5977323612425990972951694857329130
   56   1   3    -0.6614125480999999417974777315976098     3.5019657935145551697075916308676824    19.0128077123963770134196238359436393     5.8092944652027505014757480239495635
   57   1   3    -0.6614125480999999417974777315976098     5.8092942248463375065625768911559135     3.5019659445057245150678681966383010     7.3942200042889165700898956856690347
   58   1   3    -0.6614125480999999417974777315976098    20.5977317920127909189886850072070956    22.9050604931258803276250546332448721    19.0128068387566280250666750362142920
   59   1   3    -0.6614125480999999417974777315976098    20.5977317911533504002363770268857479     3.5019659473096780288869922515004873    19.0128068375803138678747927770018578
   60   1   3    -0.6614125480999999417974777315976098     5.8092942247353196449921597377397120    22.9050604972263194269999075913801789     7.3942200013357615162590263935271651
   61   1   3    -0.6614125480999999417974777315976098     5.8092942250240371393488203466404229    22.9050604954516501265970873646438122    19.0128068461052670556910015875473619
   62   1   3    -0.6614125480999999417974777315976098    20.5977317913448167985279724234715104     3.5019659454737896986387113429373130     7.3942200097043766504611994605511427
   63   1   3    -0.6614125480999999417974777315976098    20.5977317923231417751139815663918853    22.9050604949299945189977734116837382     7.3942200086482570142720760486554354
   64   1   3    -0.6614125480999999417974777315976098     5.8092942249925405562294145056512207     3.5019659463469063886975618515862152    19.0128068430089136597871402045711875
   65   1   3    -0.6614125480999999417974777315976098     5.8092960785327898420860037731472403     7.3942182075750313430262394831515849    22.9050614002890959852720698108896613
   66   1   3    -0.6614125480999999417974777315976098    20.5977299401312841098388162208721042    19.0128082239953606347171444213017821     3.5019654517842653262960084248334169
   67   1   3    -0.6614125480999999417974777315976098    20.5977299405712770408172218594700098    19.0128082257082873240960907423868775    22.9050613972744407931259047472849488
   68   1   3    -0.6614125480999999417974777315976098     5.8092960790514895919045557093340904     7.3942182093726591673998882470186800     3.5019654487820419674903860141057521
   69   1   3    -0.6614125480999999417974777315976098     5.8092960762463938806376972934231162    19.0128082304078702691185753792524338     3.5019654501479484665082964056637138
   70   1   3    -0.6614125480999999417974777315976098    20.5977299386054824026359710842370987     7.3942182142183732196372147882357240    22.9050613984380468934887176146730781
   71   1   3    -0.6614125480999999417974777315976098    20.5977299376820504051011084811761975     7.3942182155180562475038641423452646     3.5019654502855197542032783530885354
   72   1   3    -0.6614125480999999417974777315976098     5.8092960756012583800611537299118936    19.0128082320136755356543289963155985    22.9050613988376525753665191587060690
   73   1   3    -0.6614125480999999417974777315976098     7.3942172056483563835627137450501323     3.5019653161967823074007810646435246    20.5977303905757622715100296773016453
   74   1   3    -0.6614125480999999417974777315976098    19.0128088409146194237564486684277654    22.9050611265415646755627676611766219     5.8092964336224230947891555842943490
   75   1   3    -0.6614125480999999417974777315976098    19.0128088404674606692879024194553494     3.5019653150334657532027904380811378     5.8092964323469908904939984495285898
   76   1   3    -0.6614125480999999417974777315976098     7.3942172062134545740264002233743668    22.9050611238859431750825024209916592    20.5977303913429352633102098479866982
   77   1   3    -0.6614125480999999417974777315976098    19.0128088218691964073059352813288569    22.9050611226776190676446276484057307    20.5977303949553345319145591929554939
   78   1   3    -0.6614125480999999417974777315976098     7.3942171867826607112306191993411630     3.5019653124559817491956437152111903     5.8092964378953917403691775689367205
   79   1   3    -0.6614125480999999417974777315976098     7.3942171872283024569583176344167441    22.9050611277551752209546975791454315     5.8092964372482214230331010185182095
   80   1   3    -0.6614125480999999417974777315976098    19.0128088215761614776511123636737466     3.5019653187266461813464957231190056    20.5977303960754589695625327294692397
   81   1   3    -0.6614125480999999417974777315976098     3.5019654779337230365854338742792606     5.8092967237013635184439408476464450    19.0128078412212566661310120252892375
   82   1   3    -0.6614125480999999417974777315976098    22.9050605550011709965474437922239304    20.5977296963806075780212268000468612     7.3942190175944446650646568741649389
   83   1   3    -0.6614125480999999417974777315976098     3.5019654778984468102009941503638402    20.5977296959421032340742385713383555     7.3942190171633228601422160863876343
   84   1   3    -0.6614125480999999417974777315976098    22.9050605571640275570644007530063391     5.8092967253534926186375741963274777    19.0128078428666391630486032227054238
   85   1   3    -0.6614125480999999417974777315976098    22.9050605588242035537405172362923622     5.8092967248778739630665768345352262     7.3942190047566755950469996605534106
   86   1   3    -0.6614125480999999417974777315976098     3.5019654796467700741402495623333380    20.5977296956396678240253095282241702    19.0128078302438510149841022212058306
   87   1   3    -0.6614125480999999417974777315976098    22.9050605531062210218351538060232997    20.5977296962075158148763875942677259    19.0128078296824511994600470643490553
   88   1   3    -0.6614125480999999417974777315976098     3.5019654760072134180859393381979316     5.8092967236924213381143999868072569     7.3942190059313750438718670920934528
   89   1   3    -0.6614125480999999417974777315976098     7.3942189816897174736709530407097191    19.0128074720672763930906512541696429    16.7054786480276398208388854982331395
   90   1   3    -0.6614125480999999417974777315976098    19.0128070348148447976655006641522050     7.3942189561113034201866867078933865     9.7015481798496168153178587090224028
   91   1   3    -0.6614125480999999417974777315976098    19.0128070398263808726824208861216903     7.3942189510663363094522537721786648    16.7054786479772090501683123875409365
   92   1   3    -0.6614125480999999417974777315976098     7.3942189868229606375393814232666045    19.0128074669634301585574576165527105     9.7015481797389462315095443045720458
   93   1   3    -0.6614125480999999417974777315976098    19.0128070404677238514068449148908257    19.0128074623046927627001423388719559     9.7015481777709826616273858235217631
   94   1   3    -0.6614125480999999417974777315976098     7.3942189879737281188454289804212749     7.3942189463278769068210749537684023    16.7054786460043480644799274159595370
   95   1   3    -0.6614125480999999417974777315976098     7.3942189934460786915337848768103868     7.3942189517942757959190203109756112     9.7015481815281976452070011873729527
   96   1   3    -0.6614125480999999417974777315976098    19.0128070456709394875360885635018349    19.0128074675123386327868502121418715    16.7054786499265404131620016414672136
   97   1   3    -0.6614125480999999417974777315976098     5.8092958879240672587229710188694298    16.7054783005063463008355029160156846    20.5977324335008376010591746307909489
   98   1   3    -0.6614125480999999417974777315976098    20.5977301425774470544638461433351040     9.7015481188062686612738616531714797     5.8092944042885532596187658782582730
   99   1   3    -0.6614125480999999417974777315976098    20.5977301400728656233241053996607661    16.7054783015092667142198479268699884     5.8092943997067569839032330492045730
  100   1   3    -0.6614125480999999417974777315976098     5.8092958876427820413823610579129308     9.7015481210446257165358474594540894    20.5977324270892765412099834065884352
  101   1   3    -0.6614125480999999417974777315976098     5.8092958752098597940971558273304254     9.7015481211045688780814089113846421     5.8092944116117468666971035418100655
  102   1   3    -0.6614125480999999417974777315976098    20.5977301274566038102875609183683991    16.7054783014434455878927110461518168    20.5977324388839591051691968459635973
  103   1   3    -0.6614125480999999417974777315976098    20.5977301301355062435050058411434293     9.7015481186871035390595352509990335    20.5977324344775460929213295457884669
  104   1   3    -0.6614125480999999417974777315976098     5.8092958754208696703358327795285732    16.7054783005406477514043217524886131     5.8092944051289316931274697708431631
  105   1   3    -0.6614125480999999417974777315976098     5.8092949017410688838936039246618748    20.5977298991426849283925548661500216     9.7015485084123813663836699561215937
  106   1   3    -0.6614125480999999417974777315976098    20.5977311254701582754478295100852847     5.8092965212149643150496558519080281    16.7054783203509877864689769921824336
  107   1   3    -0.6614125480999999417974777315976098    20.5977311213527762845387769630178809     5.8092965253640072020857587631326169     9.7015485077352501264158490812405944
  108   1   3    -0.6614125480999999417974777315976098     5.8092948975013145584966878232080489    20.5977299033513006065732042770832777    16.7054783197338672096066147787496448
  109   1   3    -0.6614125480999999417974777315976098     5.8092948913148871881162449426483363     5.8092965273910293078074573713820428    16.7054783188796989179536467418074608
  110   1   3    -0.6614125480999999417974777315976098    20.5977311144287682509457226842641830    20.5977299054634386266116052865982056     9.7015485067859241752330490271560848
  111   1   3    -0.6614125480999999417974777315976098    20.5977311187387677193783019902184606    20.5977299097761239465853577712550759    16.7054783214311690642261964967474341
  112   1   3    -0.6614125480999999417974777315976098     5.8092948958969143902208998042624444     5.8092965319653133704491665412206203     9.7015485095041622543021730962209404
  113   1   3    -0.6614125480999999417974777315976098     7.3942187611208280983987606305163354    16.7054782673867414644064410822466016     7.3942180412462903404957614839076996
  114   1   3    -0.6614125480999999417974777315976098    19.0128072665808041108448378508910537     9.7015481487976540364570610108785331    19.0128087749036005504876811755821109
  115   1   3    -0.6614125480999999417974777315976098    19.0128072637524319077328982530161738    16.7054782725891541872442758176475763    19.0128087808776520262199483113363385
  116   1   3    -0.6614125480999999417974777315976098     7.3942187607602267718220900860615075     9.7015481525794484696234576404094696     7.3942180492968132554665317002218217
  117   1   3    -0.6614125480999999417974777315976098    19.0128072681088831075157941086217761     9.7015481513881791642006646725349128     7.3942180528998298072451689222361892
  118   1   3    -0.6614125480999999417974777315976098     7.3942187627146598316585368593223393    16.7054782700166448705658694962039590    19.0128087864319539335156150627881289
  119   1   3    -0.6614125480999999417974777315976098     7.3942187622570276772648867336101830     9.7015481499845694912664839648641646    19.0128087784795489767475373810157180
  120   1   3    -0.6614125480999999417974777315976098    19.0128072654169599786655453499406576    16.7054782699551758184952632291242480     7.3942180467881630789861446828581393
  121   1   3    -0.6614125480999999417974777315976098    16.7054779462080809082635823870077729     7.3942181373565327717756190395448357    19.0128089291277326822182658361271024
  122   1   3    -0.6614125480999999417974777315976098     9.7015480683850832122061547124758363    19.0128083000016694370515324408188462     7.3942179110456356383451748115476221
  123   1   3    -0.6614125480999999417974777315976098    16.7054779464473988070949417306110263    19.0128082993325300265041732927784324     7.3942179117071376026615325827151537
  124   1   3    -0.6614125480999999417974777315976098     9.7015480679456729262710723560303450     7.3942181384685099487796833273023367    19.0128089280246150849507102975621819
  125   1   3    -0.6614125480999999417974777315976098     9.7015480657450723356305388733744621    19.0128082984084976203575934050604701    19.0128089166837881407445820514112711
  126   1   3    -0.6614125480999999417974777315976098    16.7054779434552109762535110348835588     7.3942181355549658761106002202723175     7.3942178983506563483274476311635226
  127   1   3    -0.6614125480999999417974777315976098     9.7015480704414240875621544546447694     7.3942181371201511907997883099596947     7.3942178999110481640855141449719667
  128   1   3    -0.6614125480999999417974777315976098    16.7054779489779363643719989340752363    19.0128082978158339244600938400253654    19.0128089161001945228690601652488112
  129   1   3    -0.6614125480999999417974777315976098    16.7054782227603837441165524069219828     5.8092939274234378643768650363199413     5.8092955786821107722062151879072189
  130   1   3    -0.6614125480999999417974777315976098     9.7015477910991965160292238579131663    20.5977324837256219325354322791099548    20.5977312604598665757293929345905781
  131   1   3    -0.6614125480999999417974777315976098    16.7054782222166835481402813456952572    20.5977324824371059719396725995466113    20.5977312591786052564657438779249787
  132   1   3    -0.6614125480999999417974777315976098     9.7015477929291300540626252768561244     5.8092939282851405735641492356080562     5.8092955795372036575940910552162677
  133   1   3    -0.6614125480999999417974777315976098     9.7015477927467053120835771551355720     5.8092939405732488822309278475586325    20.5977312593216446146016096463426948
  134   1   3    -0.6614125480999999417974777315976098    16.7054782221912674344821425620466471    20.5977324948995530462525493931025267     5.8092955795570091481749841477721930
  135   1   3    -0.6614125480999999417974777315976098     9.7015477911436871494288425310514867    20.5977324962684740228269220096990466     5.8092955781939252801748807542026043
  136   1   3    -0.6614125480999999417974777315976098    16.7054782225499032222160167293623090     5.8092939401670777854747029778081924    20.5977312597170971741888934047892690