LAMMPS data file for Nanoparticles
1500 atoms
1500 triangles
2 atom types
-8.43734046614 8.43734046614 xlo xhi
-8.43734046614 8.43734046614 ylo yhi
-8.43734046614 8.43734046614 zlo zhi

Atoms

1 1 1 1 1 8.09865 -8.28133 8.29799 -1 0 -1
2 1 1 1 1 8.30715 8.08782 8.29819 -1 -1 -1
3 1 1 1 1 -8.30715 -8.08782 -8.29819 0 0 0
4 1 1 1 1 -8.09865 8.28133 -8.29799 0 -1 0
5 1 1 1 1 -8.01812 8.33254 8.00474 0 -1 -1
6 1 1 1 1 -8.18857 7.95742 8.15157 0 -1 -1
7 1 1 1 1 8.18857 -7.95742 -8.15157 -1 0 0
8 1 1 1 1 8.01812 -8.33254 -8.00474 -1 0 0
9 1 1 1 1 -8.22662 -8.03661 8.00453 0 0 -1
10 1 1 1 1 8.2691 -7.90621 8.15116 -1 0 -1
11 1 1 1 1 -8.2691 7.90621 -8.15116 0 -1 0
12 1 1 1 1 8.22662 8.03661 -8.00453 -1 -1 0
13 2 1 1 1 -4.99659 8.35608 -7.68925 0 -1 0
14 2 1 1 1 -5.38247 8.15928 -7.81219 0 -1 0
15 2 1 1 1 -4.74234 -8.15928 7.81219 0 0 -1
16 2 1 1 1 -5.12822 -8.35608 7.68925 0 0 -1
17 2 1 1 1 -5.58046 -8.21566 8.14704 0 0 -1
18 2 1 1 1 -5.67441 8.31075 -8.33139 0 -1 0
19 2 1 1 1 -4.4504 -8.31075 8.33139 0 0 -1
20 2 1 1 1 -4.54435 8.21566 -8.14704 0 -1 0
21 2 1 1 1 -5.19458 -8.01886 8.26998 0 0 -1
22 2 1 1 1 -4.90264 -8.17033 -8.08551 0 0 0
23 2 1 1 1 -5.22217 8.17033 8.08551 0 -1 -1
24 2 1 1 1 -4.93023 8.01886 -8.26998 0 -1 0
25 3 1 1 1 -2.07008 -8.2163 -7.47867 0 0 0
26 3 1 1 1 -2.63152 -8.19747 -8.0305 0 0 0
27 3 1 1 1 -0.743411 8.19747 8.0305 0 -1 -1
28 3 1 1 1 -1.30485 8.2163 7.47867 0 -1 -1
29 3 1 1 1 -1.79542 -7.77548 7.64072 0 0 -1
30 3 1 1 1 -2.49419 -7.97707 7.96654 0 0 -1
31 3 1 1 1 -0.880745 7.97707 -7.96654 0 -1 0
32 3 1 1 1 -1.57952 7.77548 -7.64072 0 -1 0
33 3 1 1 1 -1.23397 -7.7943 8.19255 0 0 -1
34 3 1 1 1 -1.37131 -8.01471 -7.80449 0 0 0
35 3 1 1 1 -2.00363 8.01471 7.80449 0 -1 -1
36 3 1 1 1 -2.14096 7.7943 -8.19255 0 -1 0
37 4 1 1 1 1.54228 8.08574 7.94848 0 -1 -1
38 4 1 1 1 1.1402 -8.27924 8.19404 0 0 -1
39 4 1 1 1 2.23473 8.27924 -8.19404 0 -1 0
40 4 1 1 1 1.83266 -8.08574 -7.94848 0 0 0
41 4 1 1 1 1.48827 8.09663 -7.91919 0 -1 0
42 4 1 1 1 1.1132 -8.27379 -8.17714 0 0 0
43 4 1 1 1 2.26174 8.27379 8.17714 0 -1 -1
44 4 1 1 1 1.88667 -8.09663 7.91919 0 0 -1
45 4 1 1 1 1.89034 7.58693 -8.16475 0 -1 0
46 4 1 1 1 1.91735 7.58148 8.20643 0 -1 -1
47 4 1 1 1 1.45759 -7.58148 -8.20643 0 0 0
48 4 1 1 1 1.48459 -7.58693 8.16475 0 0 -1
49 5 1 1 1 4.80088 8.2365 -8.27074 0 -1 0
50 5 1 1 1 5.06674 -8.39651 -8.07018 0 0 0
51 5 1 1 1 5.05807 8.39651 8.07018 0 -1 -1
52 5 1 1 1 5.32393 -8.2365 8.27074 0 0 -1
53 5 1 1 1 5.38499 8.20294 8.4049 0 -1 -1
54 5 1 1 1 5.3588 -8.41329 -8.1697 0 0 0
55 5 1 1 1 4.76601 8.41329 8.1697 0 -1 -1
56 5 1 1 1 4.73981 -8.20294 -8.4049 0 0 0
57 5 1 1 1 5.11913 7.96127 8.20434 0 -1 -1
58 5 1 1 1 4.82707 7.97805 8.30386 0 -1 -1
59 5 1 1 1 5.29774 -7.97805 -8.30386 0 0 0
60 5 1 1 1 5.00568 -7.96127 -8.20434 0 0 0
61 6 1 1 1 -8.17441 -4.55988 8.15904 0 0 -1
62 6 1 1 1 -8.36335 -4.43556 -8.41055 0 0 0
63 6 1 1 1 8.36335 -5.68924 8.41055 -1 0 -1
64 6 1 1 1 8.17441 -5.56493 -8.15904 -1 0 0
65 6 1 1 1 7.92258 -5.08928 -8.28523 -1 0 0
66 6 1 1 1 8.12248 -4.70026 -8.19535 -1 0 0
67 6 1 1 1 -8.12248 -5.42454 8.19535 0 0 -1
68 6 1 1 1 -7.92258 -5.03553 8.28523 0 0 -1
69 6 1 1 1 8.11152 -5.21359 8.28436 -1 0 -1
70 6 1 1 1 -8.37431 -4.94889 8.06916 0 0 -1
71 6 1 1 1 8.37431 -5.17592 -8.06916 -1 0 0
72 6 1 1 1 -8.11152 -4.91122 -8.28436 0 0 0
73 7 1 1 1 -5.37707 -5.39413 8.00434 0 0 -1
74 7 1 1 1 -5.00038 -4.86872 7.84137 0 0 -1
75 7 1 1 1 -5.12443 -5.25609 -7.84137 0 0 0
76 7 1 1 1 -4.74773 -4.73068 -8.00434 0 0 0
77 7 1 1 1 -5.2631 -4.26956 -8.30951 0 0 0
78 7 1 1 1 -4.94339 -4.30644 8.12178 0 0 -1
79 7 1 1 1 -5.18142 -5.81837 -8.12178 0 0 0
80 7 1 1 1 -4.86171 -5.85525 8.30951 0 0 -1
81 7 1 1 1 -5.63979 -4.79496 -8.14653 0 0 0
82 7 1 1 1 -5.69678 -5.35724 -8.42695 0 0 0
83 7 1 1 1 -4.42803 -4.76756 8.42695 0 0 -1
84 7 1 1 1 -4.48502 -5.32985 8.14653 0 0 -1
85 8 1 1 1 -1.34829 -5.07171 8.27852 0 0 -1
86 8 1 1 1 -1.48113 -5.2783 -8.21114 0 0 0
87 8 1 1 1 -1.89381 -4.84651 8.21114 0 0 -1
88 8 1 1 1 -2.02665 -5.0531 -8.27852 0 0 0
89 8 1 1 1 -1.73987 -4.78828 -7.96965 0 0 0
90 8 1 1 1 -1.67692 -5.13658 -7.89788 0 0 0
91 8 1 1 1 -1.69802 -4.98822 7.89788 0 0 -1
92 8 1 1 1 -1.63507 -5.33653 7.96965 0 0 -1
93 8 1 1 1 -1.60703 -4.58168 -8.35467 0 0 0
94 8 1 1 1 -1.41124 -4.7234 8.20675 0 0 -1
95 8 1 1 1 -1.9637 -5.40141 -8.20675 0 0 0
96 8 1 1 1 -1.7679 -5.54312 8.35467 0 0 -1
97 9 1 1 1 2.72991 -4.99408 -8.3632 0 0 0
98 9 1 1 1 2.47101 -4.99269 -7.74592 0 0 0
99 9 1 1 1 0.903925 -5.13212 7.74592 0 0 -1
100 9 1 1 1 0.645022 -5.13072 8.3632 0 0 -1
101 9 1 1 1 1.2671 -4.4324 -8.4059 0 0 0
102 9 1 1 1 1.7396 -4.71185 -7.76727 0 0 0
103 9 1 1 1 1.63533 -5.41296 7.76727 0 0 -1
104 9 1 1 1 2.10784 -5.6924 8.4059 0 0 -1
105 9 1 1 1 1.526 -4.4338 7.85151 0 0 -1
106 9 1 1 1 2.25741 -4.71464 7.87285 0 0 -1
107 9 1 1 1 1.11753 -5.41017 -7.87285 0 0 0
108 9 1 1 1 1.84894 -5.69101 -7.85151 0 0 0
109 10 1 1 1 5.4561 -4.54701 8.03503 0 0 -1
110 10 1 1 1 4.98486 -5.06994 7.67813 0 0 -1
111 10 1 1 1 5.13995 -5.05487 -7.67813 0 0 0
112 10 1 1 1 4.66871 -5.5778 -8.03503 0 0 0
113 10 1 1 1 5.41517 -5.86811 8.42601 0 0 -1
114 10 1 1 1 4.96439 -5.73049 7.87362 0 0 -1
115 10 1 1 1 5.16041 -4.39432 -7.87362 0 0 0
116 10 1 1 1 4.70964 -4.2567 -8.42601 0 0 0
117 10 1 1 1 5.88641 -5.34517 -8.09176 0 0 0
118 10 1 1 1 5.90687 -4.68463 -8.28725 0 0 0
119 10 1 1 1 4.21794 -5.44018 8.28725 0 0 -1
120 10 1 1 1 4.2384 -4.77963 8.09176 0 0 -1
121 11 1 1 1 7.95141 -1.57337 8.21225 -1 0 -1
122 11 1 1 1 -8.16509 -1.56171 7.97922 0 0 -1
123 11 1 1 1 8.16509 -1.81323 -7.97922 -1 0 0
124 11 1 1 1 -7.95141 -1.80157 -8.21225 0 0 0
125 11 1 1 1 -7.98509 -0.970371 -8.18799 0 0 0
126 11 1 1 1 -7.696 -1.26021 8.21644 0 0 -1
127 11 1 1 1 7.696 -2.11472 -8.21644 -1 0 0
128 11 1 1 1 7.98509 -2.40457 8.18799 -1 0 -1
129 11 1 1 1 8.13141 -0.98203 -7.95496 -1 0 0
130 11 1 1 1 7.66232 -1.28353 -8.19219 -1 0 0
131 11 1 1 1 -7.66232 -2.09141 8.19219 0 0 -1
132 11 1 1 1 -8.13141 -2.39291 7.95496 0 0 -1
133 12 1 1 1 -5.66606 -1.94287 8.24677 0 0 -1
134 12 1 1 1 -5.71802 -1.52908 -8.33232 0 0 0
135 12 1 1 1 -4.40679 -1.84585 8.33232 0 0 -1
136 12 1 1 1 -4.45875 -1.43207 -8.24677 0 0 0
137 12 1 1 1 -4.91885 -1.38453 -7.77201 0 0 0
138 12 1 1 1 -5.34441 -1.24991 -7.90437 0 0 0
139 12 1 1 1 -4.7804 -2.12502 7.90437 0 0 -1
140 12 1 1 1 -5.20596 -1.99041 7.77201 0 0 -1
141 12 1 1 1 -4.86689 -1.79831 -8.06761 0 0 0
142 12 1 1 1 -5.2405 -2.07748 8.37913 0 0 -1
143 12 1 1 1 -4.88431 -1.29745 -8.37913 0 0 0
144 12 1 1 1 -5.25792 -1.57662 8.06761 0 0 -1
145 13 1 1 1 -1.56952 -1.63501 -8.07249 0 0 0
146 13 1 1 1 -1.94149 -1.90674 -8.24455 0 0 0
147 13 1 1 1 -1.43345 -1.46819 8.24455 0 0 -1
148 13 1 1 1 -1.80542 -1.73993 8.07249 0 0 -1
149 13 1 1 1 -1.99452 -1.33652 8.36061 0 0 -1
150 13 1 1 1 -2.15399 -1.7575 8.40934 0 0 -1
151 13 1 1 1 -1.22094 -1.61744 -8.40934 0 0 0
152 13 1 1 1 -1.38042 -2.03842 -8.36061 0 0 0
153 13 1 1 1 -1.62254 -1.06479 -8.34201 0 0 0
154 13 1 1 1 -1.41004 -1.21403 -8.12123 0 0 0
155 13 1 1 1 -1.96489 -2.1609 8.12123 0 0 -1
156 13 1 1 1 -1.75239 -2.31015 8.34201 0 0 -1
157 14 1 1 1 1.04315 -1.43775 8.29807 0 0 -1
158 14 1 1 1 1.32841 -1.15471 8.14724 0 0 -1
159 14 1 1 1 2.04652 -2.22022 -8.14724 0 0 0
160 14 1 1 1 2.33179 -1.93718 -8.29807 0 0 0
161 14 1 1 1 2.12529 -1.3657 -8.17407 0 0 0
162 14 1 1 1 1.86948 -1.11869 8.34851 0 0 -1
163 14 1 1 1 1.50545 -2.25625 -8.34851 0 0 0
164 14 1 1 1 1.24965 -2.00924 8.17407 0 0 -1
165 14 1 1 1 1.84002 -1.64874 -8.02324 0 0 0
166 14 1 1 1 1.29895 -1.68477 -8.22451 0 0 0
167 14 1 1 1 2.07599 -1.69017 8.22451 0 0 -1
168 14 1 1 1 1.53492 -1.7262 8.02324 0 0 -1
169 15 1 1 1 4.67895 -1.62687 8.03241 0 0 -1
170 15 1 1 1 4.84974 -2.12902 8.16443 0 0 -1
171 15 1 1 1 5.27507 -1.24591 -8.16443 0 0 0
172 15 1 1 1 5.44586 -1.74806 -8.03241 0 0 0
173 15 1 1 1 5.62262 -2.25468 -8.3752 0 0 0
174 15 1 1 1 5.32157 -2.44293 8.39797 0 0 -1
175 15 1 1 1 4.80324 -0.932008 -8.39797 0 0 0
176 15 1 1 1 4.50219 -1.12025 8.3752 0 0 -1
177 15 1 1 1 5.45184 -1.75253 8.36746 0 0 -1
178 15 1 1 1 4.98 -1.43863 8.13392 0 0 -1
179 15 1 1 1 5.14481 -1.93631 -8.13392 0 0 0
180 15 1 1 1 4.67297 -1.6224 -8.36746 0 0 0
181 16 1 1 1 -8.06857 1.17466 8.04745 0 0 -1
182 16 1 1 1 -7.93336 1.42959 7.95726 0 0 -1
183 16 1 1 1 7.93336 1.94535 -7.95726 -1 0 0
184 16 1 1 1 8.06857 2.20028 -8.04745 -1 0 0
185 16 1 1 1 8.13351 1.91129 8.33897 -1 0 -1
186 16 1 1 1 -8.26966 1.7979 8.10301 0 0 -1
187 16 1 1 1 8.26966 1.57703 -8.10301 -1 0 0
188 16 1 1 1 -8.13351 1.46365 -8.33897 0 0 0
189 16 1 1 1 7.9983 1.65636 8.42916 -1 0 -1
190 16 1 1 1 8.3346 1.28804 8.28341 -1 0 -1
191 16 1 1 1 -8.3346 2.08689 -8.28341 0 0 0
192 16 1 1 1 -7.9983 1.71858 -8.42916 0 0 0
193 17 1 1 1 -5.15052 1.97714 -8.03454 0 0 0
194 17 1 1 1 -5.50726 1.91098 -8.35948 0 0 0
195 17 1 1 1 -4.61755 1.46395 8.35948 0 0 -1
196 17 1 1 1 -4.97429 1.3978 8.03454 0 0 -1
197 17 1 1 1 -5.29096 1.80282 7.79082 0 0 -1
198 17 1 1 1 -5.57748 1.82383 7.99054 0 0 -1
199 17 1 1 1 -4.54733 1.55111 -7.99054 0 0 0
200 17 1 1 1 -4.83385 1.57211 -7.79082 0 0 0
201 17 1 1 1 -4.93422 1.86898 8.11576 0 0 -1
202 17 1 1 1 -4.864 1.95613 -8.23426 0 0 0
203 17 1 1 1 -5.26081 1.4188 8.23426 0 0 -1
204 17 1 1 1 -5.19059 1.50596 -8.11576 0 0 0
205 18 1 1 1 -1.41242 1.00537 -8.13734 0 0 0
206 18 1 1 1 -2.03404 1.25757 -7.86639 0 0 0
207 18 1 1 1 -1.3409 2.11736 7.86639 0 0 -1
208 18 1 1 1 -1.96251 2.36956 8.13734 0 0 -1
209 18 1 1 1 -1.28936 2.08872 -8.27512 0 0 0
210 18 1 1 1 -1.97251 1.79924 -7.93528 0 0 0
211 18 1 1 1 -1.40243 1.57569 7.93528 0 0 -1
212 18 1 1 1 -2.08558 1.28622 8.27512 0 0 -1
213 18 1 1 1 -0.667747 1.83651 8.32862 0 0 -1
214 18 1 1 1 -0.729279 1.29484 8.39751 0 0 -1
215 18 1 1 1 -2.64566 2.08009 -8.39751 0 0 0
216 18 1 1 1 -2.70719 1.53842 -8.32862 0 0 0
217 19 1 1 1 1.58616 1.52475 -8.01161 0 0 0
218 19 1 1 1 1.91495 2.09505 -8.42646 0 0 0
219 19 1 1 1 1.45999 1.27989 8.42646 0 0 -1
220 19 1 1 1 1.78878 1.85019 8.01161 0 0 -1
221 19 1 1 1 2.58416 1.80092 8.01286 0 0 -1
222 19 1 1 1 2.41395 2.23313 8.02312 0 0 -1
223 19 1 1 1 0.960986 1.1418 -8.02312 0 0 0
224 19 1 1 1 0.79078 1.57402 -8.01286 0 0 0
225 19 1 1 1 2.25536 1.23062 8.42771 0 0 -1
226 19 1 1 1 1.75636 1.09254 -8.02187 0 0 0
227 19 1 1 1 1.61857 2.2824 8.02187 0 0 -1
228 19 1 1 1 1.11957 2.14431 -8.42771 0 0 0
229 20 1 1 1 5.61178 1.75425 -7.96931 0 0 0
230 20 1 1 1 5.22143 2.36324 -8.22909 0 0 0
231 20 1 1 1 4.90338 1.0117 8.22909 0 0 -1
232 20 1 1 1 4.51303 1.62069 7.96931 0 0 -1
233 20 1 1 1 5.19444 2.00099 7.58252 0 0 -1
234 20 1 1 1 5.01277 2.4866 7.98417 0 0 -1
235 20 1 1 1 5.11204 0.888331 -7.98417 0 0 0
236 20 1 1 1 4.93036 1.37395 -7.58252 0 0 0
237 20 1 1 1 5.58479 1.392 7.8423 0 0 -1
238 20 1 1 1 5.79346 1.26863 -8.37096 0 0 0
239 20 1 1 1 4.33135 2.1063 8.37096 0 0 -1
240 20 1 1 1 4.54002 1.98294 -7.8423 0 0 0
241 21 1 1 1 8.30814 4.58932 8.37125 -1 0 -1
242 21 1 1 1 8.06375 5.24103 8.16643 -1 0 -1
243 21 1 1 1 -8.06375 4.88378 -8.16643 0 0 0
244 21 1 1 1 -8.30814 5.53549 -8.37125 0 0 0
245 21 1 1 1 7.96794 5.51061 -7.90456 -1 0 0
246 21 1 1 1 7.89365 5.70167 -8.40882 -1 0 0
247 21 1 1 1 -7.89365 4.42314 8.40882 0 0 -1
248 21 1 1 1 -7.96794 4.6142 7.90456 0 0 -1
249 21 1 1 1 8.21233 4.8589 -7.69973 -1 0 0
250 21 1 1 1 8.38243 4.39825 -7.99917 -1 0 0
251 21 1 1 1 -8.38243 5.72656 7.99917 0 0 -1
252 21 1 1 1 -8.21233 5.26591 7.69973 0 0 -1
253 22 1 1 1 -4.54778 4.86697 -8.30567 0 0 0
254 22 1 1 1 -4.91616 4.5228 -8.34894 0 0 0
255 22 1 1 1 -5.20865 5.602 8.34894 0 0 -1
256 22 1 1 1 -5.57703 5.25784 8.30567 0 0 -1
257 22 1 1 1 -5.16428 5.29715 -8.12397 0 0 0
258 22 1 1 1 -5.22441 4.73789 -8.25809 0 0 0
259 22 1 1 1 -4.9004 5.38692 8.25809 0 0 -1
260 22 1 1 1 -4.96053 4.82766 8.12397 0 0 -1
261 22 1 1 1 -4.7959 5.64132 -8.0807 0 0 0
262 22 1 1 1 -4.48765 5.42623 -8.17155 0 0 0
263 22 1 1 1 -5.63716 4.69858 8.17155 0 0 -1
264 22 1 1 1 -5.32891 4.48349 8.0807 0 0 -1
265 23 1 1 1 -1.05425 4.71763 7.79572 0 0 -1
266 23 1 1 1 -1.01857 5.43264 7.84827 0 0 -1
267 23 1 1 1 -2.35637 4.69217 -7.84827 0 0 0
268 23 1 1 1 -2.32068 5.40718 -7.79572 0 0 0
269 23 1 1 1 -2.36679 5.58972 8.16431 0 0 -1
270 23 1 1 1 -1.67484 5.86868 8.03257 0 0 -1
271 23 1 1 1 -1.7001 4.25613 -8.03257 0 0 0
272 23 1 1 1 -1.00814 4.53509 -8.16431 0 0 0
273 23 1 1 1 -2.40248 4.87471 8.11176 0 0 -1
274 23 1 1 1 -1.74621 4.43866 7.92747 0 0 -1
275 23 1 1 1 -1.62873 5.68615 -7.92747 0 0 0
276 23 1 1 1 -0.972456 5.2501 -8.11176 0 0 0
277 24 1 1 1 2.03146 5.3734 8.26394 0 0 -1
278 24 1 1 1 1.24845 5.07323 8.20874 0 0 -1
279 24 1 1 1 2.12649 5.05158 -8.20874 0 0 0
280 24 1 1 1 1.34348 4.75141 -8.26394 0 0 0
281 24 1 1 1 1.44413 4.22636 7.93925 0 0 -1
282 24 1 1 1 0.954786 4.49971 8.0464 0 0 -1
283 24 1 1 1 2.42015 5.6251 -8.0464 0 0 0
284 24 1 1 1 1.9308 5.89845 -7.93925 0 0 0
285 24 1 1 1 2.22714 4.52652 7.99444 0 0 -1
286 24 1 1 1 2.5208 5.10005 8.15679 0 0 -1
287 24 1 1 1 0.854136 5.02476 -8.15679 0 0 0
288 24 1 1 1 1.1478 5.59828 -7.99444 0 0 0
289 25 1 1 1 5.55828 4.95068 -8.43554 0 0 0
290 25 1 1 1 5.25417 5.51627 8.31242 0 0 -1
291 25 1 1 1 4.87064 4.60854 -8.31242 0 0 0
292 25 1 1 1 4.56653 5.17413 8.43554 0 0 -1
293 25 1 1 1 4.91303 4.8748 7.90075 0 0 -1
294 25 1 1 1 4.93155 5.47833 8.04323 0 0 -1
295 25 1 1 1 5.19326 4.64648 -8.04323 0 0 0
296 25 1 1 1 5.21178 5.25001 -7.90075 0 0 0
297 25 1 1 1 5.21713 4.30921 8.02747 0 0 -1
298 25 1 1 1 5.53975 4.34715 8.29666 0 0 -1
299 25 1 1 1 4.58505 5.77766 -8.29666 0 0 0
300 25 1 1 1 4.90768 5.8156 -8.02747 0 0 0
301 26 1 1 1 8.37518 -7.93895 -4.797 -1 0 0
302 26 1 1 1 -8.04496 -8.13125 -4.78846 0 0 0
303 26 1 1 1 8.04496 8.13125 -5.33635 -1 -1 0
304 26 1 1 1 -8.37518 7.93895 -5.32781 0 -1 0
305 26 1 1 1 -8.42874 7.99598 -4.73293 0 -1 0
306 26 1 1 1 -8.00958 8.27355 -4.75642 0 -1 0
307 26 1 1 1 8.00958 -8.27355 -5.36839 -1 0 0
308 26 1 1 1 8.42874 -7.99598 -5.39188 -1 0 0
309 26 1 1 1 7.99141 8.18828 -4.74147 -1 -1 0
310 26 1 1 1 7.95602 -8.21652 -4.7735 -1 0 0
311 26 1 1 1 -7.95602 8.21652 -5.35131 0 -1 0
312 26 1 1 1 -7.99141 -8.18828 -5.38334 0 0 0
313 27 1 1 1 -4.71057 7.995 -4.55446 0 -1 0
314 27 1 1 1 -4.95595 7.68495 -5.05629 0 -1 0
315 27 1 1 1 -5.16886 -7.68495 -5.06852 0 0 0
316 27 1 1 1 -5.41424 -7.995 -5.57035 0 0 0
317 27 1 1 1 -5.38454 -8.18589 -4.80736 0 0 0
318 27 1 1 1 -5.29293 8.03185 -5.18274 0 -1 0
319 27 1 1 1 -4.83188 -8.03185 -4.94207 0 0 0
320 27 1 1 1 -4.74027 8.18589 -5.31745 0 -1 0
321 27 1 1 1 -5.13916 -7.87584 -4.30553 0 0 0
322 27 1 1 1 -4.80217 -8.22274 -4.17908 0 0 0
323 27 1 1 1 -5.32264 8.22274 -5.94573 0 -1 0
324 27 1 1 1 -4.98565 7.87584 -5.81928 0 -1 0
325 28 1 1 1 -1.65426 -8.39596 -4.44385 0 0 0
326 28 1 1 1 -1.29317 -8.37648 -4.58675 0 0 0
327 28 1 1 1 -2.08177 8.37648 -5.53806 0 -1 0
328 28 1 1 1 -1.72068 8.39596 -5.68096 0 -1 0
329 28 1 1 1 -1.54797 8.04316 -5.29188 0 -1 0
330 28 1 1 1 -1.24002 8.28042 -5.01076 0 -1 0
331 28 1 1 1 -2.13491 -8.28042 -5.11405 0 0 0
332 28 1 1 1 -1.82697 -8.04316 -4.83293 0 0 0
333 28 1 1 1 -1.90906 8.02367 -5.14898 0 -1 0
334 28 1 1 1 -1.9622 8.24146 -4.72496 0 -1 0
335 28 1 1 1 -1.41273 -8.24146 -5.39985 0 0 0
336 28 1 1 1 -1.46588 -8.02367 -4.97583 0 0 0
337 29 1 1 1 1.55713 -8.082 -4.80436 0 0 0
338 29 1 1 1 1.98014 -8.17121 -4.83141 0 0 0
339 29 1 1 1 1.3948 8.17121 -5.2934 0 -1 0
340 29 1 1 1 1.8178 8.082 -5.32045 0 -1 0
341 29 1 1 1 1.69083 8.07612 -4.82661 0 -1 0
342 29 1 1 1 2.04699 8.34519 -4.84253 0 -1 0
343 29 1 1 1 1.32795 -8.34519 -5.28228 0 0 0
344 29 1 1 1 1.6841 -8.07612 -5.2982 0 0 0
345 29 1 1 1 1.26783 8.16533 -4.79956 0 -1 0
346 29 1 1 1 1.20098 -8.35107 -4.78844 0 0 0
347 29 1 1 1 2.17395 8.35107 -5.33637 0 -1 0
348 29 1 1 1 2.1071 -8.16533 -5.32525 0 0 0
349 30 1 1 1 4.88959 7.71303 -5.19587 0 -1 0
350 30 1 1 1 5.61251 7.92429 -5.14282 0 -1 0
351 30 1 1 1 4.5123 -7.92429 -4.98199 0 0 0
352 30 1 1 1 5.23522 -7.71303 -4.92894 0 0 0
353 30 1 1 1 5.58788 -7.93621 -5.69503 0 0 0
354 30 1 1 1 5.96165 -8.33767 -5.3924 0 0 0
355 30 1 1 1 4.16316 8.33767 -4.73241 0 -1 0
356 30 1 1 1 4.53693 7.93621 -4.42978 0 -1 0
357 30 1 1 1 4.86496 -8.14746 -5.74808 0 0 0
358 30 1 1 1 4.51582 8.1145 -5.4985 0 -1 0
359 30 1 1 1 5.60899 -8.1145 -4.62631 0 0 0
360 30 1 1 1 5.25985 8.14746 -4.37673 0 -1 0
361 31 1 1 1 7.88286 -4.55453 -4.8219 -1 0 0
362 31 1 1 1 -8.40985 -4.32893 -4.77175 0 0 0
363 31 1 1 1 8.40985 -5.79588 -5.35306 -1 0 0
364 31 1 1 1 -7.88286 -5.57028 -5.30291 0 0 0
365 31 1 1 1 -7.59658 -5.14115 -4.7034 0 0 0
366 31 1 1 1 -7.71223 -4.62224 -4.7125 0 0 0
367 31 1 1 1 7.71223 -5.50257 -5.41231 -1 0 0
368 31 1 1 1 7.59658 -4.98366 -5.42141 -1 0 0
369 31 1 1 1 -8.17855 -5.36675 -4.75355 0 0 0
370 31 1 1 1 7.99852 -5.07344 -4.8128 -1 0 0
371 31 1 1 1 -7.99852 -5.05137 -5.31201 0 0 0
372 31 1 1 1 8.17855 -4.75806 -5.37126 -1 0 0
373 32 1 1 1 -4.71012 -4.54366 -4.59072 0 0 0
374 32 1 1 1 -4.50846 -4.98302 -4.51238 0 0 0
375 32 1 1 1 -5.61635 -5.14179 -5.61243 0 0 0
376 32 1 1 1 -5.41469 -5.58115 -5.53409 0 0 0
377 32 1 1 1 -5.49966 -5.27316 -4.91381 0 0 0
378 32 1 1 1 -4.90323 -5.34777 -4.67392 0 0 0
379 32 1 1 1 -5.22158 -4.77704 -5.45089 0 0 0
380 32 1 1 1 -4.62515 -4.85165 -5.211 0 0 0
381 32 1 1 1 -5.70131 -4.8338 -4.99215 0 0 0
382 32 1 1 1 -5.30654 -4.46905 -4.8306 0 0 0
383 32 1 1 1 -4.81826 -5.65576 -5.29421 0 0 0
384 32 1 1 1 -4.42349 -5.29101 -5.13266 0 0 0
385 33 1 1 1 -1.88184 -5.41197 -4.689 0 0 0
386 33 1 1 1 -2.1172 -5.40113 -5.06405 0 0 0
387 33 1 1 1 -1.25774 -4.72368 -5.06076 0 0 0
388 33 1 1 1 -1.4931 -4.71284 -5.43581 0 0 0
389 33 1 1 1 -2.04333 -4.67007 -5.3824 0 0 0
390 33 1 1 1 -2.19794 -5.03018 -5.41074 0 0 0
391 33 1 1 1 -1.17699 -5.09463 -4.71406 0 0 0
392 33 1 1 1 -1.3316 -5.45474 -4.74241 0 0 0
393 33 1 1 1 -1.80798 -4.6809 -5.00735 0 0 0
394 33 1 1 1 -1.72723 -5.05186 -4.66065 0 0 0
395 33 1 1 1 -1.64771 -5.07295 -5.46415 0 0 0
396 33 1 1 1 -1.56696 -5.4439 -5.11746 0 0 0
397 34 1 1 1 1.46233 -4.40036 -4.87856 0 0 0
398 34 1 1 1 1.61467 -4.67518 -4.45615 0 0 0
399 34 1 1 1 1.76027 -5.44962 -5.66866 0 0 0
400 34 1 1 1 1.9126 -5.72444 -5.24625 0 0 0
401 34 1 1 1 1.39112 -5.63142 -4.80114 0 0 0
402 34 1 1 1 1.57906 -5.29071 -4.41744 0 0 0
403 34 1 1 1 1.79587 -4.8341 -5.70737 0 0 0
404 34 1 1 1 1.98381 -4.49339 -5.32366 0 0 0
405 34 1 1 1 1.23879 -5.3566 -5.22355 0 0 0
406 34 1 1 1 1.27439 -4.74107 -5.26226 0 0 0
407 34 1 1 1 2.10054 -5.38374 -4.86255 0 0 0
408 34 1 1 1 2.13615 -4.76821 -4.90125 0 0 0
409 35 1 1 1 5.55248 -4.59729 -4.86376 0 0 0
410 35 1 1 1 5.23989 -4.76709 -4.4482 0 0 0
411 35 1 1 1 4.88492 -5.35772 -5.67661 0 0 0
412 35 1 1 1 4.57233 -5.52752 -5.26105 0 0 0
413 35 1 1 1 4.39868 -4.89778 -5.01674 0 0 0
414 35 1 1 1 4.66299 -4.91734 -4.52469 0 0 0
415 35 1 1 1 5.46181 -5.20747 -5.60012 0 0 0
416 35 1 1 1 5.72613 -5.22703 -5.10807 0 0 0
417 35 1 1 1 4.71127 -4.72798 -5.4323 0 0 0
418 35 1 1 1 5.28816 -4.57773 -5.35581 0 0 0
419 35 1 1 1 4.83664 -5.54708 -4.769 0 0 0
420 35 1 1 1 5.41354 -5.39683 -4.69251 0 0 0
421 36 1 1 1 8.21181 -1.82815 -4.16182 -1 0 0
422 36 1 1 1 8.4185 -2.42941 -4.48718 -1 0 0
423 36 1 1 1 -8.4185 -0.945525 -5.63763 0 0 0
424 36 1 1 1 -8.21181 -1.54678 -5.96299 0 0 0
425 36 1 1 1 8.13399 -2.283 -5.80949 -1 0 0
426 36 1 1 1 8.37959 -2.65683 -5.31102 -1 0 0
427 36 1 1 1 -8.37959 -0.718103 -4.81379 0 0 0
428 36 1 1 1 -8.13399 -1.09194 -4.31532 0 0 0
429 36 1 1 1 7.9273 -1.68174 -5.48413 -1 0 0
430 36 1 1 1 7.96621 -1.45432 -4.66029 -1 0 0
431 36 1 1 1 -7.96621 -1.92062 -5.46452 0 0 0
432 36 1 1 1 -7.9273 -1.6932 -4.64068 0 0 0
433 37 1 1 1 -4.70553 -1.43772 -5.63088 0 0 0
434 37 1 1 1 -4.92051 -0.995204 -4.94608 0 0 0
435 37 1 1 1 -5.2043 -2.37973 -5.17873 0 0 0
436 37 1 1 1 -5.41928 -1.93722 -4.49393 0 0 0
437 37 1 1 1 -5.9963 -1.38154 -4.96107 0 0 0
438 37 1 1 1 -5.56589 -0.967114 -4.61117 0 0 0
439 37 1 1 1 -4.55892 -2.40782 -5.51364 0 0 0
440 37 1 1 1 -4.12851 -1.9934 -5.16374 0 0 0
441 37 1 1 1 -5.78132 -1.82406 -5.64587 0 0 0
442 37 1 1 1 -5.13593 -1.85215 -5.98077 0 0 0
443 37 1 1 1 -4.98887 -1.52279 -4.14404 0 0 0
444 37 1 1 1 -4.34349 -1.55088 -4.47894 0 0 0
445 38 1 1 1 -1.99366 -2.07674 -4.56868 0 0 0
446 38 1 1 1 -1.37821 -1.98879 -4.5123 0 0 0
447 38 1 1 1 -1.99673 -1.38614 -5.6125 0 0 0
448 38 1 1 1 -1.38128 -1.2982 -5.55613 0 0 0
449 38 1 1 1 -1.47479 -2.04314 -5.54846 0 0 0
450 38 1 1 1 -1.11878 -1.972 -5.0022 0 0 0
451 38 1 1 1 -2.25616 -1.40294 -5.12261 0 0 0
452 38 1 1 1 -1.90014 -1.33179 -4.57634 0 0 0
453 38 1 1 1 -2.09024 -2.13109 -5.60484 0 0 0
454 38 1 1 1 -2.34967 -2.14788 -5.11495 0 0 0
455 38 1 1 1 -1.02526 -1.22705 -5.00986 0 0 0
456 38 1 1 1 -1.2847 -1.24385 -4.51997 0 0 0
457 39 1 1 1 2.44359 -1.89007 -4.53231 0 0 0
458 39 1 1 1 2.60236 -1.79691 -5.274 0 0 0
459 39 1 1 1 0.772578 -1.57802 -4.85081 0 0 0
460 39 1 1 1 0.931343 -1.48487 -5.5925 0 0 0
461 39 1 1 1 1.44496 -2.23515 -5.89185 0 0 0
462 39 1 1 1 2.10304 -1.96946 -5.95377 0 0 0
463 39 1 1 1 1.27189 -1.40548 -4.17104 0 0 0
464 39 1 1 1 1.92998 -1.13978 -4.23296 0 0 0
465 39 1 1 1 1.28619 -2.3283 -5.15016 0 0 0
466 39 1 1 1 1.78551 -2.15576 -4.47039 0 0 0
467 39 1 1 1 1.58943 -1.21918 -5.65442 0 0 0
468 39 1 1 1 2.08874 -1.04663 -4.97465 0 0 0
469 40 1 1 1 4.59444 -2.09105 -4.65809 0 0 0
470 40 1 1 1 4.3807 -1.72188 -4.78056 0 0 0
471 40 1 1 1 5.74411 -1.65306 -5.34425 0 0 0
472 40 1 1 1 5.53037 -1.28389 -5.46672 0 0 0
473 40 1 1 1 5.1114 -1.03227 -5.0441 0 0 0
474 40 1 1 1 4.63918 -1.19249 -4.97357 0 0 0
475 40 1 1 1 5.48563 -2.18244 -5.15124 0 0 0
476 40 1 1 1 5.01341 -2.34266 -5.08071 0 0 0
477 40 1 1 1 5.32514 -1.40144 -4.92162 0 0 0
478 40 1 1 1 5.06666 -1.93083 -4.72861 0 0 0
479 40 1 1 1 5.05815 -1.44411 -5.39619 0 0 0
480 40 1 1 1 4.79967 -1.97349 -5.20319 0 0 0
481 41 1 1 1 -8.03564 1.85609 -4.81819 0 0 0
482 41 1 1 1 8.36527 2.18092 -5.08962 -1 0 0
483 41 1 1 1 -8.36527 1.19402 -5.03518 0 0 0
484 41 1 1 1 8.03564 1.51885 -5.30662 -1 0 0
485 41 1 1 1 8.12691 1.94567 -5.83496 -1 0 0
486 41 1 1 1 8.00921 2.22572 -5.59801 -1 0 0
487 41 1 1 1 -8.00921 1.14922 -4.5268 0 0 0
488 41 1 1 1 -8.12691 1.42926 -4.28985 0 0 0
489 41 1 1 1 -8.274 1.62084 -5.56353 0 0 0
490 41 1 1 1 -7.91794 1.57605 -5.05514 0 0 0
491 41 1 1 1 7.91794 1.79889 -5.06966 -1 0 0
492 41 1 1 1 8.274 1.7541 -4.56128 -1 0 0
493 42 1 1 1 -4.61898 1.49135 -5.64066 0 0 0
494 42 1 1 1 -4.34327 1.89909 -5.14927 0 0 0
495 42 1 1 1 -5.78153 1.47585 -4.97553 0 0 0
496 42 1 1 1 -5.50583 1.88359 -4.48414 0 0 0
497 42 1 1 1 -5.0406 2.56309 -4.55432 0 0 0
498 42 1 1 1 -4.55409 2.43496 -4.6061 0 0 0
499 42 1 1 1 -5.57072 0.939978 -5.51871 0 0 0
500 42 1 1 1 -5.08421 0.811848 -5.57049 0 0 0
501 42 1 1 1 -5.3163 2.15535 -5.04571 0 0 0
502 42 1 1 1 -5.10549 1.61948 -5.58888 0 0 0
503 42 1 1 1 -5.01932 1.75546 -4.53593 0 0 0
504 42 1 1 1 -4.8085 1.21959 -5.0791 0 0 0
505 43 1 1 1 -1.29801 1.28361 -4.52513 0 0 0
506 43 1 1 1 -0.946054 1.85288 -4.89996 0 0 0
507 43 1 1 1 -2.42888 1.52205 -5.22485 0 0 0
508 43 1 1 1 -2.07693 2.09132 -5.59968 0 0 0
509 43 1 1 1 -1.48484 1.49454 -5.89042 0 0 0
510 43 1 1 1 -1.03947 1.95834 -5.58261 0 0 0
511 43 1 1 1 -2.33547 1.41659 -4.5422 0 0 0
512 43 1 1 1 -1.8901 1.8804 -4.23439 0 0 0
513 43 1 1 1 -1.83679 0.925269 -5.51558 0 0 0
514 43 1 1 1 -1.74338 0.819807 -4.83294 0 0 0
515 43 1 1 1 -1.63156 2.55513 -5.29187 0 0 0
516 43 1 1 1 -1.53815 2.44967 -4.60922 0 0 0
517 44 1 1 1 2.00901 1.7009 -4.96417 0 0 0
518 44 1 1 1 1.75049 1.42019 -4.86795 0 0 0
519 44 1 1 1 1.62444 1.95474 -5.25685 0 0 0
520 44 1 1 1 1.36593 1.67404 -5.16064 0 0 0
521 44 1 1 1 1.44236 1.84792 -4.77088 0 0 0
522 44 1 1 1 1.46717 1.4937 -4.77131 0 0 0
523 44 1 1 1 1.90777 1.88123 -5.3535 0 0 0
524 44 1 1 1 1.93258 1.52701 -5.35393 0 0 0
525 44 1 1 1 1.70087 2.12863 -4.86709 0 0 0
526 44 1 1 1 1.9842 2.05512 -4.96373 0 0 0
527 44 1 1 1 1.39074 1.31982 -5.16107 0 0 0
528 44 1 1 1 1.67406 1.24631 -5.25772 0 0 0
529 45 1 1 1 4.53959 1.63707 -5.84517 0 0 0
530 45 1 1 1 4.49948 1.12242 -5.56484 0 0 0
531 45 1 1 1 5.62533 2.25251 -4.55997 0 0 0
532 45 1 1 1 5.58522 1.73787 -4.27963 0 0 0
533 45 1 1 1 5.69 1.3537 -5.01657 0 0 0
534 45 1 1 1 5.07469 0.980738 -5.15054 0 0 0
535 45 1 1 1 5.05012 2.3942 -4.97427 0 0 0
536 45 1 1 1 4.4348 2.02124 -5.10824 0 0 0
537 45 1 1 1 5.73012 1.86834 -5.29691 0 0 0
538 45 1 1 1 5.15491 2.01002 -5.71121 0 0 0
539 45 1 1 1 4.9699 1.36491 -4.4136 0 0 0
540 45 1 1 1 4.39469 1.5066 -4.8279 0 0 0
541 46 1 1 1 -8.03666 4.84985 -5.82192 0 0 0
542 46 1 1 1 8.21386 4.91104 -5.90486 -1 0 0
543 46 1 1 1 -8.21386 5.21377 -4.21995 0 0 0
544 46 1 1 1 8.03666 5.27496 -4.30289 -1 0 0
545 46 1 1 1 8.31481 4.58063 -4.68247 -1 0 0
546 46 1 1 1 7.95226 4.77643 -5.33514 -1 0 0
547 46 1 1 1 -7.95226 5.34838 -4.78967 0 0 0
548 46 1 1 1 -8.31481 5.54418 -5.44234 0 0 0
549 46 1 1 1 -7.93571 4.51944 -4.59953 0 0 0
550 46 1 1 1 -7.67411 4.65405 -5.16925 0 0 0
551 46 1 1 1 7.67411 5.47076 -4.95556 -1 0 0
552 46 1 1 1 7.93571 5.60537 -5.52528 -1 0 0
553 47 1 1 1 -5.25086 4.95177 -5.5759 0 0 0
554 47 1 1 1 -5.0908 4.51539 -5.1692 0 0 0
555 47 1 1 1 -5.03401 5.60942 -4.95561 0 0 0
556 47 1 1 1 -4.87395 5.17303 -4.5489 0 0 0
557 47 1 1 1 -4.4871 5.1469 -5.12088 0 0 0
558 47 1 1 1 -4.70892 4.61295 -4.94169 0 0 0
559 47 1 1 1 -5.41589 5.51186 -5.18312 0 0 0
560 47 1 1 1 -5.63771 4.97791 -5.00393 0 0 0
561 47 1 1 1 -4.64716 5.58328 -5.52758 0 0 0
562 47 1 1 1 -5.02904 5.48572 -5.7551 0 0 0
563 47 1 1 1 -5.09577 4.63909 -4.36971 0 0 0
564 47 1 1 1 -5.47765 4.54153 -4.59722 0 0 0
565 48 1 1 1 -1.55922 5.49315 -4.32999 0 0 0
566 48 1 1 1 -2.05996 5.43498 -4.38353 0 0 0
567 48 1 1 1 -1.31498 4.68983 -5.74127 0 0 0
568 48 1 1 1 -1.81571 4.63166 -5.79482 0 0 0
569 48 1 1 1 -2.27727 5.15835 -5.53757 0 0 0
570 48 1 1 1 -2.41898 5.26758 -4.98732 0 0 0
571 48 1 1 1 -0.955953 4.85723 -5.13749 0 0 0
572 48 1 1 1 -1.09767 4.96645 -4.58724 0 0 0
573 48 1 1 1 -1.77653 5.21653 -5.48402 0 0 0
574 48 1 1 1 -1.41751 5.38393 -4.88023 0 0 0
575 48 1 1 1 -1.95743 4.74088 -5.24458 0 0 0
576 48 1 1 1 -1.59841 4.90828 -4.64079 0 0 0
577 49 1 1 1 1.43928 5.32152 -4.57509 0 0 0
578 49 1 1 1 1.1922 5.02265 -4.71694 0 0 0
579 49 1 1 1 2.18274 5.10216 -5.40787 0 0 0
580 49 1 1 1 1.93566 4.80329 -5.54972 0 0 0
581 49 1 1 1 1.48501 5.1356 -5.52148 0 0 0
582 49 1 1 1 1.21506 4.92969 -5.19014 0 0 0
583 49 1 1 1 2.15987 5.19512 -4.93467 0 0 0
584 49 1 1 1 1.88993 4.98921 -4.60333 0 0 0
585 49 1 1 1 1.73209 5.43447 -5.37962 0 0 0
586 49 1 1 1 1.70922 5.52743 -4.90642 0 0 0
587 49 1 1 1 1.66571 4.59738 -5.21838 0 0 0
588 49 1 1 1 1.64285 4.69034 -4.74519 0 0 0
589 50 1 1 1 5.55102 4.8837 -5.29042 0 0 0
590 50 1 1 1 5.29661 4.64987 -4.74995 0 0 0
591 50 1 1 1 4.82819 5.47494 -5.37486 0 0 0
592 50 1 1 1 4.57379 5.24111 -4.83439 0 0 0
593 50 1 1 1 5.11645 5.46668 -4.42963 0 0 0
594 50 1 1 1 5.07933 4.94136 -4.31955 0 0 0
595 50 1 1 1 5.04548 5.18345 -5.80526 0 0 0
596 50 1 1 1 5.00835 4.65813 -5.69518 0 0 0
597 50 1 1 1 5.37086 5.70052 -4.9701 0 0 0
598 50 1 1 1 5.58814 5.40903 -5.4005 0 0 0
599 50 1 1 1 4.53667 4.71578 -4.72431 0 0 0
600 50 1 1 1 4.75395 4.42429 -5.15471 0 0 0
601 51 1 1 1 8.17323 -7.867 -1.4981 -1 0 0
602 51 1 1 1 7.89314 -8.22241 -1.38989 -1 0 0
603 51 1 1 1 -7.89314 8.22241 -1.98505 0 -1 0
604 51 1 1 1 -8.17323 7.867 -1.87683 0 -1 0
605 51 1 1 1 -8.42815 8.38454 -2.10291 0 -1 0
606 51 1 1 1 8.02979 8.34069 -1.69229 -1 -1 0
607 51 1 1 1 -8.02979 -8.34069 -1.68264 0 0 0
608 51 1 1 1 8.42815 -8.38454 -1.27203 -1 0 0
609 51 1 1 1 -8.14806 -8.13473 -2.21112 0 0 0
610 51 1 1 1 -8.28471 -7.82316 -1.90872 0 0 0
611 51 1 1 1 8.28471 7.82316 -1.46622 -1 -1 0
612 51 1 1 1 8.14806 8.13473 -1.16382 -1 -1 0
613 52 1 1 1 -5.41009 7.67798 -2.10972 0 -1 0
614 52 1 1 1 -4.79221 7.9677 -2.45052 0 -1 0
615 52 1 1 1 -5.3326 -7.9677 -0.924416 0 0 0
616 52 1 1 1 -4.71472 -7.67798 -1.26521 0 0 0
617 52 1 1 1 -5.16242 -7.63289 -2.10425 0 0 0
618 52 1 1 1 -4.66837 -8.12507 -2.44778 0 0 0
619 52 1 1 1 -5.45644 8.12507 -0.927151 0 -1 0
620 52 1 1 1 -4.96238 7.63289 -1.27068 0 -1 0
621 52 1 1 1 -5.78031 -7.92261 -1.76346 0 0 0
622 52 1 1 1 -5.90414 8.17016 -1.76619 0 -1 0
623 52 1 1 1 -4.22066 -8.17016 -1.60874 0 0 0
624 52 1 1 1 -4.3445 7.92261 -1.61148 0 -1 0
625 53 1 1 1 -1.60556 -8.22117 -1.3275 0 0 0
626 53 1 1 1 -1.7286 -8.01588 -1.74829 0 0 0
627 53 1 1 1 -1.64633 8.01588 -1.62665 0 -1 0
628 53 1 1 1 -1.76937 8.22117 -2.04744 0 -1 0
629 53 1 1 1 -1.47996 -8.28659 -2.31437 0 0 0
630 53 1 1 1 -1.6658 -8.04859 -2.24172 0 0 0
631 53 1 1 1 -1.70914 8.04859 -1.13322 0 -1 0
632 53 1 1 1 -1.89498 8.28659 -1.06057 0 -1 0
633 53 1 1 1 -1.35692 8.38281 -1.89358 0 -1 0
634 53 1 1 1 -1.41972 8.41552 -1.40015 0 -1 0
635 53 1 1 1 -1.95522 -8.41552 -1.97479 0 0 0
636 53 1 1 1 -2.01802 -8.38281 -1.48136 0 0 0
637 54 1 1 1 1.33264 8.14649 -2.24813 0 -1 0
638 54 1 1 1 1.15857 -8.14832 -2.08943 0 0 0
639 54 1 1 1 2.21636 8.14832 -1.28551 0 -1 0
640 54 1 1 1 2.0423 -8.14649 -1.12681 0 0 0
641 54 1 1 1 1.42139 8.28601 -1.14726 0 -1 0
642 54 1 1 1 1.20295 -8.07856 -1.53899 0 0 0
643 54 1 1 1 2.17199 8.07856 -1.83594 0 -1 0
644 54 1 1 1 1.95354 -8.28601 -2.22768 0 0 0
645 54 1 1 1 1.59546 7.70614 -1.30596 0 -1 0
646 54 1 1 1 1.55108 7.63638 -1.85639 0 -1 0
647 54 1 1 1 1.82386 -7.63638 -1.51854 0 0 0
648 54 1 1 1 1.77948 -7.70614 -2.06898 0 0 0
649 55 1 1 1 4.9481 -7.94108 -2.44947 0 0 0
650 55 1 1 1 4.72969 -7.68569 -2.09282 0 0 0
651 55 1 1 1 5.39512 7.68569 -1.28212 0 -1 0
652 55 1 1 1 5.17671 7.94108 -0.925466 0 -1 0
653 55 1 1 1 4.55364 8.26841 -1.2278 0 -1 0
654 55 1 1 1 4.53246 -8.01828 -1.48198 0 0 0
655 55 1 1 1 5.59235 8.01828 -1.89295 0 -1 0
656 55 1 1 1 5.57117 -8.26841 -2.14714 0 0 0
657 55 1 1 1 4.77205 8.01302 -1.58445 0 -1 0
658 55 1 1 1 4.96927 8.34562 -2.19529 0 -1 0
659 55 1 1 1 5.15553 -8.34562 -1.17965 0 0 0
660 55 1 1 1 5.35276 -8.01302 -1.79048 0 0 0
661 56 1 1 1 -8.33343 -5.06866 -2.52196 0 0 0
662 56 1 1 1 8.43043 -4.48392 -2.29781 -1 0 0
663 56 1 1 1 -8.43043 -5.64089 -1.07713 0 0 0
664 56 1 1 1 8.33343 -5.05614 -0.852979 -1 0 0
665 56 1 1 1 7.81177 -4.56408 -1.25244 -1 0 0
666 56 1 1 1 8.06568 -4.23162 -1.66305 -1 0 0
667 56 1 1 1 -8.06568 -5.89318 -1.71189 0 0 0