LAMMPS data file via write_data, version 24 Dec 2020, timestep = 400000

10000 atoms
1 atom types

9.95143358025075 331.8139610404791 xlo xhi
9.95143358025075 331.8139610404791 ylo yhi
0 1 zlo zhi
0 0 0 xy xz yz

Atoms # sphere

5 1 53.3452 1 24.11983771564243 68.3864105656564 0 0 0 0
16 1 27.0148 1 44.452300814629524 34.553717084559324 0 0 0 0
17 1 25.5929 1 68.38354504971392 54.06475170935992 0 0 0 0
37 1 16.0333 1 21.245215917793043 25.77572727368242 0 0 0 0
8263 1 1.097 1 11.708192742157616 17.87628382394025 0 1 0 0
3384 1 1.72 1 50.90886093789832 62.30285871322583 0 0 0 0
1246 1 2.857 1 48.42720785177107 19.125614604813737 0 0 1 0
163 1 7.4543 1 52.92059018138831 11.758077886663509 0 0 0 0
166 1 7.4036 1 52.22842193013173 57.14032835838031 0 0 0 0
168 1 7.3782 1 67.8997369874434 37.71308832601801 0 0 0 0
6557 1 1.2369 1 11.295799175061966 44.30117186186906 0 1 0 0
208 1 6.6527 1 61.1259176496811 36.19196224734089 0 0 0 0
336 1 5.417 1 65.06953771853591 21.29750437142649 0 0 0 0
346 1 5.3618 1 22.215439365950207 37.0147208031179 0 0 0 0
5513 1 1.3496 1 57.12033179181392 10.64220332754185 0 0 0 0
412 1 4.8776 1 17.672010595684508 40.11493119326499 0 0 0 0
439 1 4.6882 1 71.11713930089661 21.10972952271469 0 0 0 0
511 1 4.3207 1 61.99786200551653 15.7285378811011 0 0 0 0
527 1 4.2767 1 51.578706654445845 20.727968822288982 0 0 0 0
4272 1 1.5377 1 57.071595881584244 19.179812412376158 0 0 1 0
543 1 4.2317 1 27.26359333718018 39.94157599264931 0 0 0 0
562 1 4.1677 1 59.81433643375789 66.07528891967839 0 0 0 0
567 1 4.1383 1 16.49975368111738 34.647919218460544 0 0 0 0
569 1 4.1329 1 29.01334056124924 32.03678406685905 0 0 0 0
600 1 4.0221 1 54.27815300580397 62.3600853316132 0 0 0 0
5108 1 1.4029 1 73.73125627225376 19.677797581451607 0 0 0 0
617 1 3.975 1 55.98574134419896 67.02182364027037 0 0 0 0
629 1 3.9339 1 70.33990954744172 31.235263322465816 0 0 0 0
632 1 3.927 1 59.10259779677181 20.90661579877451 0 0 0 0
675 1 3.8345 1 67.43217050972282 25.075831741614678 0 0 0 0
7224 1 1.1762 1 60.56971642466663 73.63795194238719 0 0 0 0
781 1 3.6204 1 65.88843570308798 16.951378069907122 0 0 0 0
816 1 3.5492 1 29.47255639818249 36.989781506165265 0 0 0 0
818 1 3.5444 1 71.07247296695553 25.216862431845435 0 0 0 0
826 1 3.5256 1 56.16977635130581 23.054438891951555 0 0 0 0
839 1 3.4855 1 59.32150307446647 31.552032584430012 0 0 0 0
844 1 3.4658 1 63.84742712072895 29.721610754958064 0 0 0 0
848 1 3.4621 1 30.529974422317608 23.147962676957526 0 0 0 0
917 1 3.3207 1 37.49425767354572 19.137889093582253 0 0 0 0
924 1 3.3086 1 61.362409489439216 27.55964246321922 0 0 0 0
936 1 3.2842 1 25.72506969645315 34.50534872289077 0 0 0 0
980 1 3.2089 1 66.77355321573 31.18937461590332 0 0 0 0
3643 1 1.6639 1 29.605676776639253 20.209519255093625 0 0 0 0
7408 1 1.1605 1 13.145943365896626 22.862344767769148 0 1 0 0
731 1 3.7184 1 11.371529623751211 11.959060629768377 0 1 1 0
9783 1 1.0108 1 55.897218689184704 48.853888928147974 0 0 0 0
1098 1 3.022 1 58.94523543151384 17.586632061296957 0 0 0 0
1130 1 2.9764 1 40.52800802097554 19.85798344953009 0 0 0 0
1146 1 2.9657 1 64.39536492055794 26.56603410929875 0 0 0 0
1205 1 2.9015 1 59.54874892085466 41.223954711613175 0 0 0 0
1238 1 2.8644 1 60.391561074062416 12.588040772385634 0 0 0 0
1253 1 2.8463 1 53.14658405182607 46.639657557123265 0 0 0 0
1292 1 2.8008 1 64.27675793080158 32.76015981503821 0 0 0 0
1297 1 2.7955 1 13.094629597082976 39.590193617914004 0 0 0 0
1304 1 2.7888 1 65.31832474321456 67.76499997369828 0 0 0 0
1311 1 2.7798 1 58.34714272106967 44.18848063856835 0 0 0 0
1335 1 2.754 1 48.44682319528975 48.80955370960881 0 0 0 0
1343 1 2.7444 1 67.75502453412935 13.531572653521604 0 0 0 0
1383 1 2.7011 1 14.14192126369561 37.05172821950583 0 0 0 0
1387 1 2.6993 1 50.32521797991111 52.5105169682769 0 0 0 0
1391 1 2.6917 1 36.98685331596068 21.92532627575025 0 0 0 0
1452 1 2.6196 1 57.46494085658486 13.878431627474123 0 0 0 0
1475 1 2.6 1 55.711876232464256 44.48686004946718 0 0 0 0
1513 1 2.5624 1 32.542826509557635 21.034403230868637 0 0 0 0
3866 1 1.6136 1 25.32673267191501 13.684962628572073 0 1 1 0
1554 1 2.531 1 43.738257501410494 19.82037458257497 0 0 0 0
4832 1 1.4446 1 37.30763014726111 15.487739846852724 0 0 1 0
1686 1 2.4305 1 14.238865229922308 41.898168898809914 0 0 0 0
977 1 3.2106 1 13.837933335626799 18.15398350428586 0 1 0 0
6789 1 1.2137 1 45.32107423231822 10.648790727834042 0 0 1 0
1802 1 2.3534 1 71.10607833186634 68.93014319970447 0 0 0 0
4270 1 1.5379 1 27.411323497260785 11.733050451315393 0 0 1 0
6333 1 1.2585 1 67.01888590159469 68.79339028698848 0 0 0 0
1865 1 2.3223 1 32.98334217711584 24.563224315918916 0 0 0 0
1886 1 2.3096 1 58.51045507819586 24.836502033882496 0 0 0 0
7839 1 1.1265 1 28.17382673667021 18.962871414936934 0 1 0 0
1904 1 2.2971 1 47.37375365147601 51.487721471809294 0 0 0 0
1932 1 2.2815 1 58.860641198945295 10.640507503203354 0 0 0 0
1989 1 2.2483 1 58.65282952323648 27.03318437492474 0 0 0 0
2051 1 2.2085 1 71.72184232212858 33.97385419742032 0 0 0 0
9606 1 1.0204 1 53.32694279678997 18.412033106710727 0 0 0 0
2181 1 2.1455 1 57.205741786136855 63.23519743812247 0 0 0 0
2205 1 2.1343 1 73.03800358711541 35.63994789353036 0 0 0 0
2244 1 2.1187 1 34.69007620917871 21.68653644919963 0 0 0 0
1803 1 2.3533 1 68.86352406384326 10.109035764573735 0 0 0 0
2271 1 2.1066 1 67.23707947825095 28.664988930119456 0 0 0 0
2286 1 2.101 1 55.548042629275166 15.693903799522793 0 0 0 0
2313 1 2.0838 1 54.628652221417255 53.100230369407896 0 0 0 0
7604 1 1.1438 1 48.46470414007908 10.134528052239032 0 0 1 0
2370 1 2.0591 1 56.45825305691895 17.53321768302472 0 0 0 0
8013 1 1.1137 1 12.629201801744236 30.164892400571038 0 1 0 0
2408 1 2.0449 1 56.91322996355052 46.42044871252963 0 0 0 0
2529 1 1.9999 1 12.558479091814647 43.29752886361088 0 0 0 0
2545 1 1.9909 1 52.774709698422946 48.95961897372272 0 0 0 0
6831 1 1.2093 1 69.59359535080002 73.92111797931956 0 0 0 0
2561 1 1.985 1 63.690041011746466 41.19738951147974 0 0 0 0
2600 1 1.9673 1 37.47368406895322 13.938876152000875 0 0 0 0
2629 1 1.9572 1 51.60928524015589 50.4828747273608 0 0 0 0
2631 1 1.9568 1 31.344273988415825 40.73268223724883 0 0 0 0
2671 1 1.9414 1 71.62215517053401 28.444199174308785 0 0 0 0
9959 1 1.0029 1 48.22589374839844 55.728121196880394 0 0 0 0
7436 1 1.1582 1 11.031332812880011 18.747817463760057 0 1 0 0
9538 1 1.0238 1 53.01981861384297 51.0237425755917 0 0 0 0
2753 1 1.9103 1 59.27544711076752 28.968012818567274 0 0 0 0
2767 1 1.9064 1 56.86225411216003 61.263311745631434 0 0 0 0
2775 1 1.9047 1 60.00925437528187 69.07410626769179 0 0 0 0
2797 1 1.894 1 64.22023491968085 13.654952374168497 0 0 0 0
875 1 3.415 1 52.376560771544064 69.89474614345318 0 0 0 0
2836 1 1.8833 1 22.738456722925328 40.7355421289515 0 0 0 0
2843 1 1.8818 1 61.62286871809679 22.147370059597336 0 0 0 0
6976 1 1.1962 1 26.756305864526546 16.81476365541611 0 1 0 0
2887 1 1.8657 1 54.78432201904281 20.756872095852824 0 0 0 0
3176 1 1.7715 1 61.809895167133945 68.21767765230811 0 0 0 0
3012 1 1.8247 1 30.81496772328223 28.07266335722842 0 0 0 0
3020 1 1.8199 1 35.370743826130045 23.454981545444063 0 0 0 0
5165 1 1.3931 1 13.068972849695891 31.307728479189322 0 0 0 0
3060 1 1.8099 1 30.89218637661062 29.82039574090449 0 0 0 0
194 1 6.9422 1 45.29698442270533 15.428236752380577 0 0 0 0
3114 1 1.7915 1 57.52125397032852 28.66520032771357 0 0 0 0
3151 1 1.7783 1 70.08506953728582 18.082627093524398 0 0 0 0
3175 1 1.7717 1 48.23523225448829 53.315837026914004 0 0 0 0
3912 1 1.6057 1 52.46982743046355 72.33884924780489 0 0 0 0
3218 1 1.7608 1 26.81570340649772 36.83385939366368 0 0 0 0
3219 1 1.7606 1 73.0210962335243 29.58991374801558 0 0 0 0
3258 1 1.751 1 65.72294153125323 12.772408724165027 0 0 0 0
3285 1 1.7442 1 72.50547452480896 37.47897373026868 0 0 0 0
3295 1 1.7414 1 62.6615337475886 12.798907532798363 0 0 0 0
3303 1 1.7393 1 58.29137583953035 69.64218110116734 0 0 0 0
3315 1 1.7361 1 18.555134318482324 36.98906884255766 0 0 0 0
3336 1 1.7322 1 63.50255992892867 24.419941768035468 0 0 0 0
3351 1 1.728 1 55.342698732238375 50.08662428560213 0 0 0 0
3370 1 1.7234 1 55.48212571860288 19.128363582411225 0 0 0 0
3396 1 1.7163 1 12.018682800699116 41.5396873586038 0 0 0 0
3409 1 1.7124 1 30.179285378365478 34.579081872380115 0 0 0 0
3418 1 1.7114 1 69.1808394077716 28.735486116493117 0 0 0 0
3433 1 1.7087 1 56.71809031536441 25.57472666552483 0 0 0 0
3855 1 1.6164 1 37.13554089163171 16.85695297329923 0 0 1 0
3439 1 1.7061 1 55.09390097227477 47.76676114397607 0 0 0 0
3440 1 1.7056 1 68.41779856995349 17.719598523644954 0 0 0 0
2570 1 1.982 1 24.25998766458693 16.0566777493284 0 1 0 0
3472 1 1.6992 1 63.56257263287335 18.181368434915115 0 0 0 0
3475 1 1.6991 1 28.160084762531916 34.77899743316956 0 0 0 0
1489 1 2.5899 1 56.215625327257406 70.2211586078717 0 0 0 0
3549 1 1.682 1 61.28825559810334 42.5545683348196 0 0 0 0
3590 1 1.6735 1 44.74892573141897 50.25101719478751 0 0 0 0
3604 1 1.6702 1 56.71182252357444 27.19609377052764 0 0 0 0
3788 1 1.6324 1 12.071221127943291 16.583444897809404 0 1 0 0
9552 1 1.0232 1 19.958269199270543 34.82965817852319 0 0 0 0
884 1 3.3819 1 11.137450505140139 20.984548024869177 0 1 0 0
3723 1 1.6437 1 24.412754297769773 39.57042674202775 0 0 0 0
4926 1 1.4289 1 15.666427591195982 15.502626929076149 0 1 0 0
3806 1 1.628 1 31.26751396145635 25.50239861163295 0 0 0 0
3889 1 1.61 1 61.748689715836015 31.034535400423213 0 0 0 0
3893 1 1.6097 1 62.56349265902355 66.735017685162 0 0 0 0
3976 1 1.5908 1 71.14823032396106 40.767363364779634 0 0 0 0
3990 1 1.5888 1 57.32135580029972 15.965216884194383 0 0 0 0
9799 1 1.0099 1 18.83608165636928 17.611021041672153 0 1 0 0
4024 1 1.5786 1 68.33437689160718 22.532966926933614 0 0 0 0
7643 1 1.1408 1 58.180089337146384 73.35878548859866 0 0 0 0
4050 1 1.5744 1 49.12778795946305 50.81572835506739 0 0 0 0
4137 1 1.5607 1 28.036234059717437 20.25841330263256 0 0 0 0
7332 1 1.1679 1 51.9337563472829 61.36273687442941 0 0 0 0
4100 1 1.5662 1 72.04136644945099 39.04200460216926 0 0 0 0
4107 1 1.565 1 61.56287801492413 69.82033511849103 0 0 0 0
6600 1 1.2315 1 23.144272636154263 17.35739940867616 0 1 0 0
6043 1 1.29 1 53.551193229402195 67.91026530303162 0 0 0 0
4138 1 1.5607 1 56.23480611035232 42.520720452909465 0 0 0 0
4143 1 1.5597 1 52.87709986036984 17.1437954513278 0 0 0 0
4180 1 1.553 1 29.77660956884373 41.52617003383597 0 0 0 0
4190 1 1.5509 1 32.74835071647586 26.431009799816316 0 0 0 0
4252 1 1.5421 1 24.63035651314462 41.05167727895035 0 0 0 0
5554 1 1.3439 1 13.579977488448733 21.572036324606966 0 1 0 0
4271 1 1.5379 1 53.45088832874617 23.514491880125387 0 0 0 0
4323 1 1.5281 1 61.74850886664289 20.3998707312655 0 0 0 0
8381 1 1.0883 1 11.138669939645524 14.311161589276917 0 1 1 0
4989 1 1.4218 1 12.246479562050018 37.70565580183447 0 1 0 0
4381 1 1.5182 1 64.29960615199721 11.998556094213566 0 0 0 0
4382 1 1.5178 1 66.60749910870652 33.48768578888803 0 0 0 0
533 1 4.2487 1 71.92775598865786 72.51680465558125 0 0 0 0
4451 1 1.5063 1 57.68182015219624 42.245779578541736 0 0 0 0
4461 1 1.5037 1 55.193126360881855 25.308694289205015 0 0 0 0
4069 1 1.5714 1 59.449710687245656 72.93192183284526 0 0 0 0
4480 1 1.5008 1 70.20491081970587 27.550855577543114 0 0 0 0
4497 1 1.4979 1 57.99238024518637 38.69726652798251 0 0 0 0
1954 1 2.2684 1 54.41477551346289 71.78626535778598 0 0 0 0
4522 1 1.4941 1 34.273499729659974 20.00505093168272 0 0 0 0
4527 1 1.4937 1 44.33624267238484 48.76648047809402 0 0 0 0
8443 1 1.0848 1 14.387671790101248 33.155319969343964 0 0 0 0
4624 1 1.4777 1 30.90401225323106 39.060554182952664 0 0 0 0
4628 1 1.4773 1 58.701188304995036 15.450449370197434 0 0 0 0
5637 1 1.3332 1 14.39398425363588 31.087628986508697 0 1 0 0
4722 1 1.4601 1 38.98278014946694 21.421888883068615 0 0 0 0
100 1 9.5786 1 31.84306867044279 15.10696651886963 0 1 1 0
4735 1 1.4587 1 28.80760556533261 21.499264287507486 0 0 0 0
6664 1 1.2255 1 70.20380794507888 70.4546177917392 0 0 0 0
4762 1 1.4544 1 57.70263418856887 40.1080421534986 0 0 0 0
4796 1 1.4496 1 46.08036561014387 19.446186441123523 0 0 0 0
3436 1 1.7079 1 39.566949372720615 17.784106344382607 0 0 0 0
4820 1 1.4459 1 62.784918579602724 39.817154835562434 0 0 0 0
4868 1 1.4381 1 53.94543476423435 22.15722850306937 0 0 0 0
4872 1 1.4378 1 68.40097377440583 27.448673426893937 0 0 0 0
4893 1 1.4337 1 60.31811493877007 24.63499010647341 0 0 0 0
4913 1 1.4304 1 62.4918028752624 25.54292245655283 0 0 0 0
4950 1 1.4257 1 61.40052960573872 40.16840300968619 0 0 0 0
4953 1 1.4255 1 68.88136012075763 67.4817414525294 0 0 0 0
4998 1 1.4204 1 67.46310957104718 18.91232693583399 0 0 0 0
5007 1 1.4198 1 53.87112039365382 16.069070357225563 0 0 0 0
5046 1 1.4137 1 71.55378103122678 67.15160576911266 0 0 0 0
5063 1 1.4107 1 19.08075706059839 35.57022177707187 0 0 0 0
5068 1 1.4098 1 20.54694170459081 41.31978022345696 0 0 0 0
9833 1 1.0086 1 69.42121675015684 72.07476038447479 0 0 0 0
729 1 3.7291 1 73.95222437090042 32.127990884854306 0 0 0 0
5123 1 1.3992 1 20.791013561568132 40.00252882155995 0 0 0 0
2713 1 1.9259 1 54.5227766707165 17.591703133837974 0 0 0 0
5190 1 1.3897 1 68.83820734387102 19.163496639701286 0 0 0 0
5223 1 1.3863 1 73.43942235069349 38.98983753739385 0 0 0 0
5259 1 1.3808 1 69.04397170029343 33.524315616585774 0 0 0 0
5266 1 1.3805 1 25.52704538023627 37.73385179303943 0 0 0 0
5286 1 1.3775 1 56.416856795508146 20.539759208087055 0 0 0 0
9737 1 1.0132 1 54.53472465915833 69.75718129886587 0 0 0 0
5363 1 1.3683 1 59.51027673851589 14.405244880762202 0 0 0 0
5372 1 1.3675 1 72.82070254849516 40.208653261853314 0 0 0 0
5374 1 1.3675 1 59.66363031888947 23.438562500992774 0 0 0 0
5390 1 1.3651 1 50.621966698846535 48.597268496156026 0 0 0 0
5437 1 1.3584 1 57.31676931852688 11.938236583950586 0 0 0 0
5510 1 1.3498 1 54.00097743544999 19.36194835214913 0 0 0 0
9068 1 1.0488 1 11.866797641309182 28.24284180391429 0 1 0 0
3566 1 1.6774 1 46.5323469584031 11.362130565522143 0 0 1 0
5545 1 1.3448 1 53.202799561610554 52.21677575714142 0 0 0 0
5549 1 1.3442 1 62.08021485281408 41.322613268251175 0 0 0 0
5576 1 1.3407 1 62.386074716056 19.127213305094227 0 0 0 0
5587 1 1.3389 1 45.581370231040445 51.490643393266744 0 0 0 0
5601 1 1.3372 1 50.15930963226708 49.842928182944426 0 0 0 0
5694 1 1.3266 1 53.84457569018528 50.160630881271466 0 0 0 0
8487 1 1.0818 1 50.921053345644474 63.730215499018676 0 0 0 0
3679 1 1.6538 1 74.05929785120067 27.15913917133816 0 0 0 0
5846 1 1.3101 1 65.6319348282737 28.260454017466596 0 0 0 0
5856 1 1.3093 1 67.78719976835336 11.554567450842091 0 0 0 0
5884 1 1.3063 1 56.88374675441005 41.17798602364711 0 0 0 0
5932 1 1.3018 1 69.39793147483803 23.49981051867104 0 0 0 0
5943 1 1.3005 1 58.87261241924439 63.53536063078179 0 0 0 0
6006 1 1.2939 1 46.73407137058329 53.13096429844211 0 0 0 0
6035 1 1.2911 1 74.07735610417832 20.915707125160367 0 0 0 0
6036 1 1.291 1 19.109816197157294 34.12378645919833 0 0 0 0
6063 1 1.2872 1 42.95869315987816 48.617892354499 0 0 0 0
6094 1 1.284 1 60.96126662196444 29.820571512855555 0 0 0 0
6124 1 1.2811 1 55.95756997300287 64.40272538323059 0 0 0 0
6180 1 1.2743 1 61.845896080080074 24.364898781296816 0 0 0 0
6181 1 1.2742 1 14.943456112261858 38.82241665235318 0 0 0 0
6197 1 1.2718 1 68.73690183423496 15.2511360691707 0 0 0 0
8759 1 1.0661 1 52.32828358323093 18.253960956928236 0 0 0 0
6358 1 1.2561 1 55.231928768717296 51.56081371741774 0 0 0 0
6428 1 1.2493 1 23.54178514999027 34.044574943402935 0 0 0 0
6432 1 1.249 1 65.26152590703087 41.057000377393706 0 0 0 0
6570 1 1.2355 1 29.401552564863803 28.419560695418422 0 0 0 0
6575 1 1.2351 1 68.20790066654659 16.329733315660178 0 0 0 0
6598 1 1.2316 1 65.85033285690255 14.306840981415604 0 0 0 0
6626 1 1.2296 1 60.95122361724621 23.50399843203781 0 0 0 0
6637 1 1.2287 1 17.09043050394789 37.191022375824815 0 0 0 0
8056 1 1.1111 1 11.801377500197704 33.305068152472344 0 1 0 0
6729 1 1.2196 1 57.42157209012741 64.87874208209207 0 0 0 0
6782 1 1.2148 1 74.09533514015801 28.580197306909046 0 0 0 0
6796 1 1.2127 1 32.21683020643173 27.676757016989527 0 0 0 0
6803 1 1.2123 1 66.35073675433915 27.286952154086677 0 0 0 0
6815 1 1.2107 1 70.24329825669525 67.35654985406137 0 0 0 0
6839 1 1.2084 1 29.855621751929828 25.383200266965872 0 0 0 0
9707 1 1.0148 1 64.33660627345225 39.88219873437153 0 0 0 0
6956 1 1.1978 1 73.51479359484813 41.72467314253113 0 0 0 0
6959 1 1.1977 1 72.39198104539517 41.350360544556196 0 0 0 0
6962 1 1.1975 1 58.25390055271464 68.2152121048119 0 0 0 0
6975 1 1.1962 1 42.38124809417982 18.521021882923474 0 0 0 0
7008 1 1.1934 1 54.3608165077184 49.01227119763141 0 0 0 0
8222 1 1.1002 1 14.653406023709762 16.189758255855086 0 1 0 0
9845 1 1.008 1 54.27104031204927 68.79547830793256 0 0 0 0
7112 1 1.1846 1 65.53721487716935 34.21209095780064 0 0 0 0
7130 1 1.1835 1 70.11554297056705 34.102348522491035 0 0 0 0
7162 1 1.1809 1 50.12031695980841 47.444572892784954 0 0 0 0
7178 1 1.1799 1 56.50260811963256 47.95866127846621 0 0 0 0
9973 1 1.002 1 71.48029064659276 35.55611718404336 0 0 0 0
5300 1 1.3759 1 18.58705004728394 16.225217597515496 0 1 0 0
7250 1 1.1739 1 62.52073880028277 23.3639430565633 0 0 0 0
7257 1 1.1737 1 45.41304867227 20.534591456465492 0 0 0 0
7264 1 1.1734 1 54.0679504014864 51.352892832466146 0 0 0 0
7286 1 1.1721 1 41.20770042193526 17.88230406069535 0 0 0 0
7291 1 1.1716 1 33.934134559826894 23.124349321894776 0 0 0 0
7299 1 1.1709 1 41.37417874728591 16.71249791489505 0 0 0 0
7327 1 1.1682 1 31.78844153623847 42.23073654308751 0 0 0 0
7333 1 1.1678 1 32.81442830936017 22.849845446158675 0 0 0 0
5167 1 1.3926 1 14.407598887766524 20.381644976926008 0 1 0 0
7372 1 1.1638 1 52.2029089074234 52.92478535741576 0 0 0 0
7379 1 1.1632 1 51.16576108725492 46.91635829209038 0 0 0 0
7421 1 1.1595 1 31.46625573266205 26.80184773284914 0 0 0 0
7460 1 1.1563 1 69.35414515213152 16.6548065373143 0 0 0 0
7473 1 1.1549 1 72.46676769604105 27.1550403473535 0 0 0 0
7496 1 1.1528 1 35.288653449518826 19.19275256975903 0 0 0 0
7537 1 1.1497 1 53.94920147054847 44.87117389773805 0 0 0 0
7574 1 1.1461 1 32.88858268074688 42.590387370654405 0 0 0 0
7633 1 1.1419 1 60.05751420410935 43.23806447347882 0 0 0 0
7648 1 1.1404 1 63.83632502159209 38.95354070106806 0 0 0 0
7661 1 1.1392 1 61.255316011074115 25.400540864439783 0 0 0 0
6751 1 1.218 1 11.399684272599906 15.405503760059457 0 1 1 0
7697 1 1.1367 1 59.92041088160048 25.860438549729558 0 0 0 0
7749 1 1.1324 1 63.84841784463263 66.57363530147254 0 0 0 0
7758 1 1.1316 1 64.6084116533431 15.041683089282603 0 0 0 0
7770 1 1.1308 1 15.879681880680259 42.47602751874353 0 0 0 0
7786 1 1.1297 1 67.61400351883628 67.6431894376033 0 0 0 0
7792 1 1.1293 1 69.30373787525687 26.637442454727047 0 0 0 0
7814 1 1.1279 1 20.751709785701483 34.21826370651774 0 0 0 0
7852 1 1.1248 1 15.978078002225343 37.614850503731176 0 0 0 0
7895 1 1.1217 1 46.10811984082155 50.38478411600349 0 0 0 0
7897 1 1.1216 1 41.440614308997965 14.343433686814205 0 0 0 0
1959 1 2.2649 1 25.668258041680957 10.639979010437894 0 0 1 0
7941 1 1.1186 1 62.45744403579221 32.17180596390706 0 0 0 0
7984 1 1.1154 1 54.7420011679297 64.8468091746594 0 0 0 0
8037 1 1.1123 1 51.64650813648305 47.926327768082736 0 0 0 0
8053 1 1.1112 1 67.57248988777033 15.380157028172166 0 0 0 0
8058 1 1.1106 1 68.28812143057664 32.602579482129066 0 0 0 0
4785 1 1.4509 1 49.81526993183835 15.106957386458898 0 0 1 0
8182 1 1.1023 1 46.63859786179851 49.440337420050625 0 0 0 0
8202 1 1.1013 1 68.09348139417827 20.132183298486254 0 0 0 0
8206 1 1.1012 1 61.4395371268538 18.363352410735246 0 0 0 0
682 1 3.822 1 52.424762161520675 65.66078239590477 0 0 0 0
8285 1 1.0959 1 64.7300559209138 34.94593732471057 0 0 0 0
8410 1 1.0871 1 36.5832477645503 12.747051729933423 0 0 0 0
8302 1 1.0944 1 28.958531633260943 29.460025464402523 0 0 0 0
8319 1 1.0927 1 68.27629034051094 21.202787477651217 0 0 0 0
8339 1 1.0911 1 42.262431945065735 20.753265962238107 0 0 0 0
7940 1 1.1187 1 24.341209285147386 14.555072877747687 0 1 0 0
9978 1 1.0014 1 52.69731419927677 15.929290644623904 0 0 0 0
7425 1 1.1593 1 59.42662867958127 74.24744757396661 0 0 0 0
7902 1 1.1211 1 69.21498347790907 71.06313932603871 0 0 0 0
8455 1 1.0841 1 52.07899630689126 51.85585795009055 0 0 0 0
997 1 3.1796 1 39.60036959427206 15.410264425191615 0 0 0 0
9801 1 1.0099 1 26.483612591286672 32.496926798625616 0 0 0 0
8536 1 1.0788 1 45.61781875229788 49.03773889737847 0 0 0 0
8569 1 1.0769 1 30.29936953578687 26.436107426979234 0 0 0 0
8580 1 1.0764 1 59.01416502765014 39.38080412711162 0 0 0 0
1801 1 2.3544 1 58.10774729654746 71.63890594274832 0 0 0 0
8638 1 1.0727 1 55.79812682762731 60.20660095452676 0 0 0 0
8693 1 1.0703 1 10.664639176975667 41.245640659219845 0 0 0 0
8715 1 1.069 1 61.41419440653717 32.36072568179989 0 0 0 0
8740 1 1.0674 1 29.638409039831256 27.27101180808505 0 0 0 0
8757 1 1.0664 1 72.66063744630077 66.65561046087707 0 0 0 0
6758 1 1.2177 1 47.79260656364087 20.951878570561508 0 0 1 0
8853 1 1.0599 1 35.70276494388808 20.406252351630457 0 0 0 0
8871 1 1.0589 1 73.07386183934202 28.085746429959045 0 0 0 0
1143 1 2.9682 1 50.62429310831002 17.270524405064922 0 0 1 0
8894 1 1.0577 1 34.610662696155146 24.628751653329353 0 0 0 0
8895 1 1.0575 1 30.920714818813646 20.328917073194976 0 0 0 0
1831 1 2.3397 1 22.22481330299515 15.830507080042967 0 1 0 0
8927 1 1.0562 1 67.85219964061419 33.541017457155 0 0 0 0
8976 1 1.0539 1 61.02223977291159 19.340027542860643 0 0 0 0
1615 1 2.4831 1 68.76734373242118 69.34958688485032 0 0 0 0
9041 1 1.0504 1 58.42592091257335 23.22892685255807 0 0 0 0
9042 1 1.0504 1 68.33420455988026 29.787769964936924 0 0 0 0
5921 1 1.3027 1 46.636164117860034 20.617864193897454 0 0 1 0
9118 1 1.0464 1 58.46201363320036 12.293089315091814 0 0 0 0
9140 1 1.045 1 56.06868763378242 59.16154360135317 0 0 0 0
9159 1 1.0441 1 64.88829764823895 24.608987481828386 0 0 0 0
9177 1 1.043 1 58.38908934666269 33.567459052285166 0 0 0 0
9200 1 1.0419 1 73.08812935194419 26.257742731662322 0 0 0 0
9992 1 1.0003 1 52.05230399829189 73.5333266158029 0 0 0 0
2504 1 2.0087 1 26.059232198861835 18.227574244973514 0 1 0 0
9279 1 1.0378 1 47.746307729227624 54.64693922769045 0 0 0 0
9282 1 1.0376 1 46.605060847584056 48.390775816303325 0 0 0 0
9319 1 1.0352 1 72.40005510062406 69.95257977875255 0 0 0 0
9802 1 1.0098 1 68.80708413430605 11.98809042533148 0 0 0 0
8095 1 1.1076 1 51.90498889445043 63.271338800525236 0 0 0 0
9322 1 1.035 1 51.74229479310154 15.74050839948212 0 0 0 0
5183 1 1.3908 1 13.74435224353249 29.972755337254238 0 1 0 0
9386 1 1.0316 1 54.23079562588574 24.51154926195754 0 0 0 0
1020 1 3.1491 1 65.97173568753576 10.407360098378444 0 0 0 0
2016 1 2.23 1 53.61810867721251 73.83185362234548 0 0 0 0
9419 1 1.0296 1 49.362340695655305 54.094140120846816 0 0 0 0
9452 1 1.0281 1 48.72568469183376 17.259201919634474 0 0 0 0
9495 1 1.0262 1 57.70210738100442 30.030718367610557 0 0 0 0
6188 1 1.2731 1 51.35045609003648 67.88485480592455 0 0 0 0
6898 1 1.2023 1 48.93148900584643 21.197197254692878 0 0 1 0
9031 1 1.0511 1 27.52550513461421 18.11854642399425 0 1 0 0
4282 1 1.536 1 35.31547941629927 10.840384494093197 0 0 1 0
1939 1 2.2766 1 20.22647172430011 16.760226172737546 0 1 0 0
7474 1 1.1548 1 27.01855862157723 19.42752536044292 0 1 0 0
7864 1 1.1236 1 12.045242668507543 19.057728323178186 0 1 0 0
4663 1 1.4703 1 24.44883123852541 17.698910597737886 0 1 0 0
4649 1 1.4736 1 63.36855238813352 68.59034026580593 0 0 0 0
2250 1 2.1177 1 26.09598304226747 15.312731399426983 0 1 1 0
8080 1 1.1086 1 25.568336096079353 16.803429433916637 0 1 0 0
2405 1 2.0459 1 10.634740971716624 42.79094744247034 0 0 0 0
6065 1 1.287 1 15.687673028461798 19.26305059550274 0 1 0 0
6502 1 1.2429 1 51.01555874306049 73.00760449697358 0 0 0 0
4000 1 1.5838 1 15.248745352755607 32.169570790215914 0 0 0 0
2203 1 2.1351 1 60.23666297691747 71.05832220027293 0 0 0 0
5086 1 1.4063 1 26.764780667917822 13.061103335168555 0 1 0 0
9344 1 1.0338 1 24.48241919775945 12.612118048291755 0 1 1 0
1036 1 3.1138 1 16.799086212086937 17.39366637476515 0 1 0 0
2338 1 2.0738 1 48.228749336980805 12.046815562072657 0 0 1 0
7031 1 1.1912 1 23.231956840004955 14.4076646269707 0 1 0 0
9045 1 1.0501 1 49.0295193093086 13.58602403390093 0 0 0 0
5318 1 1.3735 1 13.791905100269071 35.06737851053238 0 0 0 0
4591 1 1.482 1 14.45472640506032 14.760671859315494 0 1 1 0
5922 1 1.3022 1 13.491693372136025 15.97431733663512 0 1 0 0
8315 1 1.0931 1 23.959198766422112 13.52947665851064 0 0 1 0
9007 1 1.0524 1 13.203132035548613 20.187474871113174 0 1 0 0
9277 1 1.0379 1 60.64622472669999 72.54861202499748 0 0 0 0
6854 1 1.207 1 51.163641427393145 71.82306385166122 0 0 0 0
9148 1 1.0448 1 36.002962166228244 11.889109477276122 0 0 1 0
2234 1 2.1216 1 12.712004814470813 14.515531742175636 0 1 1 0
5621 1 1.3345 1 25.62215236845327 12.33694583316481 0 0 1 0
5233 1 1.3847 1 12.826323546883815 28.963658992522866 0 1 0 0
1030 1 3.1257 1 11.607372584582128 35.568960447450806 0 1 0 0
8444 1 1.0848 1 13.91711324919188 32.19328241122288 0 1 0 0
8138 1 1.1053 1 13.411922592865242 13.151745577060927 0 0 1 0
136 1 8.0108 1 65.08673092828835 72.99537169076937 0 0 0 0
6424 1 1.2498 1 12.863356919924774 27.68547421590839 0 1 0 0
3363 1 1.725 1 13.127074174583692 33.69319001845017 0 1 0 0
5147 1 1.397 1 10.622901577072533 33.569190822355466 0 1 0 0
1971 1 2.2576 1 56.28821867371628 73.00153596807873 0 0 0 0
6928 1 1.1997 1 12.239265081250155 32.26686716408804 0 1 0 0
323 1 5.5334 1 10.589566728626385 25.23244468842236 0 1 0 0
9545 1 1.0235 1 10.17388546411359 44.24624272854598 0 1 0 0
605 1 4.0029 1 62.48849799642173 9.978118644983557 0 0 0 0
4261 1 1.5399 1 34.10226638566621 10.031575837286773 0 0 1 0
19 1 22.7491 1 39.98338768452372 111.45321460762926 0 0 0 0
42 1 15.4306 1 71.88832545375847 86.17260713934638 0 0 0 0
3410 1 1.7123 1 27.42471371665939 133.7412345320699 0 0 0 0
86 1 10.0392 1 23.701593682725772 104.3844606747349 0 0 0 0
126 1 8.5499 1 20.410245902293973 117.62182645697116 0 0 0 0
1118 1 2.9952 1 28.30572228787286 135.9256300274794 0 0 0 0
141 1 7.8511 1 40.822703625490924 126.54191888820385 0 0 0 0
149 1 7.7028 1 57.03986424212487 118.36959857381491 0 0 0 0
170 1 7.3576 1 66.09899438508975 107.39123607530068 0 0 0 0
183 1 7.1535 1 44.25013638783935 90.79166673695131 0 0 0 0
196 1 6.9228 1 54.77126992613175 95.12677142142981 0 0 0 0
7722 1 1.1347 1 17.317889081360445 137.356411351121 0 0 0 0
210 1 6.6285 1 32.157845529454136 99.31486683905884 0 0 0 0
219 1 6.5064 1 23.978007497873207 124.16991908691676 0 0 0 0
223 1 6.4364 1 69.87107883035821 98.5955648385455 0 0 0 0
244 1 6.2615 1 33.903369138664935 126.36960214622053 0 0 0 0
263 1 6.108 1 57.09174884441002 86.31231850207158 0 0 0 0
264 1 6.0937 1 57.321920639595625 101.53679704789637 0 0 0 0
286 1 5.8578 1 50.78304134399049 80.9689959412817 0 0 0 0
296 1 5.7976 1 63.839467490547754 97.23539573949964 0 0 0 0
341 1 5.3799 1 65.09439582085574 114.456931091101 0 0 0 0
353 1 5.3242 1 24.74874371574547 129.9803202527472 0 0 0 0
361 1 5.2589 1 51.11938803878155 103.12285495807245 0 0 0 0
9471 1 1.0273 1 53.8693266409344 129.0248754826232 0 0 0 0
396 1 4.946 1 64.46992357655485 79.3813258303428 0 0 0 0
397 1 4.9406 1 59.03710788953947 79.30369508021118 0 0 0 0
411 1 4.8876 1 26.809211758255376 115.77437056616166 0 0 0 0
489 1 4.4494 1 51.058342560083744 119.31723817067349 0 0 0 0
534 1 4.2484 1 50.01561402406409 85.84313948240542 0 0 0 0
544 1 4.2225 1 50.89388756980616 123.57361926293382 0 0 0 0
546 1 4.2131 1 48.81611038299866 98.42154466262352 0 0 0 0
550 1 4.1961 1 51.689663110238435 127.62008510206928 0 0 0 0
8672 1 1.0712 1 59.716304429287725 75.28016466643618 0 0 0 0
574 1 4.1145 1 43.28760224909147 96.4169216218708 0 0 0 0
621 1 3.9539 1 60.85390987351848 125.50836339081053 0 0 0 0
652 1 3.8853 1 60.16396733624219 91.65805891357004 0 0 0 0
657 1 3.8757 1 15.639260865822083 126.67586823722483 0 0 0 0
664 1 3.8557 1 55.64505888442711 127.36644683314033 0 0 0 0
4718 1 1.4609 1 67.56372665540174 126.99679099221906 0 0 0 0
683 1 3.8179 1 61.307763706270855 83.82357383636872 0 0 0 0
9848 1 1.0077 1 52.59713978533841 91.9379052167879 0 0 0 0
3350 1 1.7282 1 73.69389867294143 104.83370739411596 0 0 0 0
763 1 3.6517 1 69.20993377171929 77.04820609629999 0 0 0 0
767 1 3.6482 1 19.235207434054594 125.81748027192529 0 0 0 0
772 1 3.6426 1 53.11370080677289 112.09924140852416 0 0 0 0
791 1 3.6079 1 45.936428797872864 128.85850974824348 0 0 0 0
867 1 3.4314 1 55.05843401492132 107.77579316960896 0 0 0 0
886 1 3.38 1 20.685204426225376 137.56101470436792 0 0 0 0
880 1 3.3897 1 56.54785798778572 110.76863190915064 0 0 0 0
895 1 3.3646 1 60.82392919332631 107.05653936557636 0 0 0 0
898 1 3.3585 1 48.204541639006926 126.23435226334936 0 0 0 0
912 1 3.333 1 57.56170779588239 75.47324101546356 0 0 0 0
2354 1 2.0666 1 63.73170729721023 125.05238662558465 0 0 0 0
9643 1 1.0183 1 46.294894934090856 84.03808500183331 0 0 0 0
1012 1 3.1586 1 59.57200488941447 96.34632499820252 0 0 0 0
1014 1 3.1565 1 22.564225114561584 98.02247186628242 0 0 0 0
1031 1 3.1251 1 71.23689410245385 107.92643980284171 0 0 0 0
1059 1 3.0784 1 58.91187520569462 112.92439432769325 0 0 0 0
1067 1 3.0623 1 30.889708706636263 122.03508470265176 0 0 0 0
1099 1 3.0209 1 67.78153899784029 94.37344572718986 0 0 0 0
9890 1 1.0055 1 21.155965880805535 99.53397291397941 0 1 0 0
1121 1 2.9867 1 61.721735563967094 110.05720476589961 0 0 0 0
1131 1 2.976 1 36.24099483714527 93.76442176526656 0 0 0 0
1139 1 2.972 1 17.982573969890982 122.77797200638582 0 0 0 0
1184 1 2.9227 1 57.930308828990015 123.44465504887016 0 0 0 0
1191 1 2.9163 1 70.05739973926143 104.2176474349103 0 0 0 0
1227 1 2.8794 1 27.49764589717072 99.29484914291511 0 0 0 0
1310 1 2.7799 1 58.06328487264791 108.17240373824116 0 0 0 0
1327 1 2.7606 1 26.87497719951226 120.65255821265605 0 0 0 0
1119 1 2.9885 1 24.74762951123723 110.71491618024872 0 1 0 0
9575 1 1.0218 1 27.7840985999132 128.91857520820452 0 0 0 0