LAMMPS data file via write_data, version 24 Dec 2020, timestep = 400000

10000 atoms
1 atom types

9.95143358025075 331.8139610404791 xlo xhi
9.95143358025075 331.8139610404791 ylo yhi
0 1 zlo zhi
0 0 0 xy xz yz

Atoms # sphere

16 1 27.0148 1 21.578661820808055 19.894003593559244 0 0 0 0
6528 1 1.2402 1 40.11018907053191 29.030167715273407 0 0 1 0
8976 1 1.0539 1 36.97821790225197 19.05186774766389 0 0 0 0
168 1 7.3782 1 49.35369389791803 25.320840580930078 0 0 0 0
194 1 6.9422 1 37.8963499906581 24.060540533134542 0 0 0 0
208 1 6.6527 1 30.20573931579442 36.96891799058152 0 0 0 0
336 1 5.417 1 42.81946909263247 31.018306090834393 0 0 0 0
346 1 5.3618 1 17.904145680770682 40.365474113094464 0 0 0 0
364 1 5.1987 1 45.47784864569917 20.574121185710485 0 0 0 0
412 1 4.8776 1 22.52913680808026 42.40500703613544 0 0 0 0
439 1 4.6882 1 35.32921707623989 30.55316138336846 0 0 0 0
511 1 4.3207 1 43.71579096264905 26.313752950912164 0 0 0 0
527 1 4.2767 1 40.53481826871412 15.977906579131261 0 0 0 0
529 1 4.2701 1 14.88365052239063 45.532953698817934 0 0 0 0
543 1 4.2317 1 22.663739581205114 36.42482542930276 0 0 0 0
5300 1 1.3759 1 11.61412862355682 32.093048107213875 0 1 0 0
569 1 4.1329 1 11.928958139921995 34.823339484175335 0 0 0 0
4350 1 1.5228 1 15.212423557099871 48.57106966637227 0 1 0 0
629 1 3.9339 1 45.09696092099179 35.7722795000036 0 0 0 0
3990 1 1.5888 1 58.92019192272275 14.95895467917481 0 0 0 0
675 1 3.8345 1 40.15765471413111 36.06383064621343 0 0 0 0
9041 1 1.0504 1 55.77699479392789 9.970907140369798 0 0 0 0
816 1 3.5492 1 16.452908912680222 36.21565336475413 0 0 0 0
818 1 3.5444 1 36.541570162495695 35.70067868845737 0 0 0 0
826 1 3.5256 1 52.30925084700716 16.04861130638131 0 0 0 0
839 1 3.4855 1 35.24334328159685 38.94852316157538 0 0 0 0
2313 1 2.0838 1 57.455123864848815 55.135965850023766 0 0 0 0
8135 1 1.1054 1 56.26666776397481 11.048273991127116 0 0 1 0
8715 1 1.069 1 33.089131184975045 39.39757074693322 0 0 0 0
924 1 3.3086 1 41.55880907889308 39.31737418096756 0 0 0 0
936 1 3.2842 1 13.641094663530836 39.762393867144 0 0 0 0
1686 1 2.4305 1 13.197156681098686 50.38853953617213 0 0 0 0
8693 1 1.0703 1 12.610728810526174 44.15043865012347 0 0 0 0
9386 1 1.0316 1 54.57630894614476 12.334859359346071 0 0 0 0
1098 1 3.022 1 44.14832414847253 15.727048407766592 0 0 0 0
7031 1 1.1912 1 11.077973015555523 29.14264930766089 0 1 0 0
1146 1 2.9657 1 33.89012644139848 33.97955045401272 0 0 0 0
1205 1 2.9015 1 29.35532369665812 41.538928307812185 0 0 0 0
1238 1 2.8644 1 39.906009037088026 19.464872027524255 0 0 0 0
1253 1 2.8463 1 24.60028899431814 39.297432036365265 0 0 0 0
1292 1 2.8008 1 39.65307886849775 41.84975851185574 0 0 0 0
1297 1 2.7955 1 18.831738288628333 45.40258086528899 0 0 0 0
1311 1 2.7798 1 33.114224444272814 41.24012227806397 0 0 0 0
1335 1 2.754 1 45.04645590392897 39.36337510582233 0 0 0 0
9282 1 1.0376 1 26.628878165758536 42.958885995733006 0 0 0 0
1020 1 3.1491 1 60.768071211565506 13.6336199723619 0 0 0 0
6758 1 1.2177 1 33.00652805722686 11.735792827464168 0 0 1 0
1475 1 2.6 1 25.12222821463131 34.14565905448225 0 0 0 0
7604 1 1.1438 1 36.44836690638488 18.120986556337378 0 0 1 0
9200 1 1.0419 1 34.033749761121825 37.07256214706817 0 0 0 0
2244 1 2.1187 1 34.45980840425659 12.388659177439965 0 0 0 0
4472 1 1.5023 1 62.256694515106346 22.397513318287157 0 0 0 0
2271 1 2.1066 1 55.052489052539485 26.949860728787538 0 0 0 0
2824 1 1.8871 1 13.59961695668536 48.29468873521025 0 1 0 0
5921 1 1.3027 1 38.64159581373756 13.985150260984675 0 0 1 0
1886 1 2.3096 1 42.37270538067058 23.32963343426341 0 0 0 0
1932 1 2.2815 1 42.70205203105403 18.23422371757612 0 0 0 0
1989 1 2.2483 1 32.22320672399786 31.976337083792878 0 0 0 0
1143 1 2.9682 1 47.101590887407895 15.45167429373528 0 0 1 0
9159 1 1.0441 1 38.07514410981266 16.96814997109896 0 0 0 0
1246 1 2.857 1 37.12168846110451 15.303352469220034 0 0 1 0
8536 1 1.0788 1 27.904954039132484 40.17176784654623 0 0 0 0
5856 1 1.3093 1 53.20673294569117 23.466090964759672 0 0 0 0
9822 1 1.0088 1 63.49068494134137 15.83812990753988 0 0 0 0
2405 1 2.0459 1 14.706642652903431 42.17414629169267 0 0 0 0
2408 1 2.0449 1 44.46085088152153 41.673551128001975 0 0 0 0
8638 1 1.0727 1 58.012198401824 57.27955877195098 0 0 0 0
2545 1 1.9909 1 26.006280180254453 37.47746097846873 0 0 0 0
6729 1 1.2196 1 62.80332574746185 53.86175172957645 0 0 0 0
2561 1 1.985 1 46.17906062755227 32.2700164966316 0 0 0 0
567 1 4.1383 1 10.860852424388417 42.140013083067934 0 0 0 0
2629 1 1.9572 1 35.506297790949716 41.637337436533414 0 0 0 0
2631 1 1.9568 1 17.697031914274604 33.79263127875804 0 0 0 0
2671 1 1.9414 1 37.867307907543676 38.71934987696995 0 0 0 0
6562 1 1.2362 1 36.55336728079724 20.224040626537718 0 0 1 0
8927 1 1.0562 1 38.12212768723624 37.306696973858436 0 0 0 0
2753 1 1.9103 1 29.01854732105566 32.1541138853016 0 0 0 0
2797 1 1.894 1 41.05746634191323 27.860037778582736 0 0 0 0
2836 1 1.8833 1 19.760454173704876 35.670967023370785 0 0 0 0
2843 1 1.8818 1 49.21325306621086 14.296854377177057 0 0 0 0
2243 1 2.1187 1 34.94648797461569 14.357142610901509 0 0 1 0
8984 1 1.0535 1 35.57625908817165 20.810071134515802 0 0 0 0
3020 1 1.8199 1 10.896679162217586 37.547781112463625 0 0 0 0
1803 1 2.3533 1 54.14323277672714 25.008423797722934 0 0 0 0
3094 1 1.7994 1 35.606572540488216 16.968763334433838 0 0 0 0
3114 1 1.7915 1 37.36023041320446 41.904309707520746 0 0 0 0
3151 1 1.7783 1 42.07423320166492 20.100295352097113 0 0 0 0
3218 1 1.7608 1 15.858672031193938 33.665943858928415 0 0 0 0
3295 1 1.7414 1 50.01861381687267 20.85482618603466 0 0 0 0
3315 1 1.7361 1 17.409412365383336 47.037725458213394 0 0 0 0
3336 1 1.7322 1 35.25417865790216 27.431463738250866 0 0 0 0
3351 1 1.728 1 47.95782920998391 32.350825943628905 0 0 0 0
9959 1 1.0029 1 62.100090285758775 53.00462572364712 0 0 0 0
3396 1 1.7163 1 17.29776544901717 43.810604187075086 0 0 0 0
3409 1 1.7124 1 11.199930109107735 39.261904309283324 0 0 0 0
3418 1 1.7114 1 52.43215448860303 28.38901673807935 0 0 0 0
3433 1 1.7087 1 40.17785867083898 33.369322482025886 0 0 0 0
9495 1 1.0262 1 26.85665552342102 40.26850160598177 0 0 0 0
3439 1 1.7061 1 47.08190270092935 33.8157072471912 0 0 0 0
3440 1 1.7056 1 51.75237212366951 20.282909702154566 0 0 0 0
3453 1 1.7034 1 52.00718562489987 18.618804905231404 0 0 0 0
3472 1 1.6992 1 47.13010148677168 29.259257088332998 0 0 0 0
4261 1 1.5399 1 36.38214385096527 13.240601162439297 0 0 1 0
5007 1 1.4198 1 45.850566168617064 17.27063596764003 0 0 0 0
3549 1 1.682 1 47.98539429745084 30.66918916874388 0 0 0 0
3590 1 1.6735 1 45.53500899699106 44.40705801961884 0 0 0 0
3604 1 1.6702 1 32.80159186079488 28.738250031699515 0 0 0 0
9545 1 1.0235 1 14.747555419119312 49.71217862367672 0 1 0 0
3661 1 1.6595 1 53.88196459667662 14.075829397894434 0 0 0 0
3723 1 1.6437 1 20.07782770798551 37.682353057210285 0 0 0 0
8580 1 1.0764 1 31.972451240256976 33.58466598168734 0 0 0 0
3889 1 1.61 1 39.18586546372093 39.787653910887364 0 0 0 0
2760 1 1.9081 1 63.57975362177234 17.287864471269202 0 0 1 0
605 1 4.0029 1 49.247078568192904 18.152110070419937 0 0 0 0
4000 1 1.5838 1 13.145572822660027 37.39023521261207 0 0 0 0
4024 1 1.5786 1 45.93160992715367 28.197283227765347 0 0 0 0
4050 1 1.5744 1 45.888888576923755 42.75899866699067 0 0 0 0
4056 1 1.5736 1 12.678352329911053 31.064674408812202 0 0 0 0
1375 1 2.7088 1 38.87491412074401 30.488878578801177 0 0 1 0
4119 1 1.5635 1 54.72666740048703 15.370029118278666 0 0 0 0
9783 1 1.0108 1 48.99512704569563 31.519764795891582 0 0 0 0
4138 1 1.5607 1 25.82294662926591 41.0437389572987 0 0 0 0
1030 1 3.1257 1 11.517688617247746 46.9832765751679 0 1 0 0
4180 1 1.553 1 19.434013623964244 34.00054248564178 0 0 0 0
3303 1 1.7393 1 60.872682829292245 53.53267773128485 0 0 0 0
4252 1 1.5421 1 22.157744637579807 39.241737835372696 0 0 0 0
6789 1 1.2137 1 11.565036544073369 9.990954041984343 0 0 1 0
4323 1 1.5281 1 34.298361212633736 26.186922638648376 0 0 0 0
8369 1 1.089 1 51.220713557913506 21.550652284770962 0 0 0 0
9343 1 1.0339 1 37.07518235252341 17.239875233185163 0 0 1 0
4451 1 1.5063 1 27.207865463436615 34.190350701785135 0 0 0 0
2775 1 1.9047 1 58.80667600289856 53.72150810373531 0 0 0 0
4480 1 1.5008 1 43.51570952151649 37.967993066541155 0 0 0 0
4497 1 1.4979 1 42.64025541453424 36.80962937666705 0 0 0 0
4143 1 1.5597 1 61.18039985657195 10.194254586732388 0 0 0 0
4522 1 1.4941 1 14.235942660327586 33.299031172113985 0 0 0 0
4527 1 1.4937 1 20.950496943023225 34.13323728314044 0 0 0 0
9801 1 1.0099 1 21.047948900874584 39.86826969939236 0 0 0 0
4624 1 1.4777 1 13.958576664956741 31.873256263365267 0 0 0 0
4628 1 1.4773 1 41.019605920759425 21.303852243326084 0 0 0 0
4381 1 1.5182 1 58.290583018409045 26.549374733533583 0 0 0 0
4271 1 1.5379 1 60.19305520184584 11.416245970324052 0 0 0 0
6358 1 1.2561 1 44.60976020524821 43.30073688967851 0 0 0 0
4762 1 1.4544 1 26.729382149071693 39.039755722270385 0 0 0 0
4796 1 1.4496 1 37.84033202649424 19.904811231053152 0 0 0 0
4820 1 1.4459 1 37.299765977408995 40.3015213450493 0 0 0 0
4868 1 1.4381 1 39.23712859691417 28.023502400876577 0 0 0 0
4872 1 1.4378 1 37.99894989819266 32.53278716222322 0 0 0 0
4893 1 1.4337 1 38.4788255858269 33.92014373411623 0 0 0 0
4913 1 1.4304 1 33.67440811497025 27.494364831838595 0 0 0 0
4950 1 1.4257 1 27.226404383994673 41.43283788763147 0 0 0 0
4998 1 1.4204 1 52.31502136772867 22.112022176063753 0 0 0 0
4989 1 1.4218 1 11.556259768218077 44.77372830033593 0 1 0 0
5063 1 1.4107 1 13.365610473622286 43.188848472900986 0 0 0 0
5068 1 1.4098 1 18.77141996257687 36.97046305354236 0 0 0 0
5108 1 1.4029 1 31.062042361579635 30.603805215669162 0 0 0 0
5123 1 1.3992 1 20.86560116190994 45.02676685041844 0 0 0 0
6628 1 1.2292 1 12.231189353813452 48.94949520212886 0 1 0 0
5190 1 1.3897 1 44.12883409969886 23.531003216921665 0 0 0 0
9707 1 1.0148 1 48.46723556607936 29.416092838836512 0 0 0 0
5266 1 1.3805 1 14.63859565322603 34.64066131124903 0 0 0 0
6557 1 1.2369 1 11.36873391444792 50.40957256794121 0 1 0 0
9552 1 1.0232 1 19.648930717211265 43.00686804460399 0 0 0 0
5363 1 1.3683 1 46.41616027094052 30.613599976609216 0 0 0 0
7372 1 1.1638 1 62.48448768624046 54.97839260556774 0 0 0 0
5390 1 1.3651 1 25.4013662990187 36.017122828002435 0 0 0 0
5437 1 1.3584 1 49.94918548696768 15.641585439258401 0 0 0 0
5510 1 1.3498 1 42.385448946764676 21.57098667230009 0 0 0 0
8020 1 1.1135 1 11.146446678210932 30.955075833164344 0 1 0 0
1746 1 2.3871 1 61.837103656240245 16.15289709903347 0 0 1 0
5549 1 1.3442 1 43.41269324577694 43.70119161878439 0 0 0 0
5576 1 1.3407 1 41.93087168612756 34.243852842380065 0 0 0 0
5587 1 1.3389 1 46.7655637057532 45.24007405576653 0 0 0 0
5601 1 1.3372 1 42.87100643369671 41.181150028944494 0 0 0 0
5694 1 1.3266 1 41.76896312711079 41.95599559280933 0 0 0 0
5093 1 1.405 1 62.387743526792164 18.395951733700237 0 0 0 0
5884 1 1.3063 1 26.57185735956745 35.42529930453942 0 0 0 0
5932 1 1.3018 1 38.0317938260052 28.67125773049791 0 0 0 0
6035 1 1.2911 1 45.37123432960863 23.802336138616127 0 0 0 0
6036 1 1.291 1 15.33634549453504 38.30587247886252 0 0 0 0
6063 1 1.2872 1 43.01983178923077 42.46106443675535 0 0 0 0
6094 1 1.284 1 50.90207932535825 29.38951233983492 0 0 0 0
6180 1 1.2743 1 36.91217920136338 28.038788319129157 0 0 0 0
6181 1 1.2742 1 16.42528586738043 48.06668471039881 0 0 0 0
9177 1 1.043 1 29.987809912706552 31.095728136478392 0 0 0 0
6432 1 1.249 1 49.57926511382341 29.55286483942659 0 0 0 0
5147 1 1.397 1 11.012599672884406 49.177743455931214 0 1 0 0
6575 1 1.2351 1 56.74863520906546 26.781129303921634 0 0 0 0
6626 1 1.2296 1 38.607045679524546 17.93635539561258 0 0 0 0
6637 1 1.2287 1 16.05022872278062 43.06561568608562 0 0 0 0
6796 1 1.2127 1 15.182993354336118 32.39588284608114 0 0 0 0
6803 1 1.2123 1 39.4146266986761 38.43381492054183 0 0 0 0
6839 1 1.2084 1 14.091122399670969 36.368730259185575 0 0 0 0
8455 1 1.0841 1 63.08500820555876 52.77333870525498 0 0 0 0
7940 1 1.1187 1 12.80317264244689 32.38554164805814 0 1 0 0
7008 1 1.1934 1 49.65732785921609 30.692454470720023 0 0 0 0
7112 1 1.1846 1 53.67852388934914 27.75861021744224 0 0 0 0
7130 1 1.1835 1 34.20288763547781 36.0020191407111 0 0 0 0
7162 1 1.1809 1 28.35987814211682 33.529450491970834 0 0 0 0
7178 1 1.1799 1 31.216497550887574 40.73914846822162 0 0 0 0
17 1 25.5929 1 59.16195510046014 40.0475485205291 0 0 0 0
7250 1 1.1739 1 41.0677649999395 26.389535571105903 0 0 0 0
3258 1 1.751 1 62.65080090209237 23.950084102199213 0 0 0 0
7264 1 1.1734 1 42.22440776315708 43.35755314797204 0 0 0 0
6006 1 1.2939 1 61.75781447900299 59.794915339039825 0 0 0 0
8569 1 1.0769 1 12.13349130199637 38.230734943687835 0 0 0 0
2767 1 1.9064 1 56.34762938103495 53.48865716150091 0 0 0 0
7327 1 1.1682 1 23.271580642960338 33.83876035282353 0 0 0 0
7333 1 1.1678 1 11.806516836056229 30.037755753263895 0 0 0 0
7379 1 1.1632 1 27.665407416949254 42.63565949313833 0 0 0 0
2713 1 1.9259 1 63.33267354544042 11.18440141578792 0 0 0 0
7460 1 1.1563 1 45.743139843872406 29.546762462498776 0 0 0 0
7473 1 1.1549 1 53.419627514125224 26.614396933559043 0 0 0 0
9322 1 1.035 1 37.520821306467724 18.169858873692586 0 0 0 0
7537 1 1.1497 1 27.60167033230894 32.61851602609817 0 0 0 0
7574 1 1.1461 1 20.889209235246295 38.80756890050824 0 0 0 0
7633 1 1.1419 1 26.576922826820827 33.036938218148535 0 0 0 0
7648 1 1.1404 1 31.016375779530534 33.11976735641855 0 0 0 0
7661 1 1.1392 1 30.535607005501625 32.05419950866602 0 0 0 0
1729 1 2.4068 1 11.6650106570362 52.17316959881492 0 1 0 0
7697 1 1.1367 1 29.945588862992313 33.19117715314967 0 0 0 0
7770 1 1.1308 1 25.77287489799074 42.33675882158441 0 0 0 0
7792 1 1.1293 1 31.735884598828196 29.58099845285611 0 0 0 0
7814 1 1.1279 1 14.485197079171677 37.46356671872724 0 0 0 0
7852 1 1.1248 1 20.054129703670164 43.974404817984016 0 0 0 0
7895 1 1.1217 1 41.156715321620005 43.04842995505035 0 0 0 0
4785 1 1.4509 1 35.748483439060706 19.18650844296434 0 0 1 0
7941 1 1.1186 1 43.1339358467942 34.245662389498115 0 0 0 0
8037 1 1.1123 1 25.339302144201778 43.32775782965171 0 0 0 0
8013 1 1.1137 1 10.293068997353283 44.68424113897238 0 1 0 0
1904 1 2.2971 1 60.38297629560764 61.87195529121335 0 0 0 0
8182 1 1.1023 1 45.88799629927677 41.080980721170334 0 0 0 0
8871 1 1.0589 1 32.47746881614435 30.35749338378177 0 0 0 0
8206 1 1.1012 1 44.29001550853123 17.72029766104093 0 0 0 0
8285 1 1.0959 1 48.62190083295452 20.622877412776504 0 0 0 0
8302 1 1.0944 1 18.44217442495531 35.08569027820755 0 0 0 0
8319 1 1.0927 1 39.762720472024995 32.09666380337404 0 0 0 0
5374 1 1.3675 1 59.76509932621137 10.083510701157994 0 0 0 0
5513 1 1.3496 1 58.99718822266526 12.246584767255836 0 0 0 0
600 1 4.0221 1 60.25589587149994 56.25302593169586 0 0 0 0
4272 1 1.5377 1 50.77781951265265 13.654969208467508 0 0 1 0
6865 1 1.2053 1 32.85720461176839 10.604853580210769 0 0 1 0
108 1 9.414 1 57.30411219332998 20.119312794378157 0 0 0 0
7984 1 1.1154 1 62.654451964987665 59.02681991835429 0 0 0 0
2887 1 1.8657 1 52.332644063528974 13.010579609985802 0 0 0 0
632 1 3.927 1 56.68038570627997 13.508754853528643 0 0 0 0
1570 1 2.5183 1 57.96317816720037 10.612197899872568 0 0 0 0
781 1 3.6204 1 60.67768945221664 25.65132119763454 0 0 0 0
9419 1 1.0296 1 58.50625892286157 58.20161712154007 0 0 0 0
2529 1 1.9999 1 10.589920762648905 54.03661088861205 0 0 0 0
3544 1 1.6837 1 56.097853785059954 25.465955409046515 0 0 0 0
9606 1 1.0204 1 53.74636469824011 12.852902425711713 0 0 0 0
9140 1 1.045 1 61.75418936770645 58.33387351891163 0 0 0 0
9350 1 1.0336 1 58.43644160232753 25.190970935654565 0 0 0 0
1387 1 2.6993 1 59.84440593693293 59.49250203411478 0 0 0 0
5695 1 1.3265 1 53.582436054265685 11.776437388261462 0 0 1 0
7758 1 1.1316 1 57.45396048398975 25.557354392372982 0 0 0 0
4461 1 1.5037 1 61.705023231365246 11.574838858658744 0 0 0 0
6108 1 1.2828 1 60.123244094396526 15.677942667874326 0 0 1 0
4222 1 1.5465 1 62.684860061859254 20.968993767910586 0 0 0 0
9824 1 1.0088 1 62.99903250215423 14.61811403350157 0 0 0 0
5286 1 1.3775 1 62.69179071841003 12.623264732412684 0 0 0 0
3370 1 1.7234 1 54.91608141202255 11.050800115762133 0 0 0 0
7019 1 1.1923 1 61.36873478113042 23.39353079977532 0 0 0 0
5774 1 1.3168 1 10.062332642204813 28.03599097425468 0 0 1 0
4383 1 1.5173 1 10.124823790065975 50.99879448649947 0 0 0 0
2504 1 2.0087 1 9.991453422675384 32.50411291213858 0 1 0 0
8740 1 1.0674 1 9.96908946512555 38.61817762977279 0 0 0 0
5 1 53.3452 1 33.64631439503559 69.20632078630118 0 0 0 0
6848 1 1.2078 1 47.202065587861306 106.8871527997061 0 0 0 0
8029 1 1.1128 1 52.89998476501549 111.46368489355213 0 0 0 0
2135 1 2.1622 1 55.95366085848594 107.82838227232645 0 0 0 0
9039 1 1.0505 1 46.66208439639257 109.16143007478021 0 0 0 0
183 1 7.1535 1 19.628350184929452 100.98109349507067 0 0 0 0
196 1 6.9228 1 43.701779640190985 98.79070172428742 0 0 0 0
210 1 6.6285 1 20.61859893221387 110.21673033432005 0 0 0 0
19 1 22.7491 1 34.6077536372408 114.16725147522095 0 0 0 0
264 1 6.0937 1 51.51863733967346 94.03527112257845 0 0 0 0
286 1 5.8578 1 62.53661751397902 79.69821890273849 0 0 0 0
296 1 5.7976 1 53.25634063594402 103.546724162042 0 0 0 0
361 1 5.2589 1 26.847358000273747 97.62921146216213 0 0 0 0
411 1 4.8876 1 16.644715693660398 114.21359594052198 0 0 0 0
534 1 4.2484 1 57.70382247376281 84.9957662865745 0 0 0 0
546 1 4.2131 1 36.290943306332764 97.80668592897838 0 0 0 0
2384 1 2.0542 1 13.398391839751476 113.16480014016683 0 0 0 0
574 1 4.1145 1 25.074179149394205 102.11800282310529 0 0 0 0
4970 1 1.4239 1 10.424515718069618 85.48176427069185 0 1 0 0
652 1 3.8853 1 56.822031142393435 88.97765395220036 0 0 0 0
1059 1 3.0784 1 46.97042173932284 102.48801116139688 0 0 0 0
2628 1 1.9573 1 21.3584205985184 116.95253213360395 0 0 0 0
223 1 6.4364 1 52.118847435898154 114.99964176259597 0 0 0 0
867 1 3.4314 1 33.722613312892044 101.2536217337373 0 0 0 0
875 1 3.415 1 61.90060988563905 68.40246831176692 0 0 0 0
880 1 3.3897 1 39.90568987625906 102.22700526350046 0 0 0 0
895 1 3.3646 1 47.26639202088181 111.2776131914347 0 0 0 0
1012 1 3.1586 1 53.30174248397758 98.1121857522763 0 0 0 0
1014 1 3.1565 1 14.181976045761017 110.57696689189548 0 0 0 0
1099 1 3.0209 1 55.74794528109329 99.92174082345082 0 0 0 0
1131 1 2.976 1 11.434840643931219 100.94837480953191 0 0 0 0
1227 1 2.8794 1 14.701194834435807 104.33279316560667 0 0 0 0
1310 1 2.7799 1 43.090369653746556 104.53291000509647 0 0 0 0
4936 1 1.4277 1 11.131541273632925 115.26539252934111 0 0 0 0
3790 1 1.6319 1 58.9579668231131 104.86492373395822 0 0 0 0
1400 1 2.6823 1 21.07169695599918 96.03136912886171 0 0 0 0
7401 1 1.1612 1 62.06573658133837 113.81046585596864 0 0 0 0
1465 1 2.6063 1 16.52915102896241 108.18758015658032 0 0 0 0
1466 1 2.6055 1 53.59664503254448 88.76241882483006 0 0 0 0
1586 1 2.5042 1 48.72774774716604 100.39436694786939 0 0 0 0
1589 1 2.502 1 50.480185028798545 98.17233750444198 0 0 0 0
1613 1 2.4836 1 20.067525259755573 105.74423497791095 0 0 0 0
1632 1 2.4657 1 19.12390563169569 92.92109181965061 0 0 0 0
6352 1 1.2568 1 15.637152877210434 117.08439007248235 0 0 0 0
1661 1 2.4463 1 53.3735456140381 107.58175537556713 0 0 0 0
1668 1 2.4439 1 46.27791222053626 93.93996741771068 0 0 0 0
5153 1 1.3956 1 12.180911257513014 114.34930721215659 0 0 0 0
1718 1 2.412 1 54.79677399295187 91.37571032224017 0 0 0 0
1776 1 2.3708 1 28.834623243477164 100.7932066808443 0 0 0 0
1845 1 2.332 1 31.011848885220928 98.41313226698641 0 0 0 0
1877 1 2.3156 1 39.893908033757796 96.27710825448057 0 0 0 0
4067 1 1.5716 1 62.98134333571782 72.44106166517024 0 0 0 0
1931 1 2.2823 1 57.12893030447247 102.95838140371093 0 0 0 0
204 1 6.7727 1 60.28392526711077 108.76534165439841 0 0 0 0
2016 1 2.23 1 61.16414377811947 74.82555944458923 0 0 0 0
2029 1 2.2229 1 37.72817560376545 100.63983745475598 0 0 0 0
2048 1 2.2127 1 29.669218288425053 102.82074091879778 0 0 0 0
2085 1 2.1901 1 48.170958023370005 98.18376391049004 0 0 0 0
2104 1 2.1818 1 23.29965829528316 98.14327863381189 0 0 0 0
9625 1 1.0195 1 26.647530161357484 104.11781819454905 0 0 0 0
9080 1 1.0481 1 55.33746449406946 113.1119933952277 0 0 0 0
2298 1 2.0938 1 61.108842848941215 72.70230605219017 0 0 0 0
1031 1 3.1251 1 47.415662903031695 115.38261110898635 0 0 0 0
2342 1 2.0716 1 60.7803572901875 84.78030013973033 0 0 0 0
2459 1 2.0253 1 32.96702985302739 97.53113644676579 0 0 0 0
2460 1 2.025 1 54.863674338913256 86.89981641912627 0 0 0 0
2479 1 2.0171 1 17.924437892879276 96.29965069681907 0 0 0 0
969 1 3.2196 1 13.840225906943427 92.13321325418538 0 1 0 0
341 1 5.3799 1 58.86001663315635 114.5500839085094 0 0 0 0
2509 1 2.0069 1 23.415197134865554 96.0527075124839 0 0 0 0
9538 1 1.0238 1 60.77565186132296 70.23425712830431 0 0 0 0
9934 1 1.0037 1 13.641594547368326 102.77892229139098 0 0 0 0
2807 1 1.8913 1 16.305765191439924 106.0194535592548 0 0 0 0
2817 1 1.8898 1 62.872403991428776 86.93206782031979 0 0 0 0
2903 1 1.8623 1 55.330465281814455 94.78089326623883 0 0 0 0
2961 1 1.8444 1 45.32567455640256 104.26793695747492 0 0 0 0
2972 1 1.8411 1 22.373622164791048 94.31306708025409 0 0 0 0
3083 1 1.8053 1 51.53014870235686 90.11546095620115 0 0 0 0
8566 1 1.0771 1 15.624074942736788 89.57523702148514 0 1 0 0
3163 1 1.7762 1 30.79388853482638 101.20733561825769 0 0 0 0
9929 1 1.004 1 58.72064559009926 79.63345139895297 0 0 0 0
8789 1 1.0641 1 62.96262999844164 103.64392641887868 0 0 0 0
3201 1 1.766 1 23.114737198987527 106.92023818395663 0 0 0 0
3207 1 1.7648 1 55.60825465007569 97.55905558271785 0 0 0 0
3282 1 1.7447 1 15.254119814553004 100.83162650556524 0 0 0 0
7242 1 1.1744 1 44.91929448360093 107.96474243833268 0 0 0 0
3328 1 1.733 1 14.447167169224162 108.16563531286944 0 0 0 0
6100 1 1.2831 1 56.873732842116105 110.74650890994782 0 0 0 0
3384 1 1.72 1 61.24403324471752 64.95671820539967 0 0 0 0
725 1 3.7356 1 14.806779785153934 98.13100232539144 0 1 0 0
9924 1 1.0041 1 55.02312617480991 93.37283189595566 0 0 0 0
3455 1 1.7027 1 13.641967353942707 100.48326675016494 0 0 0 0
3489 1 1.6957 1 47.90152307135388 92.69747488301117 0 0 0 0
3505 1 1.6931 1 60.73379277762791 82.95391986197296 0 0 0 0
3558 1 1.6793 1 44.77345762360236 105.91291701701465 0 0 0 0
3561 1 1.6789 1 22.455524009224117 105.38752001790772 0 0 0 0
3594 1 1.6724 1 16.927981465212717 104.39293037078147 0 0 0 0
3616 1 1.6685 1 57.6304106142621 101.16426078427787 0 0 0 0
3619 1 1.6673 1 59.82482531034166 77.29155912087123 0 0 0 0
3622 1 1.6671 1 24.93572156807563 106.81371858934816 0 0 0 0
3664 1 1.6571 1 57.527969308284334 105.66845229095198 0 0 0 0
3685 1 1.6523 1 18.047221073131997 106.04095218687507 0 0 0 0
3699 1 1.6473 1 46.36780778968348 105.78491539326086 0 0 0 0
3809 1 1.6261 1 50.76385659637319 100.20851359518963 0 0 0 0
3450 1 1.7041 1 19.3172345256637 116.07432608920283 0 0 0 0
3912 1 1.6057 1 62.0856767465587 71.12831391799739 0 0 0 0
3947 1 1.5975 1 56.00103234656144 105.96779443144764 0 0 0 0
3954 1 1.5955 1 57.87487860297681 82.09218676261656 0 0 0 0
4108 1 1.565 1 16.43717530754938 111.09034613654343 0 0 0 0
4112 1 1.5642 1 23.841664087416937 104.60994586407071 0 0 0 0
4133 1 1.561 1 51.56919412642588 106.73924793012536 0 0 0 0
3999 1 1.5841 1 49.907886627474795 111.70696931352155 0 0 0 0
4197 1 1.55 1 22.516292681615234 113.80145862107422 0 0 0 0
4237 1 1.5439 1 25.326198530704367 104.92856374207129 0 0 0 0
4249 1 1.5422 1 17.103840336070853 93.86480999539278 0 0 0 0
4262 1 1.5397 1 24.11480190597896 108.17798397998514 0 0 0 0
4269 1 1.5381 1 49.2436603012176 102.6671139122375 0 0 0 0
4274 1 1.5374 1 18.34856008006103 94.67663253767068 0 0 0 0
4351 1 1.5228 1 59.942780691964366 86.74434076900629 0 0 0 0
4574 1 1.4852 1 53.04235011407969 90.64960505903409 0 0 0 0
5406 1 1.3628 1 46.46277436011285 107.91471314999357 0 0 0 0
7555 1 1.148 1 49.000236877163694 112.71154524811526 0 0 0 0
4698 1 1.4651 1 50.246276675413554 101.61457682752825 0 0 0 0
4706 1 1.4641 1 35.97164677362748 100.58225193520678 0 0 0 0
4734 1 1.4588 1 61.354762440610486 86.3729499070697 0 0 0 0
4749 1 1.457 1 32.705657113078054 99.1434467523568 0 0 0 0
4800 1 1.4489 1 31.656055616953 102.49865983612983 0 0 0 0
8344 1 1.0909 1 16.453943133764874 90.26738444330138 0 1 0 0
4840 1 1.4429 1 54.6359868551355 109.01226904275406 0 0 0 0
735 1 3.7083 1 13.21258956410292 116.6615289677607 0 0 0 0
5011 1 1.4191 1 20.576987029289228 94.12018747470424 0 0 0 0
9446 1 1.0286 1 62.027560828720894 114.871318614151 0 0 0 0
5106 1 1.4035 1 59.247253098051395 82.65067586960505 0 0 0 0
5125 1 1.3991 1 41.14914484838094 104.13706431927574 0 0 0 0
5141 1 1.3977 1 42.23926573283382 102.65869665854028 0 0 0 0
5144 1 1.3974 1 27.524287887980122 103.3076110079099 0 0 0 0
5203 1 1.3882 1 24.80830957032649 95.08468170998984 0 0 0 0
7490 1 1.153 1 45.606899681494156 107.02694985615051 0 0 0 0
9953 1 1.003 1 54.397385762829785 96.33339289906363 0 0 0 0
5319 1 1.3735 1 17.31609842467502 92.42475969466894 0 0 0 0
5396 1 1.3642 1 47.276631598989866 96.70267981046872 0 0 0 0
5405 1 1.3629 1 44.77453486709596 102.7781318697799 0 0 0 0
5419 1 1.361 1 39.729117544269506 99.88169661991056 0 0 0 0
3578 1 1.675 1 12.962715950104535 94.38498098946621 0 1 0 0
5545 1 1.3448 1 60.419904232163404 63.68025337722689 0 0 0 0
5836 1 1.311 1 50.26579100191666 107.22154782638228 0 0 0 0
5566 1 1.3421 1 30.960086863324307 96.59676581802977 0 0 0 0
8866 1 1.0591 1 62.890425635048736 112.44477382939682 0 0 0 0
5600 1 1.3373 1 22.83576999753046 103.65754010991627 0 0 0 0
5608 1 1.3359 1 29.726833664554338 96.15743613747783 0 0 0 0
5618 1 1.3349 1 23.693055298796292 99.81641035931956 0 0 0 0
5688 1 1.3277 1 31.714719213313895 100.05240137957041 0 0 0 0
5731 1 1.3228 1 17.16861727822393 97.65819484880299 0 0 0 0
5733 1 1.3226 1 52.44762628106402 100.1561719603466 0 0 0 0
5753 1 1.3201 1 49.37983514497815 110.4056521535671 0 0 0 0
5843 1 1.3103 1 46.40991943428573 95.74527753788637 0 0 0 0
5897 1 1.305 1 38.646911412663336 99.15710813454682 0 0 0 0
5903 1 1.3046 1 48.351937690119975 95.93005873577769 0 0 0 0
5536 1 1.3464 1 22.75006471999093 116.1140186429966 0 0 0 0
6022 1 1.2922 1 51.61223614830924 108.12250379246936 0 0 0 0
400 1 4.9357 1 11.689572499471604 88.68830110432461 0 1 0 0
6069 1 1.2866 1 56.577164249760365 91.52496672984961 0 0 0 0
6083 1 1.2851 1 34.022252990383876 96.39947654844433 0 0 0 0
6121 1 1.2812 1 59.21111978424475 78.61605131751357 0 0 0 0
7356 1 1.1651 1 63.23479886229715 111.40628883991772 0 0 0 0
6188 1 1.2731 1 60.79045366753066 66.36073586969998 0 0 0 0
6195 1 1.2719 1 26.66174729064331 105.23466738821989 0 0 0 0
8774 1 1.0648 1 57.615500564092756 111.61569786801023 0 0 0 0
6311 1 1.2601 1 49.199614027370096 96.84265653365301 0 0 0 0
1967 1 2.2607 1 61.609960693124094 104.52924067035332 0 0 0 0
9848 1 1.0077 1 58.213044689100066 80.83240133284662 0 0 0 0
6412 1 1.2505 1 21.171860744767354 114.07600891173303 0 0 0 0
6462 1 1.2466 1 58.781896953437816 103.45733363345366 0 0 0 0
6502 1 1.2429 1 62.40194369695053 73.6550715521376 0 0 0 0
6537 1 1.2385 1 62.297795668766845 84.28684359007238 0 0 0 0
6608 1 1.231 1 48.918037398536306 91.6557012457665 0 0 0 0
7371 1 1.1638 1 15.442600704700297 90.67755963037713 0 1 0 0
5544 1 1.3452 1 63.12835899670466 114.44273842507418 0 0 0 0
6621 1 1.2302 1 12.722396679082282 99.36703349117597 0 0 0 0
6704 1 1.2217 1 43.436705955541775 94.72785222523156 0 0 0 0
9875 1 1.0061 1 29.921142455937 97.24751533354504 0 0 0 0
4174 1 1.5535 1 20.71629805469617 115.3492875746384 0 0 0 0
4369 1 1.5198 1 63.017261972538726 105.71039383262722 0 0 0 0
1622 1 2.4747 1 11.79436888194201 97.8087543188737 0 1 0 0
3284 1 1.7442 1 12.99620342402336 96.08366081858736 0 1 0 0
9643 1 1.0183 1 59.20836510809096 80.49344704980004 0 0 0 0
1104 1 3.0137 1 54.86856678373958 111.18105069428594 0 0 0 0
9125 1 1.046 1 57.76151334018269 104.40218847870705 0 0 0 0
7000 1 1.1942 1 19.377871886932517 96.87698156599927 0 0 0 0
7029 1 1.1913 1 60.22424391901769 88.03955771359348 0 0 0 0
7047 1 1.1896 1 53.69099095010131 100.16617793825533 0 0 0 0
7071 1 1.1882 1 61.021421823928534 76.5245078139782 0 0 0 0
10000 1 1 1 44.36085028114173 94.11690183043294 0 0 0 0
6944 1 1.1985 1 22.047668977403408 115.07269579618232 0 0 0 0
7139 1 1.183 1 44.88939969664278 95.00806598902422 0 0 0 0
7148 1 1.1825 1 12.57800762859025 102.66617642412523 0 0 0 0
7197 1 1.1783 1 39.69923137419893 98.54998614602309 0 0 0 0
7653 1 1.14 1 45.636701412597155 108.80714563991002 0 0 0 0
7234 1 1.1755 1 59.994541675707275 75.95184554281667 0 0 0 0
7279 1 1.1727 1 14.442034805100437 102.04284499835735 0 0 0 0
7282 1 1.1725 1 16.42168412282745 96.378557402888 0 0 0 0
9593 1 1.0212 1 11.86073362635678 91.6049146556664 0 1 0 0
8451 1 1.0842 1 11.190291767277529 84.51061370623029 0 1 0 0
3802 1 1.6285 1 11.073617817610018 113.34315470930076 0 0 0 0
9313 1 1.0355 1 50.514253532209835 108.3326397497489 0 0 0 0
5475 1 1.3533 1 14.48688148673355 89.96866148944869 0 1 0 0
8891 1 1.0579 1 59.84582332242316 102.68297319473767 0 0 0 0
7388 1 1.1624 1 13.303468937585194 101.79816738649117 0 0 0 0
7399 1 1.1615 1 60.85113417461941 103.0930470877961 0 0 0 0
7402 1 1.1611 1 61.31183920846095 87.63549586143041 0 0 0 0
7432 1 1.1584 1 55.96378693188033 92.74349574858061 0 0 0 0
9340 1 1.0341 1 55.775775217143675 115.05703818475811 0 0 0 0
7510 1 1.1518 1 38.9407074833958 97.69857646089451 0 0 0 0
7523 1 1.1509 1 21.85070405593177 97.61662436108286 0 0 0 0
7580 1 1.1454 1 46.551240094827946 113.42637419910137 0 0 0 0
9755 1 1.0126 1 51.693799931010474 99.35035025535346 0 0 0 0
7684 1 1.1377 1 58.81604822041859 87.45107731848488 0 0 0 0
6886 1 1.2035 1 63.178447739211634 70.24892120606194 0 0 0 0
7730 1 1.1344 1 29.561975192063755 99.25549806184664 0 0 0 0
7762 1 1.1314 1 47.69554533846499 113.3678271945476 0 0 0 0
7763 1 1.1314 1 41.334547768274234 95.33623081779001 0 0 0 0
7929 1 1.1193 1 44.19869677278089 107.13860894090804 0 0 0 0
4286 1 1.5352 1 50.468683110065214 109.5792643130453 0 0 0 0