LAMMPS (24 Dec 2020)
OMP_NUM_THREADS environment is not set. Defaulting to 1 thread. (../comm.cpp:97)
  using 1 OpenMP thread(s) per MPI task
# Big colloid particles and small LJ particles

units		lj
atom_style	sphere
dimension	2
read_data       data
Reading data file ...
  triclinic box = (9.9514336 9.9514336 0.0000000) to (331.81396 331.81396 1.0000000) with tilt (0.0000000 0.0000000 0.0000000)
  1 by 1 by 1 MPI processor grid
  reading atoms ...
  10000 atoms
  reading velocities ...
  10000 velocities
  read_data CPU = 0.027 seconds
change_box      all triclinic
Changing box ...
  triclinic box = (9.9514336 9.9514336 0.0000000) to (331.81396 331.81396 1.0000000) with tilt (0.0000000 0.0000000 0.0000000)

# multi neighbor and comm for efficiency

neighbor	1 multi
neigh_modify	delay 0 collection/interval 6 1.5 3 10 30 100 200
comm_modify     mode multi vel yes reduce/multi

# granular potential

pair_style      granular
pair_coeff      * * hooke 1.0 0.5 tangential linear_history 1.0 0.5 0.1 damping mass_velocity

# fixes

fix		1 all nve/sphere
fix		2 all enforce2d
fix             3 all deform 1 xy erate 2e-4

# dump		1 all custom 2000 dump.granular id x y z radius

thermo_style	custom step temp epair etotal press vol pxy
thermo		1000

timestep	0.005

run		100000
Neighbor list info ...
  update every 1 steps, delay 0 steps, check yes
  max neighbors/atom: 2000, page size: 100000
  master list distance cutoff = 164.7888
  ghost atom cutoff = 164.7888
  binsize = 82.3944, bins = 4 4 1
  1 neighbor lists, perpetual/occasional/extra = 1 0 0
  (1) pair granular, perpetual
      attributes: half, newton on, size, history
      pair build: half/size/multi/newton/tri
      stencil: half/multi/2d/tri
      bin: multi
Per MPI rank memory allocation (min/avg/max) = 14.76 | 14.76 | 14.76 Mbytes
Step Temp E_pair TotEng Press Volume Pxy 
       0 0.00014649953            0 0.00014648488  0.027643657    103595.49 -0.0014952693 
    1000 0.00014726802            0 0.00014725329  0.029388139    103595.49  -0.00172238 
    2000 0.00014880425            0 0.00014878937  0.029608995    103595.49 -0.0023614491 
    3000 0.00015154766            0 0.0001515325  0.029668747    103595.49 -0.0029243775 
    4000 0.00015547813            0 0.00015546258  0.029662951    103595.49 -0.0034433688 
    5000 0.00015919808            0 0.00015918216   0.02988062    103595.49 -0.0037443111 
    6000 0.00016272902            0 0.00016271275  0.029776943    103595.49 -0.0042445445 
    7000 0.00016666322            0 0.00016664655  0.029919286    103595.49 -0.0045231987 
    8000 0.00017137531            0 0.00017135817  0.029849078    103595.49 -0.0049023441 
    9000 0.00017774522            0 0.00017772744  0.029925275    103595.49 -0.0051437804 
   10000 0.00018294048            0 0.00018292219  0.030166956    103595.49 -0.0052769381 
   11000 0.00019030719            0 0.00019028816   0.02988594    103595.49 -0.0058095975 
   12000 0.00019806568            0 0.00019804587  0.029852302    103595.49 -0.0060925449 
   13000 0.00020800749            0 0.00020798669  0.029927995    103595.49 -0.0062667347 
   14000 0.00021854888            0 0.00021852703  0.029984135    103595.49 -0.0064949797 
   15000 0.00022975749            0 0.00022973451  0.030063358    103595.49 -0.0065788835 
   16000 0.00024074076            0 0.00024071668   0.03006058    103595.49 -0.006757928 
   17000 0.00025363768            0 0.00025361232  0.030138053    103595.49 -0.0068153904 
   18000 0.00026618156            0 0.00026615494  0.030621109    103595.49 -0.0067026865 
   19000 0.00028000661            0 0.00027997861  0.030520699    103595.49 -0.0067126187 
   20000 0.00029472369            0 0.00029469422  0.030182866    103595.49 -0.0071232374 
   21000 0.00031065822            0 0.00031062716  0.030417926    103595.49 -0.0070815254 
   22000 0.00032789694            0 0.00032786415  0.030434044    103595.49 -0.007044194 
   23000 0.00034491703            0 0.00034488253  0.031195478    103595.49 -0.006895101 
   24000 0.00036262497            0 0.00036258871  0.030348688    103595.49 -0.0073503964 
   25000 0.00038232332            0 0.00038228509  0.030429549    103595.49 -0.0073043833 
   26000 0.00040292952            0 0.00040288922  0.030277517    103595.49 -0.0074475354 
   27000 0.00042260162            0 0.00042255936  0.030270875    103595.49 -0.0074037511 
   28000 0.00044296255            0 0.00044291826  0.030568983    103595.49 -0.0070827585 
   29000 0.00046164594            0 0.00046159978  0.030392129    103595.49 -0.0070495682 
   30000 0.00048018966            0 0.00048014164   0.03027035    103595.49 -0.0071339757 
   31000 0.00049904958            0 0.00049899968  0.030278024    103595.49 -0.0070690708 
   32000 0.00051586592            0 0.00051581433  0.030105498    103595.49 -0.007134143 
   33000  0.000533257            0 0.00053320367  0.029788452    103595.49 -0.0072245811 
   34000 0.00054849405            0 0.0005484392  0.029873916    103595.49 -0.0069597013 
   35000 0.00056356221            0 0.00056350586  0.029706011    103595.49  -0.00704387 
   36000 0.00057701153            0 0.00057695383  0.029584377    103595.49 -0.006959137 
   37000 0.00058975804            0 0.00058969906  0.029510998    103595.49 -0.0069205813 
   38000 0.00060106815            0 0.00060100804  0.029866588    103595.49 -0.006493655 
   39000 0.00061178223            0 0.00061172105    0.0294686    103595.49 -0.0066809721 
   40000 0.00062087616            0 0.00062081407  0.029305512    103595.49 -0.0067040127 
   41000 0.00062938061            0 0.00062931767  0.029313523    103595.49 -0.0065943738 
   42000 0.0006366437            0 0.00063658004  0.029294719    103595.49 -0.0065039414 
   43000 0.00064403805            0 0.00064397364  0.029169615    103595.49 -0.0065453715 
   44000 0.00064990286            0 0.00064983787  0.029173689    103595.49 -0.0064757302 
   45000 0.00065485285            0 0.00065478736   0.02911295    103595.49 -0.0065336599 
   46000 0.00065918851            0 0.00065912259  0.029664657    103595.49 -0.0060618092 
   47000 0.00066143867            0 0.00066137253  0.029672077    103595.49 -0.0061605571 
   48000 0.00066260774            0 0.00066254148  0.029356515    103595.49 -0.0063944326 
   49000 0.0006641111            0 0.00066404469  0.029771162    103595.49 -0.0061440485 
   50000 0.00066562386            0 0.0006655573   0.02944773    103595.49 -0.0063912951 
   51000 0.00066744319            0 0.00066737645  0.029507067    103595.49  -0.00636767 
   52000 0.00066927675            0 0.00066920982  0.029773443    103595.49 -0.0062192673 
   53000 0.00066999455            0 0.00066992755  0.029626747    103595.49 -0.0062819185 
   54000 0.00067204697            0 0.00067197976  0.029608834    103595.49 -0.0063047897 
   55000 0.00067089926            0 0.00067083217  0.029778336    103595.49 -0.006198876 
   56000 0.00067044673            0 0.00067037969  0.029707087    103595.49 -0.0062920606 
   57000 0.00066987451            0 0.00066980752  0.029751879    103595.49 -0.0062887511 
   58000 0.00066781462            0 0.00066774784  0.029673932    103595.49 -0.0063301658 
   59000 0.00065347402            0 0.00065340867  0.029540521    103595.49 -0.0064527808 
   60000 0.00065304518            0 0.00065297988  0.029801357    103595.49 -0.0062633754 
   61000 0.00065183192            0 0.00065176673  0.029786145    103595.49 -0.0063152956 
   62000 0.00065242331            0 0.00065235807  0.030461931    103595.49 -0.0060591261 
   63000 0.00065491938            0 0.00065485389  0.029715839    103595.49 -0.0065344894 
   64000 0.00065769719            0 0.00065763142   0.02977148    103595.49 -0.0065105553 
   65000 0.00066125407            0 0.00066118795  0.029534462    103595.49 -0.0066901883 
   66000 0.00066433913            0 0.0006642727  0.029949304    103595.49 -0.0064367129 
   67000 0.00066819344            0 0.00066812662  0.029629692    103595.49 -0.0067136218 
   68000 0.00067300953            0 0.00067294223  0.029793673    103595.49 -0.0065898421 
   69000 0.00067875538            0 0.0006786875  0.029651968    103595.49 -0.0067198512 
   70000 0.00068416104            0 0.00068409262  0.030125821    103595.49 -0.0063225262 
   71000 0.00068728347            0 0.00068721475   0.02958142    103595.49 -0.0066417995 
   72000 0.00068926082            0 0.00068919189   0.02976018    103595.49 -0.0063898599 
   73000 0.00068953168            0 0.00068946272  0.029574927    103595.49 -0.0065193167 
   74000 0.00069104787            0 0.00069097876  0.030209247    103595.49 -0.0060666707 
   75000 0.00069606779            0 0.00069599818  0.029636657    103595.49 -0.006387635 
   76000 0.00070399158            0 0.00070392118  0.029585803    103595.49 -0.0063291939 
   77000 0.00070284473            0 0.00070277445  0.029936591    103595.49 -0.0060359763 
   78000 0.00070619015            0 0.00070611953  0.029554333    103595.49 -0.0062453302 
   79000 0.00070892936            0 0.00070885847  0.029853506    103595.49 -0.0060833753 
   80000 0.00071125368            0 0.00071118255  0.029625268    103595.49 -0.0062046031 
   81000 0.00070944317            0 0.00070937223  0.029629542    103595.49 -0.0062343125 
   82000 0.00070892851            0 0.00070885762  0.029664456    103595.49 -0.006250692 
   83000 0.00070946812            0 0.00070939718  0.029964177    103595.49 -0.006159583 
   84000 0.00071198659            0 0.00071191539  0.029813631    103595.49 -0.0062607732 
   85000 0.00071266579            0 0.00071259453  0.029645729    103595.49 -0.0064004319 
   86000 0.00071461592            0 0.00071454446  0.029700002    103595.49 -0.0063398759 
   87000 0.00071781454            0 0.00071774276  0.029748726    103595.49 -0.0063600357 
   88000 0.00072016268            0 0.00072009067  0.029772487    103595.49 -0.0063655529 
   89000 0.00072272254            0 0.00072265027  0.030006837    103595.49 -0.0063122612 
   90000 0.00072122914            0 0.00072115701  0.029982109    103595.49 -0.006439831 
   91000 0.00072443479            0 0.00072436235  0.029830121    103595.49 -0.0065202831 
   92000 0.00072738733            0 0.00072731459  0.030194727    103595.49 -0.0062808688 
   93000 0.00072899838            0 0.00072892548  0.030175295    103595.49 -0.0062914883 
   94000 0.00072984304            0 0.00072977006  0.029844017    103595.49 -0.0064737335 
   95000 0.00073206475            0 0.00073199154  0.029798899    103595.49 -0.0064644006 
   96000 0.00073374806            0 0.00073367468  0.030226823    103595.49 -0.0061626549 
   97000 0.00073388886            0 0.00073381547  0.029993629    103595.49 -0.0063710254 
   98000 0.00073534207            0 0.00073526854  0.030245848    103595.49 -0.0063407392 
   99000 0.00073805531            0 0.0007379815  0.030287955    103595.49 -0.0063646707 
  100000 0.0007385798            0 0.00073850594  0.030172948    103595.49 -0.0064654963 
Loop time of 233.709 on 1 procs for 100000 steps with 10000 atoms

Performance: 184845.371 tau/day, 427.883 timesteps/s
100.0% CPU use with 1 MPI tasks x 1 OpenMP threads

MPI task timing breakdown:
Section |  min time  |  avg time  |  max time  |%varavg| %total
---------------------------------------------------------------
Pair    | 193.18     | 193.18     | 193.18     |   0.0 | 82.66
Neigh   | 1.1138     | 1.1138     | 1.1138     |   0.0 |  0.48
Comm    | 2.3652     | 2.3652     | 2.3652     |   0.0 |  1.01
Output  | 0.0092981  | 0.0092981  | 0.0092981  |   0.0 |  0.00
Modify  | 32.407     | 32.407     | 32.407     |   0.0 | 13.87
Other   |            | 4.628      |            |       |  1.98

Nlocal:        10000.0 ave       10000 max       10000 min
Histogram: 1 0 0 0 0 0 0 0 0 0
Nghost:        446.000 ave         446 max         446 min
Histogram: 1 0 0 0 0 0 0 0 0 0
Neighs:        34464.0 ave       34464 max       34464 min
Histogram: 1 0 0 0 0 0 0 0 0 0

Total # of neighbors = 34464
Ave neighs/atom = 3.4464000
Neighbor list builds = 153
Dangerous builds = 0

Please see the log.cite file for references relevant to this simulation

Total wall time: 0:03:53
