LAMMPS (17 Apr 2024)
  using 1 OpenMP thread(s) per MPI task
WARNING: Atom style hybrid defines both, per-type and per-atom masses; both must be set, but only per-atom masses will be used (src/atom_vec_hybrid.cpp:132)
Reading data file ...
  orthogonal box = (-20 -20 -20) to (20 20 20)
  1 by 2 by 2 MPI processor grid
  reading atoms ...
  16 atoms
  reading velocities ...
  16 velocities
  scanning bonds ...
  1 = max bonds/atom
  16 ellipsoids
  orthogonal box = (-20 -20 -20) to (20 20 20)
  1 by 2 by 2 MPI processor grid
  reading bonds ...
  13 bonds
Finding 1-2 1-3 1-4 neighbors ...
  special bond factors lj:    0        0        0       
  special bond factors coul:  0        0        0       
     2 = max # of 1-2 neighbors
     2 = max # of 1-3 neighbors
     4 = max # of 1-4 neighbors
     6 = max # of special neighbors
  special bonds CPU = 0.001 seconds
  read_data CPU = 0.008 seconds
Setting atom values ...
  16 settings made for mass
16 atoms in group all
Reading oxdna potential (fene) file oxrna2.lj with DATE: 2024-04-19
Finding 1-2 1-3 1-4 neighbors ...
  special bond factors lj:    0        1        1       
  special bond factors coul:  0        0        0       
     2 = max # of 1-2 neighbors
     2 = max # of 1-3 neighbors
     4 = max # of 1-4 neighbors
     6 = max # of special neighbors
  special bonds CPU = 0.000 seconds
Reading oxdna potential (excv) file oxrna2.lj with DATE: 2024-04-19
Reading oxdna potential (stk) file oxrna2.lj with DATE: 2024-04-19
Reading oxdna potential (hbond) file oxrna2.lj with DATE: 2024-04-19
Reading oxdna potential (hbond) file oxrna2.lj with DATE: 2024-04-19
Reading oxdna potential (hbond) file oxrna2.lj with DATE: 2024-04-19
Reading oxdna potential (hbond) file oxrna2.lj with DATE: 2024-04-19
Reading oxdna potential (xstk) file oxrna2.lj with DATE: 2024-04-19
Reading oxdna potential (coaxstk) file oxrna2.lj with DATE: 2024-04-19
Reading oxdna potential (dh) file oxrna2.lj with DATE: 2024-04-19
Generated 0 of 6 mixed pair_coeff terms from geometric mixing rule
Neighbor list info ...
  update: every = 1 steps, delay = 0 steps, check = yes
  max neighbors/atom: 2000, page size: 100000
  master list distance cutoff = 4.3014979
  ghost atom cutoff = 4.3014979
  binsize = 2.150749, bins = 19 19 19
  5 neighbor lists, perpetual/occasional/extra = 5 0 0
  (1) pair oxrna2/excv, perpetual
      attributes: half, newton on
      pair build: half/bin/newton
      stencil: half/bin/3d
      bin: standard
  (2) pair oxrna2/hbond, perpetual, copy from (1)
      attributes: half, newton on
      pair build: copy
      stencil: none
      bin: none
  (3) pair oxrna2/xstk, perpetual, copy from (1)
      attributes: half, newton on
      pair build: copy
      stencil: none
      bin: none
  (4) pair oxrna2/coaxstk, perpetual, copy from (1)
      attributes: half, newton on
      pair build: copy
      stencil: none
      bin: none
  (5) pair oxrna2/dh, perpetual, copy from (1)
      attributes: half, newton on
      pair build: copy
      stencil: none
      bin: none
Setting up Verlet run ...
  Unit style    : lj
  Current step  : 0
  Time step     : 1e-05
WARNING: Communication cutoff adjusted to 4.301497916929199 (src/comm.cpp:739)
0  ekin = 2.70475393009871 |  erot = 2.80172072918779 | epot = -11.1349465280232 | etot = -5.62847186873667
Per MPI rank memory allocation (min/avg/max) = 7.577 | 7.606 | 7.69 Mbytes
   Step          Temp          E_pair         E_mol          TotEng         Press          Volume    
         0   0.12021129    -0.7299505      0.034016337   -0.52688704     5.1214421e-05  64000        
1000  ekin = 2.74425239815417 |  erot = 2.79065458610893 | epot = -11.1633788526891 | etot = -5.62847186842597
2000  ekin = 2.78841691867035 |  erot = 2.77992540099535 | epot = -11.196814187725 | etot = -5.62847186805933
3000  ekin = 2.83938215410022 |  erot = 2.77185117591642 | epot = -11.2397051978034 | etot = -5.62847186778672
4000  ekin = 2.89876217830263 |  erot = 2.76816783884241 | epot = -11.295401884792 | etot = -5.62847186764698
5000  ekin = 2.96742170720769 |  erot = 2.76919345829435 | epot = -11.3650870331989 | etot = -5.62847186769689
6000  ekin = 3.0456300737104 |  erot = 2.77376672268248 | epot = -11.4478686641706 | etot = -5.62847186777773
7000  ekin = 3.13407886898538 |  erot = 2.78065913591457 | epot = -11.5432098726294 | etot = -5.62847186772942
8000  ekin = 3.23400863287743 |  erot = 2.78938863934858 | epot = -11.651869139893 | etot = -5.62847186766703
9000  ekin = 3.34625998930258 |  erot = 2.80019523753785 | epot = -11.7749270943235 | etot = -5.62847186748304
10000  ekin = 3.47220350616334 |  erot = 2.81464622815282 | epot = -11.9153216015116 | etot = -5.62847186719547
11000  ekin = 3.61341090096018 |  erot = 2.83541090219849 | epot = -12.0772936703879 | etot = -5.62847186722922
12000  ekin = 3.76971728921063 |  erot = 2.8651661044909 | epot = -12.26335526073 | etot = -5.62847186702843
13000  ekin = 3.94105577714468 |  erot = 2.90597306806356 | epot = -12.4755007121567 | etot = -5.62847186694845
14000  ekin = 4.12730744896758 |  erot = 2.95952862137381 | epot = -12.7153079373025 | etot = -5.62847186696111
15000  ekin = 4.32776706381551 |  erot = 3.02701108512252 | epot = -12.9832500158855 | etot = -5.62847186694746
16000  ekin = 4.54139695680685 |  erot = 3.10924468066178 | epot = -13.2791135046207 | etot = -5.62847186715204
17000  ekin = 4.76575661763823 |  erot = 3.20604355373091 | epot = -13.6002720389201 | etot = -5.62847186755099
18000  ekin = 4.99700491214683 |  erot = 3.31611869568265 | epot = -13.9415954758899 | etot = -5.62847186806046
19000  ekin = 5.23048108112189 |  erot = 3.43700077146758 | epot = -14.2959537213473 | etot = -5.62847186875783
20000  ekin = 5.46074742513055 |  erot = 3.56463156086399 | epot = -14.6538508556015 | etot = -5.62847186960696
21000  ekin = 5.68087058007131 |  erot = 3.69256776681709 | epot = -15.0019102179231 | etot = -5.62847187103471
22000  ekin = 5.88327619983871 |  erot = 3.81252322503548 | epot = -15.3242712967755 | etot = -5.62847187190132
23000  ekin = 6.06249979951982 |  erot = 3.91720950057661 | epot = -15.6081811728146 | etot = -5.6284718727182
24000  ekin = 6.21449712377427 |  erot = 4.00104081543169 | epot = -15.8440098121103 | etot = -5.62847187290435
25000  ekin = 6.33853277809242 |  erot = 4.06184542619867 | epot = -16.0288500769827 | etot = -5.62847187269159
26000  ekin = 6.43627737186998 |  erot = 4.10076278430829 | epot = -16.1655120283937 | etot = -5.62847187221544
27000  ekin = 6.51092447972012 |  erot = 4.12134483746795 | epot = -16.2607411888239 | etot = -5.62847187163586
28000  ekin = 6.56622100976667 |  erot = 4.12827111510804 | epot = -16.3229639959505 | etot = -5.62847187107576
29000  ekin = 6.60587340002377 |  erot = 4.12622173833889 | epot = -16.360567008949 | etot = -5.62847187058635
30000  ekin = 6.63335580501812 |  erot = 4.11921545444644 | epot = -16.3810431296792 | etot = -5.62847187021468
31000  ekin = 6.65211888589255 |  erot = 4.10999678317525 | epot = -16.3905875389832 | etot = -5.62847186991539
32000  ekin = 6.66584763664858 |  erot = 4.10024297795097 | epot = -16.3945624842072 | etot = -5.62847186960762
33000  ekin = 6.67923227191015 |  erot = 4.09129207413363 | epot = -16.398996215263 | etot = -5.62847186921926
34000  ekin = 6.69756137216819 |  erot = 4.08414768607663 | epot = -16.4101809271346 | etot = -5.62847186888976
35000  ekin = 6.7258962831207 |  erot = 4.07950228497947 | epot = -16.4338704366877 | etot = -5.62847186858755
36000  ekin = 6.76908557113703 |  erot = 4.07778615492108 | epot = -16.4753435944362 | etot = -5.6284718683781
37000  ekin = 6.83097506213393 |  erot = 4.07899014040663 | epot = -16.5384370708784 | etot = -5.62847186833782
38000  ekin = 6.91354703253162 |  erot = 4.08242106390416 | epot = -16.6244399649597 | etot = -5.62847186852396
39000  ekin = 7.01626065739823 |  erot = 4.08652171942784 | epot = -16.7312542457771 | etot = -5.62847186895107
40000  ekin = 7.13573792258319 |  erot = 4.08884404540002 | epot = -16.8530538375758 | etot = -5.62847186959262
41000  ekin = 7.26614194134504 |  erot = 4.08627042537764 | epot = -16.9808842370343 | etot = -5.62847187031164
42000  ekin = 7.40051154120577 |  erot = 4.07546023443099 | epot = -17.1044436466276 | etot = -5.62847187099086
43000  ekin = 7.53157437143679 |  erot = 4.05344655359637 | epot = -17.2134927965847 | etot = -5.6284718715515
44000  ekin = 7.65268317567636 |  erot = 4.01819177227231 | epot = -17.299346819823 | etot = -5.62847187187438
45000  ekin = 7.75845343306881 |  erot = 3.96898510895771 | epot = -17.3559104142061 | etot = -5.62847187217961
46000  ekin = 7.84504377034637 |  erot = 3.90454903064792 | epot = -17.3780646733313 | etot = -5.62847187233703
47000  ekin = 7.9100239082063 |  erot = 3.82478596555195 | epot = -17.3632817459104 | etot = -5.6284718721521
48000  ekin = 7.95195705456511 |  erot = 3.73154439390002 | epot = -17.3119733204125 | etot = -5.62847187194738
49000  ekin = 7.97001825706878 |  erot = 3.62752007295042 | epot = -17.2260102016183 | etot = -5.62847187159909
50000  ekin = 7.96375756700447 |  erot = 3.51726958365103 | epot = -17.109499021545 | etot = -5.62847187088952
51000  ekin = 7.93280761300463 |  erot = 3.4082718849783 | epot = -16.969551368803 | etot = -5.62847187082006
52000  ekin = 7.8765681174422 |  erot = 3.30207418532529 | epot = -16.8071141735586 | etot = -5.62847187079111
53000  ekin = 7.7953101254194 |  erot = 3.19839984815406 | epot = -16.6221818441148 | etot = -5.62847187054135
54000  ekin = 7.68952609570371 |  erot = 3.09980185481814 | epot = -16.4177998208248 | etot = -5.6284718703029
55000  ekin = 7.55966222141136 |  erot = 3.00897426989528 | epot = -16.1971083614502 | etot = -5.62847187014354
56000  ekin = 7.40594124508042 |  erot = 2.92802865182251 | epot = -15.9624417669776 | etot = -5.62847187007466
57000  ekin = 7.22816598142032 |  erot = 2.85836584281784 | epot = -15.7150036943484 | etot = -5.62847187011025
58000  ekin = 7.02573051397646 |  erot = 2.80066522322026 | epot = -15.4548676074198 | etot = -5.62847187022312
59000  ekin = 6.80455077165157 |  erot = 2.7565194471202 | epot = -15.1895420860968 | etot = -5.62847186732506
60000  ekin = 6.57760251691547 |  erot = 2.7273150167872 | epot = -14.9333893991696 | etot = -5.62847186546689
61000  ekin = 5.9988405319016 |  erot = 2.65010269791703 | epot = -14.2774150331164 | etot = -5.62847180329775
62000  ekin = 5.82217958652129 |  erot = 2.6505847819514 | epot = -14.1012361774593 | etot = -5.6284718089866
63000  ekin = 6.00993174210264 |  erot = 2.71143483466393 | epot = -14.3498384845184 | etot = -5.62847190775186
64000  ekin = 5.85096985050382 |  erot = 2.71173917624701 | epot = -14.1911809366074 | etot = -5.62847190985654
65000  ekin = 5.6795980144275 |  erot = 2.70731630130132 | epot = -14.0153862253962 | etot = -5.62847190966738
66000  ekin = 5.49812382731721 |  erot = 2.69646895132475 | epot = -13.8230646880629 | etot = -5.6284719094209
67000  ekin = 5.31011188753164 |  erot = 2.67901331172367 | epot = -13.617597108258 | etot = -5.62847190900273
68000  ekin = 5.11964229582607 |  erot = 2.6562219727338 | epot = -13.4043361770524 | etot = -5.62847190849251
69000  ekin = 4.93067975207874 |  erot = 2.63014135225669 | epot = -13.1892930124926 | etot = -5.62847190815713
70000  ekin = 4.74697386617509 |  erot = 2.6034731270628 | epot = -12.9789189008746 | etot = -5.62847190763674
71000  ekin = 4.57222133259595 |  erot = 2.57971589798904 | epot = -12.780409137744 | etot = -5.62847190715903
72000  ekin = 4.40959648507812 |  erot = 2.56228295922466 | epot = -12.6003513510612 | etot = -5.62847190675846
73000  ekin = 4.26170009573938 |  erot = 2.55406076080087 | epot = -12.4442327629946 | etot = -5.62847190645434
74000  ekin = 4.13052949790856 |  erot = 2.55713155841143 | epot = -12.3161329625864 | etot = -5.62847190626636
75000  ekin = 4.0158819282893 |  erot = 2.56608801434125 | epot = -12.2104419139906 | etot = -5.62847197136006
76000  ekin = 3.95904625854645 |  erot = 2.44184942386113 | epot = -12.0293675901706 | etot = -5.62847190776307
77000  ekin = 4.02755960266396 |  erot = 2.46007159499044 | epot = -12.1161031098039 | etot = -5.62847191214949
78000  ekin = 3.98785439943849 |  erot = 2.49596945534602 | epot = -12.1122957670966 | etot = -5.62847191231205
79000  ekin = 3.96575767721464 |  erot = 2.54200842335455 | epot = -12.1362380131154 | etot = -5.62847191254623
80000  ekin = 3.95961954869592 |  erot = 2.59604589435599 | epot = -12.184137355885 | etot = -5.62847191283309
81000  ekin = 3.9673410003238 |  erot = 2.65577062232356 | epot = -12.2515835357819 | etot = -5.62847191313457
82000  ekin = 3.98651997822158 |  erot = 2.71892569307088 | epot = -12.3339175847233 | etot = -5.62847191343081
83000  ekin = 4.01459300302777 |  erot = 2.78352190390201 | epot = -12.4265868206362 | etot = -5.62847191370641
84000  ekin = 4.0495621060858 |  erot = 2.8479662966442 | epot = -12.5260003165346 | etot = -5.62847191380463
85000  ekin = 4.09049341026889 |  erot = 2.91104365381099 | epot = -12.6300089781181 | etot = -5.62847191403819
86000  ekin = 4.13484812560063 |  erot = 2.97201165419083 | epot = -12.7353316940204 | etot = -5.62847191422892
87000  ekin = 4.18003829184661 |  erot = 3.03078479878275 | epot = -12.8392950049953 | etot = -5.6284719143659
88000  ekin = 4.22360704724739 |  erot = 3.08796574000306 | epot = -12.9400447017 | etot = -5.6284719144496
89000  ekin = 4.26326024607321 |  erot = 3.14481288279462 | epot = -13.0365450433356 | etot = -5.62847191446776
90000  ekin = 4.29588111790608 |  erot = 3.20341713776984 | epot = -13.1277701703296 | etot = -5.62847191465366
91000  ekin = 4.31697784577799 |  erot = 3.26736040230122 | epot = -13.2128101626451 | etot = -5.62847191456589
92000  ekin = 4.3250783734756 |  erot = 3.33931601944521 | epot = -13.2928663075894 | etot = -5.62847191466861
93000  ekin = 4.31872212432174 |  erot = 3.42036541916733 | epot = -13.3675594581772 | etot = -5.62847191468809
94000  ekin = 4.29660005793268 |  erot = 3.51205694754354 | epot = -13.4371289201532 | etot = -5.62847191467697
95000  ekin = 4.25789021838815 |  erot = 3.61606475666788 | epot = -13.5024268896661 | etot = -5.62847191461011
96000  ekin = 4.2025366192647 |  erot = 3.73412422729603 | epot = -13.5651327610303 | etot = -5.62847191446958
97000  ekin = 4.13146529059983 |  erot = 3.86803037439235 | epot = -13.6279675793408 | etot = -5.62847191434867
98000  ekin = 4.04669071975317 |  erot = 4.01885670334665 | epot = -13.6940193371941 | etot = -5.62847191409431
99000  ekin = 3.95128630061856 |  erot = 4.18772840013396 | epot = -13.7674866145613 | etot = -5.6284719138088
100000  ekin = 3.84921784883014 |  erot = 4.37558821791212 | epot = -13.8532779802861 | etot = -5.62847191354385
101000  ekin = 3.74501223923234 |  erot = 4.5825842923172 | epot = -13.9560684449131 | etot = -5.62847191336357
102000  ekin = 3.64330024870495 |  erot = 4.80764134110052 | epot = -14.0794135031359 | etot = -5.62847191333045
103000  ekin = 3.54831662006189 |  erot = 5.04811575607487 | epot = -14.2249042896159 | etot = -5.62847191347916
104000  ekin = 3.46349772064836 |  erot = 5.29960820358442 | epot = -14.3915778382021 | etot = -5.62847191396929
105000  ekin = 3.39136254536159 |  erot = 5.5550770435999 | epot = -14.5749115034235 | etot = -5.628471914462
106000  ekin = 3.33356403744289 |  erot = 5.80718759324942 | epot = -14.7692235454824 | etot = -5.62847191479007
107000  ekin = 3.29209861353571 |  erot = 6.04906687386761 | epot = -14.9696374027438 | etot = -5.62847191534052
108000  ekin = 3.2674848734097 |  erot = 6.27418243659718 | epot = -15.1701392258613 | etot = -5.62847191585437
109000  ekin = 3.25930506886458 |  erot = 6.4758541724433 | epot = -15.3636311580673 | etot = -5.62847191675944
110000  ekin = 3.26568272828949 |  erot = 6.64602097207931 | epot = -15.5401756176965 | etot = -5.62847191732771
111000  ekin = 3.28520059172467 |  erot = 6.77857539600323 | epot = -15.6922479055245 | etot = -5.62847191779661
112000  ekin = 3.31659315707279 |  erot = 6.86862760563939 | epot = -15.8136926809225 | etot = -5.62847191821031
113000  ekin = 3.35860144230777 |  erot = 6.91335224014795 | epot = -15.9004256006548 | etot = -5.62847191819904
114000  ekin = 3.41073468124525 |  erot = 6.91406610981162 | epot = -15.9532727088313 | etot = -5.62847191777438
115000  ekin = 3.47381531534132 |  erot = 6.87643065686351 | epot = -15.9787178894049 | etot = -5.62847191720006
116000  ekin = 3.54886437558636 |  erot = 6.80711139529066 | epot = -15.9844476879556 | etot = -5.62847191707855
117000  ekin = 3.63467409204824 |  erot = 6.71320827683544 | epot = -15.9763542854608 | etot = -5.6284719165771
118000  ekin = 3.72815555523451 |  erot = 6.60276001485538 | epot = -15.9593874864246 | etot = -5.62847191633475
119000  ekin = 3.8242098036383 |  erot = 6.48288858478252 | epot = -15.9355703049679 | etot = -5.62847191654706
120000  ekin = 3.91797748357147 |  erot = 6.35662792089839 | epot = -15.9030773212269 | etot = -5.62847191675705
121000  ekin = 4.00591742043981 |  erot = 6.22468993027065 | epot = -15.8590792676424 | etot = -5.62847191693198
122000  ekin = 4.08550270322333 |  erot = 6.08676575288889 | epot = -15.8007403736368 | etot = -5.62847191752457
123000  ekin = 4.15433540908357 |  erot = 5.94071572290355 | epot = -15.7235230494647 | etot = -5.62847191747755
124000  ekin = 4.21272085203595 |  erot = 5.78590733869454 | epot = -15.6271001078556 | etot = -5.62847191712511
125000  ekin = 4.26325970413181 |  erot = 5.62467373686594 | epot = -15.516405357524 | etot = -5.62847191652626
126000  ekin = 4.30880597980493 |  erot = 5.46113290467127 | epot = -15.3984108007456 | etot = -5.62847191626943
127000  ekin = 4.3513631311099 |  erot = 5.29960307371356 | epot = -15.2794381205815 | etot = -5.62847191575806
128000  ekin = 4.39391383900439 |  erot = 5.14386269106642 | epot = -15.166248445447 | etot = -5.62847191537622
129000  ekin = 4.43858036063557 |  erot = 4.99693296064673 | epot = -15.0639852363956 | etot = -5.62847191511328
130000  ekin = 4.48619887382404 |  erot = 4.86092637377837 | epot = -14.9755971627232 | etot = -5.62847191512077
131000  ekin = 4.53629967745958 |  erot = 4.73552279955379 | epot = -14.9002943921684 | etot = -5.62847191515504
132000  ekin = 4.58794392436588 |  erot = 4.62012473201771 | epot = -14.8365405715589 | etot = -5.62847191517533
133000  ekin = 4.63977927970688 |  erot = 4.51475331813831 | epot = -14.7830045130142 | etot = -5.62847191516899
134000  ekin = 4.69096227444458 |  erot = 4.41936571519981 | epot = -14.7387999047798 | etot = -5.62847191513542
135000  ekin = 4.74083332631883 |  erot = 4.33399770983505 | epot = -14.7033029512355 | etot = -5.62847191508162
136000  ekin = 4.78901374177222 |  erot = 4.25873574864683 | epot = -14.6762214054312 | etot = -5.62847191501212
137000  ekin = 4.83519033966102 |  erot = 4.19345584709188 | epot = -14.6571181018621 | etot = -5.62847191510917
138000  ekin = 4.87857190019093 |  erot = 4.13759960010392 | epot = -14.6446434153633 | etot = -5.62847191506846
139000  ekin = 4.91933904268488 |  erot = 4.09041841408072 | epot = -14.6382293717793 | etot = -5.62847191501367
140000  ekin = 4.95802132610577 |  erot = 4.05108530565712 | epot = -14.6375785467319 | etot = -5.62847191496898
141000  ekin = 4.99519923255229 |  erot = 4.01864210163592 | epot = -14.6423132491258 | etot = -5.62847191493756
142000  ekin = 5.03134031865286 |  erot = 3.9921096007244 | epot = -14.651921834306 | etot = -5.62847191492874
143000  ekin = 5.06663282814527 |  erot = 3.97056100872247 | epot = -14.6656657518147 | etot = -5.6284719149469
144000  ekin = 5.10088003253911 |  erot = 3.9531838593667 | epot = -14.6825358068967 | etot = -5.62847191499091
145000  ekin = 5.13347728619377 |  erot = 3.93933318432689 | epot = -14.7012823855759 | etot = -5.62847191505523
146000  ekin = 5.16346418937017 |  erot = 3.92856945833623 | epot = -14.7205055628377 | etot = -5.62847191513127
147000  ekin = 5.18962884502114 |  erot = 3.9206777897017 | epot = -14.7387785499329 | etot = -5.62847191521003
148000  ekin = 5.21063630105058 |  erot = 3.91566839447859 | epot = -14.7547766108122 | etot = -5.62847191528303
149000  ekin = 5.22515818277348 |  erot = 3.91376203385023 | epot = -14.7673921319672 | etot = -5.6284719153435
150000  ekin = 5.23199081771498 |  erot = 3.91536756918944 | epot = -14.7758303022896 | etot = -5.62847191538518
151000  ekin = 5.2302585743497 |  erot = 3.92102977399639 | epot = -14.7797602637321 | etot = -5.62847191538598
152000  ekin = 5.21970456277725 |  erot = 3.93136599417393 | epot = -14.7795424723217 | etot = -5.62847191537049
153000  ekin = 5.20020715644055 |  erot = 3.94729684643089 | epot = -14.7759759181602 | etot = -5.62847191528876
154000  ekin = 5.17219962281025 |  erot = 3.96989664945499 | epot = -14.7705681875129 | etot = -5.62847191524761
155000  ekin = 5.13597939415339 |  erot = 4.00025654377964 | epot = -14.7647078530859 | etot = -5.62847191515283
156000  ekin = 5.09227456538948 |  erot = 4.03969792967945 | epot = -14.7604444100958 | etot = -5.6284719150269
157000  ekin = 5.04214374655968 |  erot = 4.08965648366453 | epot = -14.7602721451249 | etot = -5.62847191490065
158000  ekin = 4.98664076893875 |  erot = 4.15175637520707 | epot = -14.7668690589168 | etot = -5.62847191477102
159000  ekin = 4.92656708226531 |  erot = 4.22693785976786 | epot = -14.7819768568045 | etot = -5.62847191477136
160000  ekin = 4.86235166665144 |  erot = 4.31524574981851 | epot = -14.8060693313562 | etot = -5.62847191488621
161000  ekin = 4.79340744408571 |  erot = 4.41634192155802 | epot = -14.8382212806409 | etot = -5.62847191499721
162000  ekin = 4.71931679137345 |  erot = 4.52911647420422 | epot = -14.8769051807461 | etot = -5.62847191516839
163000  ekin = 4.63965178838057 |  erot = 4.65170333188857 | epot = -14.9198270356149 | etot = -5.6284719153458
164000  ekin = 4.55406399624446 |  erot = 4.78166301740476 | epot = -14.9641989292998 | etot = -5.62847191565063
165000  ekin = 4.46213996067549 |  erot = 4.9153027215904 | epot = -15.005914598208 | etot = -5.62847191594211
166000  ekin = 4.36388109534935 |  erot = 5.04805357548725 | epot = -15.0404065870436 | etot = -5.62847191620698
167000  ekin = 4.25995046842471 |  erot = 5.17511068522386 | epot = -15.0635330700719 | etot = -5.62847191642331
168000  ekin = 4.15154354282127 |  erot = 5.29182746832013 | epot = -15.0718429277141 | etot = -5.6284719165727
169000  ekin = 4.04026084727452 |  erot = 5.39411747728171 | epot = -15.0628502412115 | etot = -5.62847191665525
170000  ekin = 3.92797723838266 |  erot = 5.47890367159956 | epot = -15.0353528265949 | etot = -5.62847191661267
171000  ekin = 3.81680551395721 |  erot = 5.54460219961154 | epot = -14.9898796300193 | etot = -5.62847191645055
172000  ekin = 3.70912194360746 |  erot = 5.59119877272667 | epot = -14.9287926324946 | etot = -5.62847191616047
173000  ekin = 3.60767008609825 |  erot = 5.62020496675955 | epot = -14.8563469686151 | etot = -5.62847191575734
174000  ekin = 3.51593123142515 |  erot = 5.63484613588001 | epot = -14.7792492818543 | etot = -5.62847191454913
175000  ekin = 3.43946966413688 |  erot = 5.64148825118996 | epot = -14.7094298295795 | etot = -5.62847191425268
176000  ekin = 3.38149964339828 |  erot = 5.64304584979489 | epot = -14.6530174072199 | etot = -5.62847191402674
177000  ekin = 3.34426304280142 |  erot = 5.64075589500425 | epot = -14.613490851737 | etot = -5.62847191393132
178000  ekin = 3.32907821317954 |  erot = 5.63429171925213 | epot = -14.5918418466184 | etot = -5.62847191418678
179000  ekin = 3.33553286829191 |  erot = 5.62088708741392 | epot = -14.5848918700454 | etot = -5.62847191433961
180000  ekin = 3.3633338427711 |  erot = 5.59827011329087 | epot = -14.590075870681 | etot = -5.62847191461902
181000  ekin = 3.41118322744577 |  erot = 5.56369949232745 | epot = -14.6033546347466 | etot = -5.6284719149734
182000  ekin = 3.47666657813831 |  erot = 5.51442909119293 | epot = -14.6195675846739 | etot = -5.62847191534263
183000  ekin = 3.55646627297049 |  erot = 5.44847615754669 | epot = -14.6334143461245 | etot = -5.62847191560728
184000  ekin = 3.64671110623847 |  erot = 5.36528131962425 | epot = -14.6404643416894 | etot = -5.62847191582671
185000  ekin = 3.7429424385421 |  erot = 5.26596644090051 | epot = -14.637380795357 | etot = -5.62847191591437
186000  ekin = 3.84064021177397 |  erot = 5.15359326678864 | epot = -14.6227053944198 | etot = -5.62847191585718
187000  ekin = 3.93563840595001 |  erot = 5.03296537332374 | epot = -14.5970756949481 | etot = -5.62847191567436
188000  ekin = 4.02444308409296 |  erot = 4.91004205202559 | epot = -14.5629570515405 | etot = -5.62847191542198
189000  ekin = 4.10437481570314 |  erot = 4.79101157925938 | epot = -14.5238583101457 | etot = -5.62847191518321
190000  ekin = 4.17348832620003 |  erot = 4.68117061833053 | epot = -14.4831308595846 | etot = -5.62847191505407
191000  ekin = 4.2302884539446 |  erot = 4.5838619279884 | epot = -14.442622297024 | etot = -5.62847191509104
192000  ekin = 4.2735805406068 |  erot = 4.49984530057596 | epot = -14.4018977564812 | etot = -5.62847191529842
193000  ekin = 4.24592911994321 |  erot = 4.46741799187356 | epot = -14.341819022694 | etot = -5.62847191087726
194000  ekin = 4.19994174151085 |  erot = 4.47173701960621 | epot = -14.3001506793693 | etot = -5.62847191825224
195000  ekin = 4.19981139522261 |  erot = 4.40365513590485 | epot = -14.2319384423521 | etot = -5.62847191122465
196000  ekin = 4.18831859750035 |  erot = 4.328213784087 | epot = -14.1450042928984 | etot = -5.62847191131101
197000  ekin = 4.16445522600586 |  erot = 4.24686919663538 | epot = -14.0397963337859 | etot = -5.62847191114469
198000  ekin = 4.1307492037306 |  erot = 4.15919636754741 | epot = -13.9184174820272 | etot = -5.62847191074922
199000  ekin = 4.09062074736305 |  erot = 4.06700829110004 | epot = -13.7861009486946 | etot = -5.6284719102315
200000  ekin = 4.04792338687347 |  erot = 3.97356549445519 | epot = -13.6499607909737 | etot = -5.62847190964504
201000  ekin = 4.00668244919937 |  erot = 3.88277215509152 | epot = -13.5179265133942 | etot = -5.62847190910329
202000  ekin = 3.97063392471906 |  erot = 3.79828207702263 | epot = -13.3973879104142 | etot = -5.6284719086725
203000  ekin = 3.94283665189579 |  erot = 3.72290259923935 | epot = -13.2942111595221 | etot = -5.62847190838693
204000  ekin = 3.92540743372375 |  erot = 3.65835216262531 | epot = -13.2122315046004 | etot = -5.62847190825132
205000  ekin = 3.91946432177547 |  erot = 3.60562062221061 | epot = -13.1535568521759 | etot = -5.62847190818981
206000  ekin = 3.92515912499702 |  erot = 3.56510062726708 | epot = -13.1187316605198 | etot = -5.62847190825566
207000  ekin = 3.94166066189883 |  erot = 3.53643554885193 | epot = -13.106568119133 | etot = -5.62847190838225
208000  ekin = 3.96741904659975 |  erot = 3.51909285319074 | epot = -13.1149838083271 | etot = -5.62847190853662
209000  ekin = 3.99456273873009 |  erot = 3.50083315850435 | epot = -13.1238678065952 | etot = -5.62847190936073
210000  ekin = 4.04796401860738 |  erot = 3.49168954891013 | epot = -13.1681254815447 | etot = -5.62847191402719
211000  ekin = 4.09773342716367 |  erot = 3.49304812012984 | epot = -13.2192534546401 | etot = -5.62847190734662
212000  ekin = 4.14205596974759 |  erot = 3.50221111647932 | epot = -13.2727389936944 | etot = -5.62847190746751
213000  ekin = 4.18461227969667 |  erot = 3.51992604962506 | epot = -13.3330102373293 | etot = -5.62847190800754
214000  ekin = 4.22291801221457 |  erot = 3.54318058638054 | epot = -13.3945705067456 | etot = -5.62847190815054
215000  ekin = 4.25639069944512 |  erot = 3.57018634833026 | epot = -13.4550489560127 | etot = -5.62847190823736
216000  ekin = 4.28517056131255 |  erot = 3.59920416165437 | epot = -13.5128466312863 | etot = -5.62847190831941
217000  ekin = 4.30951457891845 |  erot = 3.6286263473057 | epot = -13.5666128346141 | etot = -5.62847190838996
218000  ekin = 4.33022749098081 |  erot = 3.65639118247548 | epot = -13.6150905819366 | etot = -5.62847190848033
219000  ekin = 4.34822739189298 |  erot = 3.68015661121616 | epot = -13.6568559116936 | etot = -5.62847190858443
220000  ekin = 4.3643728025888 |  erot = 3.69755509928487 | epot = -13.6903998105203 | etot = -5.62847190864662
221000  ekin = 4.37954317243948 |  erot = 3.7066097682417 | epot = -13.7146248493744 | etot = -5.6284719086932
222000  ekin = 4.39451292717598 |  erot = 3.70596363375132 | epot = -13.7289484695975 | etot = -5.62847190867022
223000  ekin = 4.41008213189481 |  erot = 3.69513355487105 | epot = -13.7336875953414 | etot = -5.62847190857551
224000  ekin = 4.42678943726707 |  erot = 3.67466536393115 | epot = -13.7299267097397 | etot = -5.6284719085415
225000  ekin = 4.4446070170142 |  erot = 3.64600909387524 | epot = -13.7190880192601 | etot = -5.62847190837067
226000  ekin = 4.47380092383422 |  erot = 3.58830814096065 | epot = -13.6905809780265 | etot = -5.6284719132316
227000  ekin = 4.56056009805432 |  erot = 3.47269306830543 | epot = -13.6617250773591 | etot = -5.62847191099938
228000  ekin = 4.61083327531231 |  erot = 3.40803816010519 | epot = -13.6473433475428 | etot = -5.62847191212525
229000  ekin = 4.63150013168163 |  erot = 3.35898149000111 | epot = -13.6189535337013 | etot = -5.62847191201853
230000  ekin = 4.65431068144238 |  erot = 3.31343017817962 | epot = -13.5962127716248 | etot = -5.62847191200278
231000  ekin = 4.67934821405078 |  erot = 3.27332737526791 | epot = -13.5811475014861 | etot = -5.62847191216744
232000  ekin = 4.70592354946585 |  erot = 3.23944506667347 | epot = -13.5738405284628 | etot = -5.62847191232351
233000  ekin = 4.73271416122856 |  erot = 3.21144788525789 | epot = -13.5726339590472 | etot = -5.62847191256077
234000  ekin = 4.75943444985412 |  erot = 3.19078729233751 | epot = -13.5786936545851 | etot = -5.62847191239346
235000  ekin = 4.78642241818518 |  erot = 3.18021193977121 | epot = -13.595106270404 | etot = -5.62847191244762
236000  ekin = 4.81315037988696 |  erot = 3.18017325335413 | epot = -13.6217955457091 | etot = -5.62847191246801
237000  ekin = 4.83923297186064 |  erot = 3.19145400454097 | epot = -13.6591588888941 | etot = -5.62847191249251
238000  ekin = 4.86487585932329 |  erot = 3.21481908801147 | epot = -13.7081668597499 | etot = -5.62847191241512
239000  ekin = 4.89063931715455 |  erot = 3.25114955282969 | epot = -13.7702607826994 | etot = -5.6284719127152
240000  ekin = 4.91656145053025 |  erot = 3.29901781219886 | epot = -13.8440511755073 | etot = -5.62847191277818
241000  ekin = 4.94245255089761 |  erot = 3.35699698382585 | epot = -13.9279214477277 | etot = -5.62847191300429
242000  ekin = 4.9676738034646 |  erot = 3.42365009426975 | epot = -14.0197958109359 | etot = -5.62847191320155
243000  ekin = 5.00573446226822 |  erot = 3.47030260467981 | epot = -14.104508979209 | etot = -5.62847191226097
244000  ekin = 5.06987350322707 |  erot = 3.50985787352213 | epot = -14.2082032933178 | etot = -5.62847191656865
245000  ekin = 5.08405115957498 |  erot = 3.57323736718823 | epot = -14.2857604930734 | etot = -5.62847196631014
246000  ekin = 5.13867281569357 |  erot = 3.53022410787181 | epot = -14.297368841906 | etot = -5.62847191834066
247000  ekin = 5.24446071734615 |  erot = 3.63707192640274 | epot = -14.5100045566521 | etot = -5.62847191290324
248000  ekin = 5.23528120841445 |  erot = 3.74023330974589 | epot = -14.6039864311697 | etot = -5.62847191300932
249000  ekin = 5.21260078434817 |  erot = 3.837297956608 | epot = -14.6783706538289 | etot = -5.62847191287273
250000  ekin = 5.17839081249927 |  erot = 3.92749000334494 | epot = -14.7343527284516 | etot = -5.62847191260741
251000  ekin = 5.13586036333573 |  erot = 4.01108345358421 | epot = -14.7754157290713 | etot = -5.62847191215138
252000  ekin = 5.08918292106074 |  erot = 4.09018694185419 | epot = -14.8078417745656 | etot = -5.62847191165069
253000  ekin = 5.04264218495073 |  erot = 4.16759058212955 | epot = -14.8387046782889 | etot = -5.62847191120863
254000  ekin = 4.99116344077593 |  erot = 4.24248912288695 | epot = -14.8621245493469 | etot = -5.62847198568401
255000  ekin = 4.72637462796507 |  erot = 4.24407837664817 | epot = -14.5989249325811 | etot = -5.62847192796782
256000  ekin = 4.59834109997933 |  erot = 4.36369782213481 | epot = -14.5905108365242 | etot = -5.62847191441005
257000  ekin = 4.77089539877043 |  erot = 4.60066315318934 | epot = -15.0000305290225 | etot = -5.62847197706276
258000  ekin = 4.85704242988894 |  erot = 4.66807324378547 | epot = -15.1535875814296 | etot = -5.62847190775515
259000  ekin = 4.89901811471773 |  erot = 4.72718635922983 | epot = -15.2546763808734 | etot = -5.62847190692585
260000  ekin = 4.94107094738753 |  erot = 4.79406863687931 | epot = -15.3636114914281 | etot = -5.62847190716125
261000  ekin = 4.9824230907422 |  erot = 4.86508628583352 | epot = -15.475981284638 | etot = -5.62847190806228
262000  ekin = 5.01659840997744 |  erot = 4.93871137850052 | epot = -15.5837816973808 | etot = -5.62847190890283
263000  ekin = 5.03982661193641 |  erot = 5.00983839413939 | epot = -15.6781369155853 | etot = -5.62847190950953
264000  ekin = 5.0473269634892 |  erot = 5.07389667600714 | epot = -15.7496955496047 | etot = -5.62847191010834
265000  ekin = 5.03448807084051 |  erot = 5.12688367714911 | epot = -15.7898436586299 | etot = -5.62847191064033
266000  ekin = 4.99773438958486 |  erot = 5.16480683533175 | epot = -15.791013135968 | etot = -5.62847191105136
267000  ekin = 4.93508497405026 |  erot = 5.18388050751387 | epot = -15.747437392869 | etot = -5.62847191130489
268000  ekin = 4.84654531469559 |  erot = 5.1806346855983 | epot = -15.6556519116799 | etot = -5.62847191138598
269000  ekin = 4.73423214273252 |  erot = 5.1519885973249 | epot = -15.5146926513497 | etot = -5.62847191129228
270000  ekin = 4.60224202247072 |  erot = 5.09540688817256 | epot = -15.3261208188833 | etot = -5.62847190824006
271000  ekin = 4.45636876653434 |  erot = 5.00923317388234 | epot = -15.0940738481856 | etot = -5.62847190776888
272000  ekin = 4.30375505733966 |  erot = 4.89315778303985 | epot = -14.8253847474784 | etot = -5.62847190709885
273000  ekin = 4.15244061478458 |  erot = 4.74862648122846 | epot = -14.5295390022765 | etot = -5.62847190626348
274000  ekin = 4.01137482333106 |  erot = 4.5789667245575 | epot = -14.2188134532047 | etot = -5.62847190531616
275000  ekin = 3.87388872891049 |  erot = 4.3895080579432 | epot = -13.8918687169693 | etot = -5.6284719301156
276000  ekin = 3.70828148349361 |  erot = 4.18975567949233 | epot = -13.5265090654534 | etot = -5.62847190246743
277000  ekin = 3.74025187939912 |  erot = 3.98894405209637 | epot = -13.3576678645567 | etot = -5.62847193306118
278000  ekin = 3.74221760775116 |  erot = 3.77038543691051 | epot = -13.1410749479052 | etot = -5.62847190324349
279000  ekin = 3.75220115766653 |  erot = 3.55790331813957 | epot = -12.9385763794507 | etot = -5.62847190364464
280000  ekin = 3.77561814014657 |  erot = 3.35781654491971 | epot = -12.7619065883777 | etot = -5.62847190331142
281000  ekin = 3.81272927485115 |  erot = 3.17409695195876 | epot = -12.6152981298196 | etot = -5.62847190300969
282000  ekin = 3.86501988037386 |  erot = 3.00952640154724 | epot = -12.503018184212 | etot = -5.62847190229088
283000  ekin = 3.93628900407809 |  erot = 2.8661316818177 | epot = -12.4308925881356 | etot = -5.62847190223979
284000  ekin = 4.0270270305153 |  erot = 2.74480306500081 | epot = -12.4003019979166 | etot = -5.62847190240049
285000  ekin = 4.14139706641422 |  erot = 2.64599110157996 | epot = -12.4158600691845 | etot = -5.62847190119033
286000  ekin = 4.28525774919445 |  erot = 2.56950762489452 | epot = -12.4832372763396 | etot = -5.62847190225059
287000  ekin = 4.44987555796749 |  erot = 2.51493810068656 | epot = -12.5932855609754 | etot = -5.62847190232132
288000  ekin = 4.63520922265897 |  erot = 2.48100112556068 | epot = -12.744682251566 | etot = -5.6284719033463
289000  ekin = 4.83125797006575 |  erot = 2.46527241540077 | epot = -12.9250022897052 | etot = -5.62847190423864
290000  ekin = 5.02763799220291 |  erot = 2.4654243568242 | epot = -13.1215342541163 | etot = -5.62847190508923
291000  ekin = 5.21465468576449 |  erot = 2.47913524145117 | epot = -13.3222618329834 | etot = -5.6284719057677
292000  ekin = 5.38472348790597 |  erot = 2.50416430329569 | epot = -13.5173596974435 | etot = -5.62847190624189
293000  ekin = 5.5330248706311 |  erot = 2.53823701976809 | epot = -13.6997337969643 | etot = -5.62847190656515
294000  ekin = 5.65718701899536 |  erot = 2.57877496353416 | epot = -13.864433889344 | etot = -5.6284719068145
295000  ekin = 5.75652780496621 |  erot = 2.62269919784431 | epot = -14.007698909843 | etot = -5.62847190703252
296000  ekin = 5.83139499491419 |  erot = 2.6665217122924 | epot = -14.1263886144181 | etot = -5.6284719072115
297000  ekin = 5.88282356332146 |  erot = 2.70675614330257 | epot = -14.2180516139381 | etot = -5.62847190731405
298000  ekin = 5.91239748765179 |  erot = 2.74048494300791 | epot = -14.2813543379722 | etot = -5.62847190731251
299000  ekin = 5.92208198046436 |  erot = 2.76585299301949 | epot = -14.3164068806928 | etot = -5.62847190720895
300000  ekin = 5.91390942018729 |  erot = 2.78233336188307 | epot = -14.324714689099 | etot = -5.6284719070286
301000  ekin = 5.88962133511172 |  erot = 2.79074353675468 | epot = -14.3088367786641 | etot = -5.62847190679768
302000  ekin = 5.8504878142078 |  erot = 2.79307875791172 | epot = -14.2720384786454 | etot = -5.6284719065259
303000  ekin = 5.79743517876747 |  erot = 2.79223225552008 | epot = -14.2181393405006 | etot = -5.62847190621301
304000  ekin = 5.7312434076019 |  erot = 2.79262915088754 | epot = -14.1523444641561 | etot = -5.62847190566669
305000  ekin = 5.65258268469364 |  erot = 2.79940899090737 | epot = -14.0804635809857 | etot = -5.62847190538469
306000  ekin = 5.56254653522508 |  erot = 2.81503734234927 | epot = -14.0060557827357 | etot = -5.62847190516136
307000  ekin = 5.46251129680086 |  erot = 2.84075892386076 | epot = -13.9317421256988 | etot = -5.62847190503716
308000  ekin = 5.35391293499096 |  erot = 2.87633235164342 | epot = -13.8587171916696 | etot = -5.62847190503525
309000  ekin = 5.23805007410738 |  erot = 2.91996940723619 | epot = -13.7864913863822 | etot = -5.6284719050386
310000  ekin = 5.11613875821451 |  erot = 2.96880482960497 | epot = -13.7134154931085 | etot = -5.62847190528902
311000  ekin = 4.98925852658179 |  erot = 3.01839769776313 | epot = -13.6361281298157 | etot = -5.62847190547077
312000  ekin = 4.85867326621007 |  erot = 3.06421411594136 | epot = -13.5513592877764 | etot = -5.62847190562498
313000  ekin = 4.72585112666007 |  erot = 3.1023659033067 | epot = -13.4566889356335 | etot = -5.62847190566677
314000  ekin = 4.59293421044821 |  erot = 3.13002199529812 | epot = -13.3514281113063 | etot = -5.62847190555992
315000  ekin = 4.46270669970081 |  erot = 3.14588950388386 | epot = -13.2370681089054 | etot = -5.62847190532072
316000  ekin = 4.3384545703267 |  erot = 3.15016989319031 | epot = -13.1170963685052 | etot = -5.62847190498817
317000  ekin = 4.22370149065743 |  erot = 3.14429402988067 | epot = -12.996467425148 | etot = -5.62847190460986
318000  ekin = 4.12188681799284 |  erot = 3.13056754979034 | epot = -12.8809262720121 | etot = -5.62847190422894
319000  ekin = 4.03607214170579 |  erot = 3.11184182788027 | epot = -12.77638587346 | etot = -5.62847190387392
320000  ekin = 3.96873641007762 |  erot = 3.09128048612704 | epot = -12.6884887997606 | etot = -5.62847190355594
321000  ekin = 3.92167797368586 |  erot = 3.07226107994919 | epot = -12.6224109569088 | etot = -5.62847190327372
322000  ekin = 3.89600971422213 |  erot = 3.05833648375385 | epot = -12.5828181010071 | etot = -5.62847190303107
323000  ekin = 3.89216326552103 |  erot = 3.05323078721206 | epot = -12.5738659555728 | etot = -5.62847190283971
324000  ekin = 3.90971752721543 |  erot = 3.06065920138556 | epot = -12.5988486316037 | etot = -5.62847190300271
325000  ekin = 3.94474197768388 |  erot = 3.08325557843867 | epot = -12.6564694593744 | etot = -5.62847190325185
326000  ekin = 3.99225791213231 |  erot = 3.1213166619738 | epot = -12.7420464778809 | etot = -5.62847190377475
327000  ekin = 4.04715751820597 |  erot = 3.17277573874842 | epot = -12.8484051615311 | etot = -5.6284719045767
328000  ekin = 4.10306827951536 |  erot = 3.23289809102827 | epot = -12.9644382761474 | etot = -5.6284719056038
329000  ekin = 4.1529407779893 |  erot = 3.29460254687961 | epot = -13.0760152315458 | etot = -5.62847190667689
330000  ekin = 4.19046086380311 |  erot = 3.34957314359943 | epot = -13.1685059149075 | etot = -5.628471907505
331000  ekin = 4.21187936706255 |  erot = 3.3898915326679 | epot = -13.2302428077012 | etot = -5.62847190797073
332000  ekin = 4.21589857654889 |  erot = 3.410750943744 | epot = -13.2551214281506 | etot = -5.62847190785773
333000  ekin = 4.20485266001253 |  erot = 3.4117439982385 | epot = -13.2450685654485 | etot = -5.62847190719748
334000  ekin = 4.18435368277225 |  erot = 3.39692225042827 | epot = -13.2097478393621 | etot = -5.62847190616153
335000  ekin = 4.16205455862581 |  erot = 3.37367623592429 | epot = -13.1642026995401 | etot = -5.62847190499001
336000  ekin = 4.14609491421859 |  erot = 3.3509330966453 | epot = -13.1254999147712 | etot = -5.62847190390733
337000  ekin = 4.14364358932779 |  erot = 3.33736964604109 | epot = -13.1094851384434 | etot = -5.62847190307457
338000  ekin = 4.15982493124777 |  erot = 3.33968220641345 | epot = -13.1279790403949 | etot = -5.62847190273368
339000  ekin = 4.19714166717843 |  erot = 3.36120406393393 | epot = -13.1868176337222 | etot = -5.62847190260982
340000  ekin = 4.2551847438325 |  erot = 3.4039445653371 | epot = -13.2876012119721 | etot = -5.62847190280253
341000  ekin = 4.33079125362424 |  erot = 3.46797257817826 | epot = -13.4272357350448 | etot = -5.62847190324226
342000  ekin = 4.41854745260805 |  erot = 3.55173943759857 | epot = -13.598758794057 | etot = -5.62847190385035
343000  ekin = 4.51153864840457 |  erot = 3.65250494550999 | epot = -13.7925154984656 | etot = -5.62847190455105
344000  ekin = 4.60219231319681 |  erot = 3.76671918648665 | epot = -13.997383404942 | etot = -5.62847190525855
345000  ekin = 4.68312343521548 |  erot = 3.89042211425568 | epot = -14.2020174553784 | etot = -5.62847190590722
346000  ekin = 4.74786790541098 |  erot = 4.01955036385073 | epot = -14.3958901757075 | etot = -5.6284719064458
347000  ekin = 4.79150376887216 |  erot = 4.1501952988555 | epot = -14.5701709745265 | etot = -5.62847190679885
348000  ekin = 4.81117855586204 |  erot = 4.27877359765812 | epot = -14.7184240605732 | etot = -5.62847190705307
349000  ekin = 4.80564918859609 |  erot = 4.4020566269382 | epot = -14.8361777227061 | etot = -5.62847190717178
350000  ekin = 4.7754594532902 |  erot = 4.51714564006845 | epot = -14.9210770005556 | etot = -5.62847190719693
351000  ekin = 4.72262273321685 |  erot = 4.62116010890004 | epot = -14.9722547493249 | etot = -5.62847190720796
352000  ekin = 4.65007958813433 |  erot = 4.71078593022506 | epot = -14.989337425643 | etot = -5.62847190728361
353000  ekin = 4.56109157464307 |  erot = 4.78180335585299 | epot = -14.9713668379626 | etot = -5.62847190746653
354000  ekin = 4.45876151245249 |  erot = 4.82895979648526 | epot = -14.9161932166645 | etot = -5.6284719077268
355000  ekin = 4.34584612944072 |  erot = 4.84663553109637 | epot = -14.8209535684655 | etot = -5.62847190792837
356000  ekin = 4.22495470319457 |  erot = 4.83038190909228 | epot = -14.68380852018 | etot = -5.62847190789319
357000  ekin = 4.09903296593331 |  erot = 4.77873075093692 | epot = -14.5062356243563 | etot = -5.6284719074861
358000  ekin = 3.97178667554692 |  erot = 4.69444561049185 | epot = -14.2947041927515 | etot = -5.62847190671276
359000  ekin = 3.84767298928416 |  erot = 4.58431182212931 | epot = -14.0604567171694 | etot = -5.62847190575592
360000  ekin = 3.73136439807966 |  erot = 4.45746613156864 | epot = -13.8173024344097 | etot = -5.62847190476144
361000  ekin = 3.62758093165255 |  erot = 4.32379064504548 | epot = -13.5798434807329 | etot = -5.62847190403486
362000  ekin = 3.54294892306986 |  erot = 4.19358097113779 | epot = -13.3650017978886 | etot = -5.6284719036809
363000  ekin = 3.47837311692254 |  erot = 4.07207692081703 | epot = -13.1789219413003 | etot = -5.62847190356078
364000  ekin = 3.43225009807465 |  erot = 3.96193194141269 | epot = -13.0226539430779 | etot = -5.62847190359055
365000  ekin = 3.40198388465267 |  erot = 3.86460642704947 | epot = -12.8950622153906 | etot = -5.62847190368841
366000  ekin = 3.38451833854459 |  erot = 3.78104622244357 | epot = -12.7940364647728 | etot = -5.62847190378467
367000  ekin = 3.37682483160575 |  erot = 3.7121800085712 | epot = -12.7174767440217 | etot = -5.6284719038448
368000  ekin = 3.37625204141101 |  erot = 3.65912147822589 | epot = -12.6638454234932 | etot = -5.62847190385628
369000  ekin = 3.38074636729424 |  erot = 3.62312680344321 | epot = -12.6323450745658 | etot = -5.62847190382834
370000  ekin = 3.38894636701411 |  erot = 3.60538856637043 | epot = -12.6228068372074 | etot = -5.62847190382282
371000  ekin = 3.40011634062708 |  erot = 3.60672333638067 | epot = -12.6353115807575 | etot = -5.62847190374974
372000  ekin = 3.41430323565628 |  erot = 3.62748920224198 | epot = -12.6702643415996 | etot = -5.62847190370131
373000  ekin = 3.43217624798381 |  erot = 3.66740997409027 | epot = -12.7280581256201 | etot = -5.62847190354598
374000  ekin = 3.45538314688893 |  erot = 3.72532070767081 | epot = -12.8091757581902 | etot = -5.62847190363042
375000  ekin = 3.48458983106171 |  erot = 3.79950576967025 | epot = -12.9125675044908 | etot = -5.62847190375884
376000  ekin = 3.519946308663 |  erot = 3.88772077542516 | epot = -13.0361389880165 | etot = -5.62847190392834
377000  ekin = 3.56162263242343 |  erot = 3.98718032088155 | epot = -13.1772748574015 | etot = -5.62847190409652
378000  ekin = 3.6100922902232 |  erot = 4.09470007582941 | epot = -13.3332642703601 | etot = -5.62847190430747
379000  ekin = 3.66621939255748 |  erot = 4.20668278517705 | epot = -13.5013740821801 | etot = -5.62847190444559
380000  ekin = 3.73222313439189 |  erot = 4.31893025307307 | epot = -13.6796252923471 | etot = -5.62847190488211
381000  ekin = 3.80656943727892 |  erot = 4.42661769096398 | epot = -13.8616590336969 | etot = -5.62847190545403
382000  ekin = 3.88594558530565 |  erot = 4.52459411507408 | epot = -14.0390116064667 | etot = -5.62847190608696
383000  ekin = 3.96695090004012 |  erot = 4.60747433896425 | epot = -14.2028971457321 | etot = -5.62847190672769
384000  ekin = 4.0461964507197 |  erot = 4.66967915258677 | epot = -14.3443475106066 | etot = -5.62847190730011
385000  ekin = 4.12092029141552 |  erot = 4.70599192063093 | epot = -14.4553841197197 | etot = -5.62847190767323
386000  ekin = 4.18945537166368 |  erot = 4.71237691680877 | epot = -14.5303041965821 | etot = -5.62847190810968
387000  ekin = 4.24770733747877 |  erot = 4.68531871642997 | epot = -14.5614979619664 | etot = -5.62847190805767
388000  ekin = 4.29400518234331 |  erot = 4.624330647637 | epot = -14.5468077376945 | etot = -5.62847190771423
389000  ekin = 4.32973751036583 |  erot = 4.53230747813147 | epot = -14.4905168956653 | etot = -5.62847190716798
390000  ekin = 4.35696496433089 |  erot = 4.41432356912958 | epot = -14.3997604400326 | etot = -5.62847190657214
391000  ekin = 4.37768888460709 |  erot = 4.27672754998431 | epot = -14.2828883405318 | etot = -5.62847190594035
392000  ekin = 4.39398588700049 |  erot = 4.12625191222807 | epot = -14.1487097046122 | etot = -5.6284719053836
393000  ekin = 4.40738241117029 |  erot = 3.96936593193603 | epot = -14.0052202479334 | etot = -5.62847190482706
394000  ekin = 4.41937568154045 |  erot = 3.81285278685682 | epot = -13.8607003730639 | etot = -5.62847190466665
395000  ekin = 4.42988768162593 |  erot = 3.66065946574567 | epot = -13.7190190519064 | etot = -5.62847190453479
396000  ekin = 4.43847476587206 |  erot = 3.5152560321435 | epot = -13.582202702411 | etot = -5.62847190439546
397000  ekin = 4.44517728394754 |  erot = 3.37891512777114 | epot = -13.4525643159392 | etot = -5.62847190422053
398000  ekin = 4.45064950023435 |  erot = 3.25392386318359 | epot = -13.3330452674182 | etot = -5.62847190400029
399000  ekin = 4.45613851374602 |  erot = 3.14269651881333 | epot = -13.2273069363619 | etot = -5.62847190380256
400000  ekin = 4.46297608302819 |  erot = 3.04745583065118 | epot = -13.1389038172284 | etot = -5.62847190354901
401000  ekin = 4.47275545998799 |  erot = 2.97053701411079 | epot = -13.0717643774621 | etot = -5.62847190336335
402000  ekin = 4.4867233669823 |  erot = 2.91396522580327 | epot = -13.0291604961298 | etot = -5.62847190334424
403000  ekin = 4.50482841069757 |  erot = 2.87870251809813 | epot = -13.0120028324148 | etot = -5.62847190361907
404000  ekin = 4.52484325728014 |  erot = 2.86379686214802 | epot = -13.0171120236836 | etot = -5.6284719042554
405000  ekin = 4.54178669950829 |  erot = 2.86535120568894 | epot = -13.035609810678 | etot = -5.62847190548074
406000  ekin = 4.54812186974468 |  erot = 2.87565623453592 | epot = -13.052250010881 | etot = -5.62847190660039
407000  ekin = 4.53567765658788 |  erot = 2.88781666333265 | epot = -13.0519662273462 | etot = -5.62847190742564
408000  ekin = 4.49806839868194 |  erot = 2.89717319274415 | epot = -13.0237134990795 | etot = -5.62847190765341
409000  ekin = 4.4328904182026 |  erot = 2.90293173428735 | epot = -12.9642940597694 | etot = -5.62847190727948
410000  ekin = 4.34222243506053 |  erot = 2.90784571762984 | epot = -12.8785400592398 | etot = -5.6284719065494
411000  ekin = 4.23122328976019 |  erot = 2.91632332330227 | epot = -12.7760185188611 | etot = -5.62847190579869
412000  ekin = 4.10591302463055 |  erot = 2.9323426322671 | epot = -12.6667275621366 | etot = -5.62847190523896
413000  ekin = 3.97147909130296 |  erot = 2.9582687533961 | epot = -12.5582197496086 | etot = -5.62847190490952
414000  ekin = 3.83169645323166 |  erot = 2.99487215443308 | epot = -12.4550405124112 | etot = -5.62847190474651
415000  ekin = 3.68915556881038 |  erot = 3.04191716157642 | epot = -12.3595446350554 | etot = -5.62847190466862
416000  ekin = 3.54575553252049 |  erot = 3.09878213618451 | epot = -12.2730095733204 | etot = -5.62847190461537
417000  ekin = 3.40315271141066 |  erot = 3.164842467978 | epot = -12.196467083944 | etot = -5.62847190455536
418000  ekin = 3.26306253868106 |  erot = 3.23960054560962 | epot = -12.1311349887671 | etot = -5.62847190447641
419000  ekin = 3.12743539440816 |  erot = 3.32265867818775 | epot = -12.0785659769723 | etot = -5.62847190437633
420000  ekin = 2.99854685242666 |  erot = 3.41362396353234 | epot = -12.0406427202186 | etot = -5.62847190425955
421000  ekin = 2.87901712486664 |  erot = 3.51197880386987 | epot = -12.0194678328765 | etot = -5.62847190413994
422000  ekin = 2.77174596046411 |  erot = 3.61690112211165 | epot = -12.0171189866207 | etot = -5.62847190404499
423000  ekin = 2.67973794658802 |  erot = 3.72700827493852 | epot = -12.035218125545 | etot = -5.62847190401841
424000  ekin = 2.60579870922907 |  erot = 3.84002717535674 | epot = -12.0742977887019 | etot = -5.62847190411612
425000  ekin = 2.55208954521947 |  erot = 3.95244167900237 | epot = -12.1330031286242 | etot = -5.62847190440239
426000  ekin = 2.51954653039535 |  erot = 4.05920212813651 | epot = -12.2072205634654 | etot = -5.62847190493355
427000  ekin = 2.5072589388593 |  erot = 4.15363681835807 | epot = -12.2893676629362 | etot = -5.62847190571882
428000  ekin = 2.51210485170757 |  erot = 4.22782399619353 | epot = -12.3684007545544 | etot = -5.62847190665333
429000  ekin = 2.52911833228889 |  erot = 4.27377369076429 | epot = -12.4313639305373 | etot = -5.62847190748416
430000  ekin = 2.55284926696839 |  erot = 4.28551618829766 | epot = -12.4668373631587 | etot = -5.62847190789266
431000  ekin = 2.5792413941596 |  erot = 4.26142412038931 | epot = -12.4691374222357 | etot = -5.62847190768682
432000  ekin = 2.60692475462905 |  erot = 4.20541068247442 | epot = -12.4408073440443 | etot = -5.62847190694087
433000  ekin = 2.63712842978732 |  erot = 4.12604912501915 | epot = -12.391649460746 | etot = -5.62847190593952
434000  ekin = 2.67245542238064 |  erot = 4.03405948921703 | epot = -12.3349868165901 | etot = -5.62847190499243
435000  ekin = 2.71543854637315 |  erot = 3.93961255971203 | epot = -12.2835230103731 | etot = -5.62847190428796
436000  ekin = 2.7676099133887 |  erot = 3.85063248523838 | epot = -12.2467143025076 | etot = -5.62847190388056
437000  ekin = 2.82920515669222 |  erot = 3.77223859651331 | epot = -12.229915656936 | etot = -5.62847190373046
438000  ekin = 2.89929820056594 |  erot = 3.70707509976307 | epot = -12.2348452041008 | etot = -5.62847190377184
439000  ekin = 2.9760933415326 |  erot = 3.65590372390477 | epot = -12.2604689693817 | etot = -5.6284719039443
440000  ekin = 3.05720906610823 |  erot = 3.61815200785468 | epot = -12.3038329781675 | etot = -5.62847190420454
441000  ekin = 3.13989672826847 |  erot = 3.59232302401357 | epot = -12.3606916568039 | etot = -5.62847190452184
442000  ekin = 3.22119927516582 |  erot = 3.57626892521649 | epot = -12.4259401052597 | etot = -5.62847190487744
443000  ekin = 3.29807867299877 |  erot = 3.56737972997483 | epot = -12.4939303082247 | etot = -5.62847190525111
444000  ekin = 3.36753883941706 |  erot = 3.56276348928583 | epot = -12.5587742343254 | etot = -5.6284719056225
445000  ekin = 3.4267604657865 |  erot = 3.5594202591977 | epot = -12.6146526309536 | etot = -5.62847190596943
446000  ekin = 3.4732438364428 |  erot = 3.55443462309391 | epot = -12.6561503658096 | etot = -5.6284719062729
447000  ekin = 3.50497354373429 |  erot = 3.54511419619686 | epot = -12.6785596464417 | etot = -5.62847190651056
448000  ekin = 3.52056213080159 |  erot = 3.52974100709658 | epot = -12.6787750444224 | etot = -5.62847190652427
449000  ekin = 3.51939696587387 |  erot = 3.50705904510086 | epot = -12.654927917584 | etot = -5.62847190660929
450000  ekin = 3.5016453604961 |  erot = 3.47565071064701 | epot = -12.6057679777469 | etot = -5.6284719066038
451000  ekin = 3.46824790703459 |  erot = 3.43472151201005 | epot = -12.5314413255503 | etot = -5.62847190650569
452000  ekin = 3.42090312732073 |  erot = 3.38414558727626 | epot = -12.4335206209132 | etot = -5.62847190631618
453000  ekin = 3.36201791823597 |  erot = 3.32449206043664 | epot = -12.314981884713 | etot = -5.62847190604043
454000  ekin = 3.2946331605557 |  erot = 3.2570173981732 | epot = -12.1801224644173 | etot = -5.62847190568836
455000  ekin = 3.22233274893701 |  erot = 3.18360703275134 | epot = -12.034411686962 | etot = -5.62847190527366
456000  ekin = 3.14914248623648 |  erot = 3.1066699219646 | epot = -11.8842843130161 | etot = -5.62847190481507
457000  ekin = 3.07939737168114 |  erot = 3.02894564057018 | epot = -11.7368149165949 | etot = -5.62847190434356
458000  ekin = 3.01756413263389 |  erot = 2.95322108561181 | epot = -11.5992571221015 | etot = -5.62847190385585
459000  ekin = 2.96810632519469 |  erot = 2.88249754734906 | epot = -11.4790757759526 | etot = -5.62847190340889
460000  ekin = 2.93513888999174 |  erot = 2.81955267519756 | epot = -11.3831634682281 | etot = -5.62847190303883
461000  ekin = 2.92205746385285 |  erot = 2.76669234906914 | epot = -11.3172217157053 | etot = -5.62847190278331
462000  ekin = 2.93114290147914 |  erot = 2.72556812594822 | epot = -11.2851829301037 | etot = -5.62847190267634
463000  ekin = 2.96319319678514 |  erot = 2.69703193760489 | epot = -11.2886970371302 | etot = -5.62847190274017
464000  ekin = 3.01726238567802 |  erot = 2.68105615129255 | epot = -11.3267904399496 | etot = -5.62847190297905
465000  ekin = 3.09058398931814 |  erot = 2.67674994758071 | epot = -11.3958058402727 | etot = -5.62847190337382
466000  ekin = 3.17872270900337 |  erot = 2.68248866699199 | epot = -11.4896832798798 | etot = -5.6284719038844
467000  ekin = 3.27594114496388 |  erot = 2.69614045584313 | epot = -11.6005535052654 | etot = -5.62847190445843
468000  ekin = 3.37571282134116 |  erot = 2.71534026238797 | epot = -11.7195249887722 | etot = -5.6284719050431
469000  ekin = 3.47128178262872 |  erot = 2.73774679761809 | epot = -11.8375004858403 | etot = -5.62847190559353
470000  ekin = 3.55617737698809 |  erot = 2.76123628660059 | epot = -11.9458855696663 | etot = -5.62847190607764
471000  ekin = 3.62463309398908 |  erot = 2.7840279000278 | epot = -12.0371329004895 | etot = -5.62847190647262
472000  ekin = 3.6719055989109 |  erot = 2.80477124777919 | epot = -12.1051487534503 | etot = -5.62847190676026
473000  ekin = 3.69451868438929 |  erot = 2.8226311614059 | epot = -12.1456217527189 | etot = -5.62847190692371
474000  ekin = 3.69045746328685 |  erot = 2.83737882568705 | epot = -12.1563081959231 | etot = -5.62847190694923
475000  ekin = 3.6593211634728 |  erot = 2.84946541727549 | epot = -12.137258487577 | etot = -5.62847190682866
476000  ekin = 3.60242486134417 |  erot = 2.86004016499793 | epot = -12.0909369329056 | etot = -5.6284719065635
477000  ekin = 3.52282746235149 |  erot = 2.87088465737282 | epot = -12.0221840258896 | etot = -5.6284719061653
478000  ekin = 3.42525452624621 |  erot = 2.88424967272427 | epot = -11.9379761046398 | etot = -5.62847190566935
479000  ekin = 3.31588349733366 |  erot = 2.90254646899046 | epot = -11.8469018714438 | etot = -5.6284719051197
480000  ekin = 3.20192949240033 |  erot = 2.92801081394181 | epot = -11.7584122109241 | etot = -5.62847190458198
481000  ekin = 3.09102106834982 |  erot = 2.96227510044524 | epot = -11.6817680729323 | etot = -5.62847190413723
482000  ekin = 2.99039932395874 |  erot = 3.00590839373353 | epot = -11.6247796215598 | etot = -5.62847190386749
483000  ekin = 2.90605693339778 |  erot = 3.057998029687 | epot = -11.5925268669243 | etot = -5.62847190383955
484000  ekin = 2.84200171520451 |  erot = 3.11586840868176 | epot = -11.5863420279687 | etot = -5.62847190408239
485000  ekin = 2.81072036470337 |  erot = 3.03665546450253 | epot = -11.4758477217461 | etot = -5.62847189254017
486000  ekin = 2.99172671803144 |  erot = 2.8902858860562 | epot = -11.5104845148187 | etot = -5.6284719107311
487000  ekin = 3.04661020878249 |  erot = 2.8951625715582 | epot = -11.570244685978 | etot = -5.62847190563732
488000  ekin = 3.02813445458055 |  erot = 2.91755814176744 | epot = -11.5741645018864 | etot = -5.62847190553838
489000  ekin = 3.02918173187053 |  erot = 2.94703274344757 | epot = -11.6046863809234 | etot = -5.62847190560528
490000  ekin = 3.04920929974131 |  erot = 2.98299921442212 | epot = -11.6606804199871 | etot = -5.62847190582362
491000  ekin = 3.08564623422607 |  erot = 3.02458607706386 | epot = -11.738704217412 | etot = -5.6284719061221
492000  ekin = 3.1342665021678 |  erot = 3.07113014043047 | epot = -11.8338685490392 | etot = -5.62847190644092
493000  ekin = 3.19024782358984 |  erot = 3.1224673638186 | epot = -11.9411870940572 | etot = -5.62847190664872
494000  ekin = 3.24418110409375 |  erot = 3.17757093534113 | epot = -12.0502240479546 | etot = -5.62847200851974
495000  ekin = 3.12930691892923 |  erot = 3.12025770016925 | epot = -11.8780365339305 | etot = -5.62847191483198
496000  ekin = 3.38154400840661 |  erot = 3.12702216687179 | epot = -12.1370381394914 | etot = -5.62847196421296
497000  ekin = 3.53796334308702 |  erot = 3.21345240190075 | epot = -12.3798876662285 | etot = -5.62847192124069
498000  ekin = 3.54725242248558 |  erot = 3.31274815699891 | epot = -12.4884725007429 | etot = -5.62847192125837
499000  ekin = 3.54686752395165 |  erot = 3.42936350676291 | epot = -12.6047029520642 | etot = -5.62847192134968
500000  ekin = 3.53611629145284 |  erot = 3.56214471853519 | epot = -12.7267329315047 | etot = -5.62847192151662
501000  ekin = 3.51474019583872 |  erot = 3.70831240067005 | epot = -12.8515245182709 | etot = -5.62847192176214
502000  ekin = 3.48291543615718 |  erot = 3.8635159786248 | epot = -12.9749033367771 | etot = -5.62847192199511
503000  ekin = 3.44167367982098 |  erot = 4.02200657199432 | epot = -13.0921521741673 | etot = -5.62847192235205
504000  ekin = 3.39166561935164 |  erot = 4.17733332046514 | epot = -13.1974708625621 | etot = -5.62847192274537
505000  ekin = 3.33344269447494 |  erot = 4.32266370131248 | epot = -13.2845783189239 | etot = -5.62847192313651
506000  ekin = 3.26726906275998 |  erot = 4.45157764167683 | epot = -13.3473186278406 | etot = -5.62847192340378
507000  ekin = 3.19388361646075 |  erot = 4.55898983233121 | epot = -13.3813453722816 | etot = -5.62847192348966
508000  ekin = 3.11462724045838 |  erot = 4.64207406475665 | epot = -13.385173228554 | etot = -5.62847192333901
509000  ekin = 3.03154551887422 |  erot = 4.70083202647248 | epot = -13.360849468307 | etot = -5.6284719229603
510000  ekin = 2.94513058609306 |  erot = 4.73730594225058 | epot = -13.3109084508342 | etot = -5.62847192249056
511000  ekin = 2.85640718492639 |  erot = 4.75516581384965 | epot = -13.2400449207019 | etot = -5.62847192192582
512000  ekin = 2.76854482523754 |  erot = 4.75962991524841 | epot = -13.1566466618552 | etot = -5.62847192136923
513000  ekin = 2.68465921482265 |  erot = 4.75599513194798 | epot = -13.0691262676736 | etot = -5.62847192090298
514000  ekin = 2.60745568313821 |  erot = 4.74870168659019 | epot = -12.984629290316 | etot = -5.62847192058764
515000  ekin = 2.53899080264135 |  erot = 4.74082869236398 | epot = -12.9082914154155 | etot = -5.62847192041015
516000  ekin = 2.48057862897191 |  erot = 4.73416754059327 | epot = -12.8432180899264 | etot = -5.62847192036126
517000  ekin = 2.43281299021006 |  erot = 4.72933651066864 | epot = -12.7906214212866 | etot = -5.62847192040792
518000  ekin = 2.39567246201647 |  erot = 4.72611868187727 | epot = -12.7502630644033 | etot = -5.62847192050952
519000  ekin = 2.36868008078425 |  erot = 4.72386163450201 | epot = -12.7210136359116 | etot = -5.62847192062535
520000  ekin = 2.351090680328 |  erot = 4.72186744267955 | epot = -12.7014300437272 | etot = -5.62847192071969
521000  ekin = 2.34207426125026 |  erot = 4.71970227690684 | epot = -12.6902484589283 | etot = -5.62847192077116
522000  ekin = 2.34085858397537 |  erot = 4.71735113717328 | epot = -12.6866816419269 | etot = -5.62847192077827
523000  ekin = 2.34541603966011 |  erot = 4.65571671246147 | epot = -12.6296046826087 | etot = -5.62847193048713
524000  ekin = 2.39460269545043 |  erot = 4.54409239654082 | epot = -12.5671670122753 | etot = -5.62847192028407
525000  ekin = 2.51755565356127 |  erot = 4.49060445310787 | epot = -12.6366320323991 | etot = -5.62847192572995
526000  ekin = 2.63891940342127 |  erot = 4.49670026119053 | epot = -12.7640916024026 | etot = -5.62847193779077
527000  ekin = 2.68130557076811 |  erot = 4.5050333736858 | epot = -12.8148108745534 | etot = -5.62847193009947
528000  ekin = 2.71450795008385 |  erot = 4.51098798623258 | epot = -12.8539678665158 | etot = -5.62847193019934
529000  ekin = 2.74727192391268 |  erot = 4.51402301137498 | epot = -12.889766865557 | etot = -5.62847193026936
530000  ekin = 2.77952118310714 |  erot = 4.51256666248204 | epot = -12.9205597758847 | etot = -5.62847193029555
531000  ekin = 2.81130699774894 |  erot = 4.50555264763214 | epot = -12.9453315756554 | etot = -5.62847193027431
532000  ekin = 2.84274553222903 |  erot = 4.49253106977664 | epot = -12.9637485322199 | etot = -5.62847193021427
533000  ekin = 2.87393313764405 |  erot = 4.47361780231794 | epot = -12.9760228700973 | etot = -5.62847193013535
534000  ekin = 2.90486933801811 |  erot = 4.4492884461532 | epot = -12.9826297142323 | etot = -5.62847193006102
535000  ekin = 2.9354151985895 |  erot = 4.42010482065 | epot = -12.9839919492465 | etot = -5.62847193000696
536000  ekin = 2.96529830141012 |  erot = 4.38649798396423 | epot = -12.980268215352 | etot = -5.62847192997765
537000  ekin = 2.99415467144036 |  erot = 4.34867665838155 | epot = -12.9713032597798 | etot = -5.62847192995786
538000  ekin = 3.02158801642316 |  erot = 4.30669342612465 | epot = -12.9567533725053 | etot = -5.62847192995749
539000  ekin = 3.04722844366539 |  erot = 4.26048951908749 | epot = -12.9361898927062 | etot = -5.62847192995329
540000  ekin = 3.07077963637244 |  erot = 4.21000980483243 | epot = -12.9092613711412 | etot = -5.62847192993634
541000  ekin = 3.09204730610561 |  erot = 4.15535061590596 | epot = -12.8758698519132 | etot = -5.62847192990163
542000  ekin = 3.11094831327871 |  erot = 4.0968267184393 | epot = -12.8362469615667 | etot = -5.62847192984872
543000  ekin = 3.12750284877782 |  erot = 4.0349938313643 | epot = -12.7909686099225 | etot = -5.62847192978037
544000  ekin = 3.14181233913617 |  erot = 3.97062692625898 | epot = -12.7409111951006 | etot = -5.62847192970544
545000  ekin = 3.15402369274461 |  erot = 3.90462208421789 | epot = -12.6871177065949 | etot = -5.62847192963236
546000  ekin = 3.16427777374247 |  erot = 3.83809465732085 | epot = -12.6308443606275 | etot = -5.62847192956418
547000  ekin = 3.17263245312541 |  erot = 3.77248542241658 | epot = -12.5735898050789 | etot = -5.62847192953695
548000  ekin = 3.1790511412543 |  erot = 3.70842416479202 | epot = -12.5159472355905 | etot = -5.62847192954419
549000  ekin = 3.18335924850198 |  erot = 3.64619443426463 | epot = -12.4580256123109 | etot = -5.62847192954424
550000  ekin = 3.18506506657657 |  erot = 3.58603484431588 | epot = -12.3995718405506 | etot = -5.62847192965811
551000  ekin = 3.18354118863699 |  erot = 3.52751972617015 | epot = -12.339532844604 | etot = -5.62847192979682
552000  ekin = 3.17814056097155 |  erot = 3.46973317231156 | epot = -12.2763456632213 | etot = -5.62847192993822
553000  ekin = 3.16816249044583 |  erot = 3.41187716295382 | epot = -12.208511583449 | etot = -5.62847193004933
554000  ekin = 3.1529746405247 |  erot = 3.35363386894367 | epot = -12.1350804395611 | etot = -5.62847193009276
555000  ekin = 3.13218065537644 |  erot = 3.2955493159329 | epot = -12.0562019013434 | etot = -5.6284719300341
556000  ekin = 3.10581995737785 |  erot = 3.23932890456271 | epot = -11.9736207917914 | etot = -5.62847192985081
557000  ekin = 3.07457883891359 |  erot = 3.18795403309369 | epot = -11.8910048015426 | etot = -5.62847192953529
558000  ekin = 3.03998262646176 |  erot = 3.14553707337718 | epot = -11.8139916289527 | etot = -5.62847192911379
559000  ekin = 3.0045037897678 |  erot = 3.11693712838727 | epot = -11.749912846741 | etot = -5.62847192858597
560000  ekin = 2.97145203613503 |  erot = 3.1075818198801 | epot = -11.7075057840427 | etot = -5.62847192802759
561000  ekin = 2.94451934091812 |  erot = 3.12267269755829 | epot = -11.6956639660457 | etot = -5.62847192756929
562000  ekin = 2.92714140946132 |  erot = 3.16633554924112 | epot = -11.7219488859557 | etot = -5.62847192725328
563000  ekin = 2.92206147613056 |  erot = 3.24077054355409 | epot = -11.7913039468894 | etot = -5.6284719272047
564000  ekin = 2.93031627640334 |  erot = 3.34563410956691 | epot = -11.9044223134757 | etot = -5.62847192750548
565000  ekin = 2.95068712275629 |  erot = 3.47751232963896 | epot = -12.0566713805547 | etot = -5.62847192815944
566000  ekin = 2.97962685503355 |  erot = 3.62985521357708 | epot = -12.2379539977413 | etot = -5.62847192913063
567000  ekin = 3.0117159355677 |  erot = 3.7932447734004 | epot = -12.433432639289 | etot = -5.62847193032094
568000  ekin = 3.04054477428489 |  erot = 3.95610049176935 | epot = -12.6251171976474 | etot = -5.62847193159311
569000  ekin = 3.05981811060729 |  erot = 4.10576505740202 | epot = -12.7940551007975 | etot = -5.62847193278818
570000  ekin = 3.06446758280182 |  erot = 4.2298722071793 | epot = -12.9228117237277 | etot = -5.62847193374654
571000  ekin = 3.05159191024699 |  erot = 4.31782950116782 | epot = -12.997893345746 | etot = -5.62847193433116
572000  ekin = 3.02108996824198 |  erot = 4.36217384053392 | epot = -13.0117357432293 | etot = -5.62847193445341
573000  ekin = 2.97589592632213 |  erot = 4.35953364459578 | epot = -12.9639015050098 | etot = -5.62847193409191
574000  ekin = 2.92177260934326 |  erot = 4.31098813660637 | epot = -12.8612326792533 | etot = -5.62847193330371
575000  ekin = 2.86675845133009 |  erot = 4.22206447616752 | epot = -12.7172948575409 | etot = -5.62847193004325
576000  ekin = 2.82238695031475 |  erot = 4.11002108712494 | epot = -12.560879966962 | etot = -5.62847192952236
577000  ekin = 2.79586021275311 |  erot = 3.98405314245172 | epot = -12.4083852842971 | etot = -5.62847192909222
578000  ekin = 2.79062678636397 |  erot = 3.84816173910418 | epot = -12.2672604543212 | etot = -5.62847192885309
579000  ekin = 2.80727876752649 |  erot = 3.70630768407174 | epot = -12.1420583804352 | etot = -5.62847192883696
580000  ekin = 2.84308800272595 |  erot = 3.56147502231061 | epot = -12.0330349543403 | etot = -5.62847192930378
581000  ekin = 2.89275945157798 |  erot = 3.41677708044794 | epot = -11.9380084614041 | etot = -5.62847192937814
582000  ekin = 2.94948274088248 |  erot = 3.27852635636522 | epot = -11.8564810266952 | etot = -5.62847192944751
583000  ekin = 3.00600312771789 |  erot = 3.15339507871819 | epot = -11.7878701358669 | etot = -5.62847192943084
584000  ekin = 3.05615870295294 |  erot = 3.04800743036932 | epot = -11.7326380626285 | etot = -5.62847192930623
585000  ekin = 3.09596263902806 |  erot = 2.96828908155645 | epot = -11.6927236496809 | etot = -5.62847192909636
586000  ekin = 3.12407298195256 |  erot = 2.91878541591358 | epot = -11.6713303266982 | etot = -5.62847192883209
587000  ekin = 3.1417461421833 |  erot = 2.90225430094311 | epot = -11.672472371669 | etot = -5.62847192854258
588000  ekin = 3.15240031620553 |  erot = 2.91960613642982 | epot = -11.7004783809018 | etot = -5.62847192826648
589000  ekin = 3.16081808255434 |  erot = 2.97006448172946 | epot = -11.7593544923294 | etot = -5.62847192804564
590000  ekin = 3.17204827383965 |  erot = 3.05134069925084 | epot = -11.8518609010118 | etot = -5.6284719279213
591000  ekin = 3.19150299837461 |  erot = 3.16015018729065 | epot = -11.9801251136635 | etot = -5.62847192799819
592000  ekin = 3.22264872300333 |  erot = 3.29204057512014 | epot = -12.1431612264465 | etot = -5.62847192832309
593000  ekin = 3.26585695460439 |  erot = 3.44092346933461 | epot = -12.3352523528035 | etot = -5.62847192886452
594000  ekin = 3.31918005191763 |  erot = 3.59965335596714 | epot = -12.5473053374549 | etot = -5.62847192957014
595000  ekin = 3.37897127078336 |  erot = 3.76045843937389 | epot = -12.7679016404524 | etot = -5.62847193029511
596000  ekin = 3.4382406857396 |  erot = 3.91359738321914 | epot = -12.980310001589 | etot = -5.62847193263027
597000  ekin = 3.48744876793451 |  erot = 4.0478243785771 | epot = -13.1637450797755 | etot = -5.62847193326394
598000  ekin = 3.52187002165693 |  erot = 4.15698580423063 | epot = -13.3073277595056 | etot = -5.62847193361804
599000  ekin = 3.53831455068156 |  erot = 4.23767846708786 | epot = -13.4044649514591 | etot = -5.6284719336897
600000  ekin = 3.53510970426307 |  erot = 4.28920847102939 | epot = -13.4527901088142 | etot = -5.62847193352171
601000  ekin = 3.51191041814396 |  erot = 4.31320178192835 | epot = -13.453584133256 | etot = -5.62847193318372
602000  ekin = 3.46937521143132 |  erot = 4.3129515273753 | epot = -13.410798671557 | etot = -5.6284719327504
603000  ekin = 3.40882221238478 |  erot = 4.29270411926118 | epot = -13.3299982639291 | etot = -5.62847193228318
604000  ekin = 3.33194570979922 |  erot = 4.2570524586158 | epot = -13.2174701002375 | etot = -5.62847193182252
605000  ekin = 3.2406264378616 |  erot = 4.21052248035532 | epot = -13.0796208496054 | etot = -5.62847193138844
606000  ekin = 3.13683319325246 |  erot = 4.15735875793748 | epot = -12.9226638821749 | etot = -5.62847193098499
607000  ekin = 3.02259481110418 |  erot = 4.1014670377034 | epot = -12.7525337794138 | etot = -5.62847193060621
608000  ekin = 2.90001652262392 |  erot = 4.04645475154674 | epot = -12.5749432044128 | etot = -5.62847193024212
609000  ekin = 2.77131728811454 |  erot = 3.99571460779313 | epot = -12.3955038257901 | etot = -5.62847192988241
610000  ekin = 2.63886938894673 |  erot = 3.95250622989986 | epot = -12.219847548367 | etot = -5.62847192952046
611000  ekin = 2.50524882255296 |  erot = 3.92003293777274 | epot = -12.0537536891925 | etot = -5.6284719288668
612000  ekin = 2.37382087286659 |  erot = 3.9021886985327 | epot = -11.9044814999374 | etot = -5.62847192853806
613000  ekin = 2.24769613368194 |  erot = 3.9018678874881 | epot = -11.7780359493991 | etot = -5.62847192822908
614000  ekin = 2.12975142867636 |  erot = 3.92103062113487 | epot = -11.6792539777934 | etot = -5.62847192798222
615000  ekin = 2.02283676467958 |  erot = 3.96080056826795 | epot = -11.61210926078 | etot = -5.62847192783249
616000  ekin = 1.92967019046992 |  erot = 4.02099162181975 | epot = -11.5791337401025 | etot = -5.62847192781281
617000  ekin = 1.85273791860752 |  erot = 4.09974474402214 | epot = -11.5809545905817 | etot = -5.62847192795206
618000  ekin = 1.794202962929 |  erot = 4.1932270362042 | epot = -11.615901927397 | etot = -5.62847192826377
619000  ekin = 1.75583197424594 |  erot = 4.29552606645212 | epot = -11.6798299694312 | etot = -5.62847192873316
620000  ekin = 1.73895870093018 |  erot = 4.39891672374147 | epot = -11.7663473539779 | etot = -5.62847192930629
621000  ekin = 1.7444983470959 |  erot = 4.49462250667638 | epot = -11.867592783664 | etot = -5.62847192989172
622000  ekin = 1.7730087572002 |  erot = 4.57403518097385 | epot = -11.9755158685574 | etot = -5.62847193038335
623000  ekin = 1.82476626658183 |  erot = 4.63011744405485 | epot = -12.0833556413331 | etot = -5.62847193069639
624000  ekin = 1.89980556087252 |  erot = 4.65854151408734 | epot = -12.1868190057596 | etot = -5.62847193079971
625000  ekin = 1.99788930997527 |  erot = 4.65817060180771 | epot = -12.284531842505 | etot = -5.62847193072199
626000  ekin = 2.11841938996492 |  erot = 4.63077870107517 | epot = -12.3776700215701 | etot = -5.62847193053003
627000  ekin = 2.26034340487478 |  erot = 4.58024268413209 | epot = -12.4690580193001 | etot = -5.62847193029324
628000  ekin = 2.42211143968505 |  erot = 4.51161612070374 | epot = -12.5621994904549 | etot = -5.62847193006612
629000  ekin = 2.60047669397099 |  erot = 4.43316974525301 | epot = -12.6621183686296 | etot = -5.62847192940563
630000  ekin = 2.75035748976938 |  erot = 4.3100390575377 | epot = -12.6888685130155 | etot = -5.62847196570841
631000  ekin = 2.81471524115763 |  erot = 4.11774535995794 | epot = -12.5609325368805 | etot = -5.62847193576491
632000  ekin = 2.95867552203419 |  erot = 4.07926707228417 | epot = -12.6664145271904 | etot = -5.628471932872
633000  ekin = 3.21010693586428 |  erot = 4.2058132684618 | epot = -13.0443921664052 | etot = -5.62847196207909
634000  ekin = 3.41641131483616 |  erot = 4.25928215940961 | epot = -13.3041654106185 | etot = -5.62847193637274
635000  ekin = 3.57385274060691 |  erot = 4.24018711613006 | epot = -13.44251179388 | etot = -5.62847193714308
636000  ekin = 3.71894531180235 |  erot = 4.21896102715994 | epot = -13.5663782769414 | etot = -5.62847193797916
637000  ekin = 3.84555962838986 |  erot = 4.1900953900669 | epot = -13.6641269571315 | etot = -5.62847193867471
638000  ekin = 3.94874232718941 |  erot = 4.14881281942018 | epot = -13.7260270856532 | etot = -5.62847193904357
639000  ekin = 4.02564653200494 |  erot = 4.09271382137468 | epot = -13.7468322923892 | etot = -5.62847193900963
640000  ekin = 4.07582551370951 |  erot = 4.02260436138313 | epot = -13.7269018137147 | etot = -5.62847193862206
641000  ekin = 4.10019063770968 |  erot = 3.9420341958717 | epot = -13.6706967720501 | etot = -5.62847193846869
642000  ekin = 4.09923586001873 |  erot = 3.85569636532128 | epot = -13.5834041632297 | etot = -5.62847193788973
643000  ekin = 4.07616079987132 |  erot = 3.76850329654985 | epot = -13.4731360337866 | etot = -5.62847193736548
644000  ekin = 4.03483546313061 |  erot = 3.68428538432172 | epot = -13.3475927844035 | etot = -5.62847193695118
645000  ekin = 3.97939693540902 |  erot = 3.60521279265152 | epot = -13.2130816646903 | etot = -5.62847193662975
646000  ekin = 3.91424157399056 |  erot = 3.53197746531507 | epot = -13.0746909756527 | etot = -5.62847193634712
647000  ekin = 3.84412108358683 |  erot = 3.46430751188328 | epot = -12.9369005316585 | etot = -5.62847193618836
648000  ekin = 3.77442093453599 |  erot = 3.40030625109366 | epot = -12.8031991215005 | etot = -5.62847193587081
649000  ekin = 3.71064844405663 |  erot = 3.33902116868532 | epot = -12.6781415482909 | etot = -5.62847193554899
650000  ekin = 3.65777288964813 |  erot = 3.28036981765667 | epot = -12.5666146425814 | etot = -5.62847193527658
651000  ekin = 3.61962254754419 |  erot = 3.22458240436025 | epot = -12.4726768870043 | etot = -5.6284719350999
652000  ekin = 3.59838866982073 |  erot = 3.17201593042627 | epot = -12.3988765352844 | etot = -5.62847193503738
653000  ekin = 3.59447660059077 |  erot = 3.12302902484626 | epot = -12.3459775605094 | etot = -5.62847193507238
654000  ekin = 3.60674141919119 |  erot = 3.07797678365128 | epot = -12.3131901380073 | etot = -5.62847193516482
655000  ekin = 3.6329884130958 |  erot = 3.03728497071295 | epot = -12.2987453190845 | etot = -5.62847193527574
656000  ekin = 3.67052655524344 |  erot = 3.00147990290593 | epot = -12.3004783935418 | etot = -5.62847193539242
657000  ekin = 3.71734630696999 |  erot = 2.97084073542309 | epot = -12.3166589777923 | etot = -5.6284719353992
658000  ekin = 3.75778663136606 |  erot = 2.94872940841724 | epot = -12.3349879985774 | etot = -5.62847195879406
659000  ekin = 3.70128994133686 |  erot = 2.99267200660902 | epot = -12.322433883679 | etot = -5.62847193573312
660000  ekin = 3.77980484666389 |  erot = 3.05081678588696 | epot = -12.459093596632 | etot = -5.62847196408119
661000  ekin = 3.87674047113916 |  erot = 3.02043722437581 | epot = -12.5256496408831 | etot = -5.62847194536809
662000  ekin = 3.96189665293746 |  erot = 2.9729451065493 | epot = -12.5633137057978 | etot = -5.62847194631105
663000  ekin = 4.03233992104381 |  erot = 2.90724728968081 | epot = -12.5680591570602 | etot = -5.62847194633553
664000  ekin = 4.08703350769439 |  erot = 2.82371074134662 | epot = -12.5392161948574 | etot = -5.62847194581638
665000  ekin = 4.13016908264132 |  erot = 2.72591755779726 | epot = -12.4845585854975 | etot = -5.62847194505895
666000  ekin = 4.1648576368289 |  erot = 2.62158318082323 | epot = -12.414912761733 | etot = -5.62847194408083
667000  ekin = 4.19388444222523 |  erot = 2.52048046577159 | epot = -12.3428368513194 | etot = -5.62847194332254
668000  ekin = 4.21970111352808 |  erot = 2.43117566558869 | epot = -12.2793487218878 | etot = -5.62847194277106
669000  ekin = 4.24419480049408 |  erot = 2.35970998773563 | epot = -12.2323767306416 | etot = -5.62847194241189
670000  ekin = 4.26650932826211 |  erot = 2.31009212997052 | epot = -12.2050734005156 | etot = -5.62847194228301
671000  ekin = 4.28028750565683 |  erot = 2.28394068968216 | epot = -12.1927001375696 | etot = -5.62847194223062
672000  ekin = 4.28604953799413 |  erot = 2.28087700961919 | epot = -12.195398489808 | etot = -5.62847194219469
673000  ekin = 4.28538320965501 |  erot = 2.29981058129386 | epot = -12.2136657330995 | etot = -5.62847194215067
674000  ekin = 4.28032637869879 |  erot = 2.33931520008498 | epot = -12.2481135208938 | etot = -5.62847194211004
675000  ekin = 4.27310613126655 |  erot = 2.39770546347679 | epot = -12.299283536864 | etot = -5.62847194212067
676000  ekin = 4.26563141826313 |  erot = 2.47283047868407 | epot = -12.3669338392281 | etot = -5.62847194228089
677000  ekin = 4.25873601006311 |  erot = 2.56159475148419 | epot = -12.4488027041865 | etot = -5.62847194263915
678000  ekin = 4.25154383389769 |  erot = 2.65951246674432 | epot = -12.5395282438879 | etot = -5.62847194324589
679000  ekin = 4.24120573445568 |  erot = 2.76057514762954 | epot = -12.630252826131 | etot = -5.62847194404578
[...]
836000  ekin = 3.00633984574425 |  erot = 2.96626860441722 | epot = -11.6010804184754 | etot = -5.62847196831393
837000  ekin = 3.13471078913859 |  erot = 2.9706713315979 | epot = -11.7338540895385 | etot = -5.62847196880199
838000  ekin = 3.26467977025951 |  erot = 2.97489019003885 | epot = -11.8680419295789 | etot = -5.62847196928059
839000  ekin = 3.39062362162418 |  erot = 2.97696578811114 | epot = -11.9960613794644 | etot = -5.6284719697291
840000  ekin = 3.507196142199 |  erot = 2.9751377339346 | epot = -12.1108058462673 | etot = -5.62847197013369
841000  ekin = 3.60951430435165 |  erot = 2.96792302581209 | epot = -12.2059093006459 | etot = -5.62847197048216
842000  ekin = 3.69330308374611 |  erot = 2.95419217422804 | epot = -12.2759672287361 | etot = -5.62847197076192
843000  ekin = 3.75502928065118 |  erot = 2.93326272933157 | epot = -12.3167639809386 | etot = -5.62847197095582
844000  ekin = 3.79205095756263 |  erot = 2.90501003243346 | epot = -12.3255329610403 | etot = -5.62847197104421
845000  ekin = 3.80278826982853 |  erot = 2.86997708289261 | epot = -12.3012373237297 | etot = -5.62847197100856
846000  ekin = 3.78689078364321 |  erot = 2.82944607125015 | epot = -12.2448088257316 | etot = -5.62847197083821
847000  ekin = 3.74534923751239 |  erot = 2.78543387884246 | epot = -12.1592550868916 | etot = -5.62847197053678
848000  ekin = 3.68048960903234 |  erot = 2.74058491117485 | epot = -12.0495464903338 | etot = -5.62847197012659
849000  ekin = 3.59580402265742 |  erot = 2.69795473368827 | epot = -11.9222307259957 | etot = -5.62847196964997
850000  ekin = 3.49561210996146 |  erot = 2.66069826193653 | epot = -11.7847823410584 | etot = -5.62847196916039
851000  ekin = 3.38460421150981 |  erot = 2.63169878891611 | epot = -11.6447749691419 | etot = -5.62847196871596
852000  ekin = 3.26735834603567 |  erot = 2.61319105387691 | epot = -11.5090213682777 | etot = -5.62847196836509
853000  ekin = 3.14792970800198 |  erot = 2.60644045876884 | epot = -11.3828421349078 | etot = -5.62847196813696
854000  ekin = 3.02961721456353 |  erot = 2.61155167638246 | epot = -11.2696408589775 | etot = -5.6284719680315
855000  ekin = 2.91497870609257 |  erot = 2.62749311839419 | epot = -11.1709437925141 | etot = -5.62847196802735
856000  ekin = 2.80592683607162 |  erot = 2.6522972346767 | epot = -11.0866960388335 | etot = -5.62847196808521
857000  ekin = 2.70394323070065 |  erot = 2.68342637086871 | epot = -11.015841569732 | etot = -5.62847196816267
858000  ekin = 2.61028084980153 |  erot = 2.71820874419168 | epot = -10.9569615622196 | etot = -5.62847196822636
859000  ekin = 2.52608469641724 |  erot = 2.75423459839653 | epot = -10.9087912630729 | etot = -5.62847196825908
860000  ekin = 2.45241725290201 |  erot = 2.78962480101476 | epot = -10.8705140221748 | etot = -5.62847196825805
861000  ekin = 2.39021948273227 |  erot = 2.82313150330722 | epot = -10.8418229542727 | etot = -5.62847196823325
862000  ekin = 2.34025129495987 |  erot = 2.85407946376761 | epot = -10.822802726928 | etot = -5.62847196820057
863000  ekin = 2.30304188781159 |  erot = 2.88219277634858 | epot = -10.813706632338 | etot = -5.62847196817783
864000  ekin = 2.27886006013276 |  erot = 2.90737073876856 | epot = -10.8147027670818 | etot = -5.62847196818052
865000  ekin = 2.26770197180472 |  erot = 2.92947677479193 | epot = -10.8256507148148 | etot = -5.6284719682181
866000  ekin = 2.26929189230923 |  erot = 2.94819404249625 | epot = -10.8459579030977 | etot = -5.62847196829218
867000  ekin = 2.28309242155635 |  erot = 2.96298089314197 | epot = -10.874545283095 | etot = -5.62847196839671
868000  ekin = 2.30832281636741 |  erot = 2.97313399096203 | epot = -10.9099287758479 | etot = -5.62847196851846
869000  ekin = 2.34398135087991 |  erot = 2.97793980529636 | epot = -10.9503931248177 | etot = -5.62847196864144
870000  ekin = 2.38886744672429 |  erot = 2.97686809808026 | epot = -10.9942075135562 | etot = -5.6284719687517
871000  ekin = 2.44159861708973 |  erot = 2.96974175406055 | epot = -11.0398123399925 | etot = -5.6284719688422
872000  ekin = 2.50061961498804 |  erot = 2.95681803673566 | epot = -11.0859096206388 | etot = -5.62847196891511
873000  ekin = 2.56420808027826 |  erot = 2.93874614039664 | epot = -11.1314261896553 | etot = -5.6284719689804
874000  ekin = 2.63049126909912 |  erot = 2.91641905763502 | epot = -11.1753822957821 | etot = -5.628471969048
875000  ekin = 2.69749664332261 |  erot = 2.89079068993249 | epot = -11.2167593023751 | etot = -5.62847196912
876000  ekin = 2.76325740762409 |  erot = 2.8627513855634 | epot = -11.2544807623728 | etot = -5.62847196918535
877000  ekin = 2.82597856953319 |  erot = 2.83312911622589 | epot = -11.2875796549786 | etot = -5.62847196921951
878000  ekin = 2.88426505921199 |  erot = 2.80282960041362 | epot = -11.3155666287694 | etot = -5.6284719691438
879000  ekin = 2.93899285381861 |  erot = 2.77402557710308 | epot = -11.3414903998404 | etot = -5.62847196891873
880000  ekin = 2.99074429370243 |  erot = 2.74904466361883 | epot = -11.3682609262703 | etot = -5.62847196894903
881000  ekin = 3.03734868856232 |  erot = 2.72816458055542 | epot = -11.3939852379052 | etot = -5.62847196878747
882000  ekin = 3.07935286205246 |  erot = 2.71303253487346 | epot = -11.4208573655467 | etot = -5.62847196862081
883000  ekin = 3.11756796960435 |  erot = 2.70517731821704 | epot = -11.4512172563087 | etot = -5.62847196848731
884000  ekin = 3.15280252723544 |  erot = 2.70569769586684 | epot = -11.4869721915149 | etot = -5.62847196841262
885000  ekin = 3.18571613079919 |  erot = 2.71504911526553 | epot = -11.5292372144745 | etot = -5.62847196840978
886000  ekin = 3.21676773261692 |  erot = 2.73290580046188 | epot = -11.5781455015627 | etot = -5.62847196848389
887000  ekin = 3.24623562297705 |  erot = 2.75806669085735 | epot = -11.6327742824729 | etot = -5.62847196863852
888000  ekin = 3.27425941885426 |  erot = 2.78837179655079 | epot = -11.6911031842822 | etot = -5.62847196887713
889000  ekin = 3.30086478759873 |  erot = 2.82064068474087 | epot = -11.7499774415375 | etot = -5.62847196919789
890000  ekin = 3.32596924743585 |  erot = 2.8507143995424 | epot = -11.8051556165578 | etot = -5.62847196957959
891000  ekin = 3.34941253111799 |  erot = 2.87373382361226 | epot = -11.8516183246993 | etot = -5.62847196996901
892000  ekin = 3.37107523435862 |  erot = 2.88476437051389 | epot = -11.8843115751514 | etot = -5.62847197027888
893000  ekin = 3.39111184980405 |  erot = 2.87974242678446 | epot = -11.8993262469996 | etot = -5.62847197041106
894000  ekin = 3.41023212792719 |  erot = 2.85650829451306 | epot = -11.8952123927364 | etot = -5.62847197029618
895000  ekin = 3.42987730742305 |  erot = 2.81553499445148 | epot = -11.873884271807 | etot = -5.62847196993249
896000  ekin = 3.45214148845859 |  erot = 2.76001213101189 | epot = -11.8406255888621 | etot = -5.62847196939163
897000  ekin = 3.47941735479851 |  erot = 2.69521466352953 | epot = -11.8031039871185 | etot = -5.62847196879047
898000  ekin = 3.51352961892427 |  erot = 2.62737086711433 | epot = -11.7693724674547 | etot = -5.6284719814161
899000  ekin = 3.48893911158129 |  erot = 2.56291214052526 | epot = -11.6803232215692 | etot = -5.6284719694627
900000  ekin = 3.45535689137436 |  erot = 2.55015985198085 | epot = -11.6339887057135 | etot = -5.62847196235833
901000  ekin = 3.50186288051208 |  erot = 2.58894159273042 | epot = -11.719276449028 | etot = -5.62847197578548
902000  ekin = 3.56610213509042 |  erot = 2.58196928558468 | epot = -11.7765433932355 | etot = -5.62847197256043
903000  ekin = 3.62814875790769 |  erot = 2.56232070257317 | epot = -11.8189414334154 | etot = -5.6284719729345
904000  ekin = 3.69112394769311 |  erot = 2.5524763832157 | epot = -11.8720723043302 | etot = -5.62847197342134
905000  ekin = 3.75091280592953 |  erot = 2.54985569583922 | epot = -11.9292404756987 | etot = -5.62847197392995
906000  ekin = 3.8032250689438 |  erot = 2.55191272324046 | epot = -11.9836097665412 | etot = -5.6284719743569
907000  ekin = 3.84434229250825 |  erot = 2.5568336035953 | epot = -12.0296478707192 | etot = -5.62847197461568
908000  ekin = 3.871900647008 |  erot = 2.56394104594644 | epot = -12.0643136676191 | etot = -5.62847197466464
909000  ekin = 3.88547927918536 |  erot = 2.57365300982679 | epot = -12.0876042635317 | etot = -5.62847197451959
910000  ekin = 3.88680451544102 |  erot = 2.58702435551622 | epot = -12.1023008452009 | etot = -5.62847197424369
911000  ekin = 3.87951720898021 |  erot = 2.60508796128714 | epot = -12.1130771441854 | etot = -5.62847197391802
912000  ekin = 3.86859234278359 |  erot = 2.62827701186852 | epot = -12.1253413282694 | etot = -5.62847197361728
913000  ekin = 3.85955913829983 |  erot = 2.65612234750808 | epot = -12.1441534592065 | etot = -5.62847197339855
914000  ekin = 3.85765974744707 |  erot = 2.68725904601637 | epot = -12.1733907661574 | etot = -5.62847197269395
915000  ekin = 3.86988559284798 |  erot = 2.72155495759146 | epot = -12.2199125233092 | etot = -5.62847197286973
916000  ekin = 3.89721211304123 |  erot = 2.75899199516187 | epot = -12.2846760814788 | etot = -5.62847197327566
917000  ekin = 3.93597306343169 |  erot = 2.79756616380009 | epot = -12.3620112009473 | etot = -5.6284719737155
918000  ekin = 3.98211349531499 |  erot = 2.83523643636804 | epot = -12.445821905844 | etot = -5.62847197416096
919000  ekin = 4.03109884083907 |  erot = 2.86939982935091 | epot = -12.5289706457807 | etot = -5.62847197559067
920000  ekin = 4.07575006581286 |  erot = 2.89203459117052 | epot = -12.5962566328921 | etot = -5.62847197590877
921000  ekin = 4.11121319883197 |  erot = 2.89963705809888 | epot = -12.6393222335791 | etot = -5.62847197664822
922000  ekin = 4.12946328833856 |  erot = 2.89101491350044 | epot = -12.6489501787586 | etot = -5.62847197691959
923000  ekin = 4.12574551357268 |  erot = 2.86656720131328 | epot = -12.6207846917908 | etot = -5.62847197690484
924000  ekin = 4.0980625546228 |  erot = 2.82817437101463 | epot = -12.5547089022792 | etot = -5.6284719766418
925000  ekin = 4.04683812875273 |  erot = 2.77889166219992 | epot = -12.4542017671822 | etot = -5.62847197622952
926000  ekin = 3.97415980690535 |  erot = 2.7224048573368 | epot = -12.3250366400166 | etot = -5.6284719757744
927000  ekin = 3.88290109511714 |  erot = 2.66247239688044 | epot = -12.1738454673358 | etot = -5.6284719753382
928000  ekin = 3.77619172574108 |  erot = 2.60258197423891 | epot = -12.0072456748983 | etot = -5.6284719749183
929000  ekin = 3.65741733987843 |  erot = 2.54590496492842 | epot = -11.831794279277 | etot = -5.62847197447012
930000  ekin = 3.53056331472612 |  erot = 2.49545263670913 | epot = -11.6544879253869 | etot = -5.62847197395165
931000  ekin = 3.40054526036444 |  erot = 2.454292850849 | epot = -11.4833100842546 | etot = -5.62847197304114
932000  ekin = 3.27351307450537 |  erot = 2.42812143066844 | epot = -11.3301064778166 | etot = -5.62847197264279
933000  ekin = 3.15479412953591 |  erot = 2.4201742894763 | epot = -11.2034403912531 | etot = -5.62847197224091
934000  ekin = 3.04934557327881 |  erot = 2.43124949935863 | epot = -11.109067044526 | etot = -5.62847197188859
935000  ekin = 2.96178382809207 |  erot = 2.46165171666485 | epot = -11.0519075163873 | etot = -5.62847197163034
936000  ekin = 2.89581269428724 |  erot = 2.51113391229723 | epot = -11.0354185780765 | etot = -5.62847197149205
937000  ekin = 2.8538587951087 |  erot = 2.57889786005817 | epot = -11.0612286266452 | etot = -5.62847197147829
938000  ekin = 2.8369434295325 |  erot = 2.66364816059609 | epot = -11.1290635617065 | etot = -5.62847197157791
939000  ekin = 2.84476696161334 |  erot = 2.76369076510542 | epot = -11.2369296984843 | etot = -5.62847197176559
940000  ekin = 2.87595320373246 |  erot = 2.87707537624185 | epot = -11.3815005519813 | etot = -5.62847197200697
941000  ekin = 2.92838858032047 |  erot = 3.00178159446771 | epot = -11.5586421470521 | etot = -5.62847197226393
942000  ekin = 2.99958691358805 |  erot = 3.13593595199803 | epot = -11.7639948380871 | etot = -5.62847197250098
943000  ekin = 3.08701485959176 |  erot = 3.27802583767079 | epot = -11.9935126699548 | etot = -5.62847197269224
944000  ekin = 3.18658687084634 |  erot = 3.42629435473283 | epot = -12.2413531994801 | etot = -5.62847197390095
945000  ekin = 3.29120912050651 |  erot = 3.577012531924 | epot = -12.4966936268516 | etot = -5.62847197442111
946000  ekin = 3.39621217340276 |  erot = 3.7263738917811 | epot = -12.7510580401981 | etot = -5.62847197501423
947000  ekin = 3.4968730305855 |  erot = 3.86977321011431 | epot = -12.9951182164045 | etot = -5.62847197570464
948000  ekin = 3.58827211219312 |  erot = 4.00151346801785 | epot = -13.2182575567051 | etot = -5.6284719764941
949000  ekin = 3.66536645482548 |  erot = 4.11475106105357 | epot = -13.4085894932251 | etot = -5.62847197734605
950000  ekin = 3.72323942018895 |  erot = 4.20180191824226 | epot = -13.5535133166105 | etot = -5.62847197817932
951000  ekin = 3.75754185711642 |  erot = 4.25489778340543 | epot = -13.6409116193944 | etot = -5.62847197887252
952000  ekin = 3.76507381720016 |  erot = 4.26734583732727 | epot = -13.6608916338152 | etot = -5.62847197928779
953000  ekin = 3.74438822450871 |  erot = 4.23487585620145 | epot = -13.6077360600182 | etot = -5.62847197930807
954000  ekin = 3.6962524303913 |  erot = 4.15681815512645 | epot = -13.4815425643942 | etot = -5.62847197887646
955000  ekin = 3.62380420344389 |  erot = 4.03673171887103 | epot = -13.2890079003346 | etot = -5.62847197801971
956000  ekin = 3.52555337106034 |  erot = 3.8807380542249 | epot = -13.0347634049366 | etot = -5.62847197965134
957000  ekin = 3.39894639548186 |  erot = 3.704741379357 | epot = -12.7321597494327 | etot = -5.6284719745938
958000  ekin = 3.27782879701388 |  erot = 3.53760737302324 | epot = -12.4439081430079 | etot = -5.62847197297078
959000  ekin = 3.17835028698373 |  erot = 3.3860220764187 | epot = -12.1928443382271 | etot = -5.62847197482472
960000  ekin = 3.09019087998482 |  erot = 3.23509493738875 | epot = -11.9537577938396 | etot = -5.62847197646608
961000  ekin = 3.00426259412953 |  erot = 3.08248133846111 | epot = -11.7152159081467 | etot = -5.62847197555611
962000  ekin = 2.92693480006865 |  erot = 2.94805481108402 | epot = -11.5034615864953 | etot = -5.62847197534258
963000  ekin = 2.85972055652158 |  erot = 2.83488454740043 | epot = -11.3230770789589 | etot = -5.62847197503687
964000  ekin = 2.80427359444853 |  erot = 2.74583973307705 | epot = -11.1785853023839 | etot = -5.62847197485834
965000  ekin = 2.76170821974625 |  erot = 2.68249826250847 | epot = -11.0726784570591 | etot = -5.62847197480438
966000  ekin = 2.73254763787259 |  erot = 2.64503833078586 | epot = -11.0060579435413 | etot = -5.62847197488283
967000  ekin = 2.71665521945761 |  erot = 2.63218922387602 | epot = -10.977316418432 | etot = -5.62847197509839
968000  ekin = 2.71315992256797 |  erot = 2.6412436416193 | epot = -10.9828755396252 | etot = -5.62847197543791
969000  ekin = 2.72046614394445 |  erot = 2.66825860572991 | epot = -11.0171967255374 | etot = -5.62847197586305
970000  ekin = 2.73639578727365 |  erot = 2.70848274022898 | epot = -11.073350503823 | etot = -5.62847197632035
971000  ekin = 2.7584938291987 |  erot = 2.75695664047694 | epot = -11.1439224463452 | etot = -5.62847197666954
972000  ekin = 2.78540546045377 |  erot = 2.80984083585929 | epot = -11.2237182732553 | etot = -5.62847197694225
973000  ekin = 2.81581408645962 |  erot = 2.86412704583047 | epot = -11.3084131094169 | etot = -5.62847197712684
974000  ekin = 2.84847994853285 |  erot = 2.91762904109419 | epot = -11.394580966844 | etot = -5.62847197721695
975000  ekin = 2.88260770542579 |  erot = 2.96920774038639 | epot = -11.480287423027 | etot = -5.62847197721485
976000  ekin = 2.90702474892291 |  erot = 3.0196491884248 | epot = -11.5551459389487 | etot = -5.62847200160094
977000  ekin = 2.82994038022815 |  erot = 3.10467594136529 | epot = -11.5630882994573 | etot = -5.62847197786387
978000  ekin = 2.82908361926504 |  erot = 3.22546638455035 | epot = -11.6830220075474 | etot = -5.628472003732
979000  ekin = 2.83706100134503 |  erot = 3.2548187323809 | epot = -11.720351723827 | etot = -5.62847199010104
980000  ekin = 2.83601345165634 |  erot = 3.27042511751412 | epot = -11.7349105593066 | etot = -5.62847199013615
981000  ekin = 2.82679467553623 |  erot = 3.27908746265508 | epot = -11.734354128369 | etot = -5.62847199017766
982000  ekin = 2.80889457138308 |  erot = 3.28090658537119 | epot = -11.7182731469763 | etot = -5.62847199022204
983000  ekin = 2.78208898717251 |  erot = 3.27578647329014 | epot = -11.6863474507109 | etot = -5.62847199024828
984000  ekin = 2.74660136968689 |  erot = 3.26353952550221 | epot = -11.6386128854104 | etot = -5.62847199022127
985000  ekin = 2.70333214519072 |  erot = 3.24411391134697 | epot = -11.575918046642 | etot = -5.62847199010433
986000  ekin = 2.65408912845627 |  erot = 3.21786526580058 | epot = -11.5004263841271 | etot = -5.62847198987027
987000  ekin = 2.57871631765271 |  erot = 3.17247278893129 | epot = -11.3796611009394 | etot = -5.62847199435536
988000  ekin = 2.53018926708017 |  erot = 3.15315340977068 | epot = -11.3118146788246 | etot = -5.62847200197374
989000  ekin = 2.49566278306744 |  erot = 3.12952117448782 | epot = -11.2536559495158 | etot = -5.62847199196056
990000  ekin = 2.46227182596968 |  erot = 3.09741757832303 | epot = -11.1881613956981 | etot = -5.62847199140542
991000  ekin = 2.44592299332381 |  erot = 3.07158095055821 | epot = -11.1459759350248 | etot = -5.62847199114281
992000  ekin = 2.45174281643038 |  erot = 3.05611048511796 | epot = -11.1363252924909 | etot = -5.62847199094254
993000  ekin = 2.4809967175337 |  erot = 3.05281518204759 | epot = -11.1622838903702 | etot = -5.62847199078888
994000  ekin = 2.53415670294871 |  erot = 3.06359154456191 | epot = -11.2262202382137 | etot = -5.62847199070311
995000  ekin = 2.61088853355121 |  erot = 3.09015398630347 | epot = -11.3295145105498 | etot = -5.62847199069511
996000  ekin = 2.71011819725457 |  erot = 3.13378298778989 | epot = -11.4723731758111 | etot = -5.62847199076662
997000  ekin = 2.83015603299592 |  erot = 3.19515267790156 | epot = -11.653780701815 | etot = -5.62847199091748
998000  ekin = 2.96878571625672 |  erot = 3.27423191427181 | epot = -11.8714896216853 | etot = -5.62847199115672
999000  ekin = 3.12322522638366 |  erot = 3.37022004784673 | epot = -12.1219172657411 | etot = -5.6284719915107
1000000  ekin = 3.28990650507131 |  erot = 3.4814601076319 | epot = -12.3998386047259 | etot = -5.62847199202267
   1000000   0.14621807    -0.83009398     0.055104069   -0.56937076     4.8223734e-05  64000        
Loop time of 14.5271 on 4 procs for 1000000 steps with 16 atoms

Performance: 59474.862 tau/day, 68836.646 timesteps/s, 1.101 Matom-step/s
99.9% CPU use with 4 MPI tasks x 1 OpenMP threads

MPI task timing breakdown:
Section |  min time  |  avg time  |  max time  |%varavg| %total
---------------------------------------------------------------
Pair    | 4.9496     | 6.919      | 8.139      |  48.5 | 47.63
Bond    | 0.17781    | 0.27579    | 0.35519    |  12.1 |  1.90
Neigh   | 0.004968   | 0.0050075  | 0.005068   |   0.1 |  0.03
Comm    | 4.3521     | 5.4851     | 7.6042     |  55.8 | 37.76
Output  | 0.06127    | 0.06555    | 0.074377   |   2.0 |  0.45
Modify  | 0.58934    | 0.65958    | 0.71877    |   7.1 |  4.54
Other   |            | 1.117      |            |       |  7.69

Nlocal:              4 ave           4 max           4 min
Histogram: 4 0 0 0 0 0 0 0 0 0
Nghost:             12 ave          12 max          12 min
Histogram: 4 0 0 0 0 0 0 0 0 0
Neighs:           26.5 ave          47 max           9 min
Histogram: 1 1 0 0 0 0 1 0 0 1

Total # of neighbors = 106
Ave neighs/atom = 6.625
Ave special neighs/atom = 3.75
Neighbor list builds = 1000
Dangerous builds = 0
System init for write_data ...
Generated 0 of 6 mixed pair_coeff terms from geometric mixing rule
Total wall time: 0:00:14
