2
Lattice = "3.31180000305 0.0 0.0 0.0131999999285 3.32649993896 0.0 -0.00789999961853 -0.00710000004619 3.30480003357" Properties=species:S:1:pos:R:3:forces:R:3 energy=-23.689367 stress="4063.55 -2978.6600000000003 1761.76 -2978.6600000000003 -667.64 1596.31 1761.76 1596.31 6346.89"
Ta 0.0 0.0 0.0 -0.00044 3e-06 -2e-06
Ta 1.6585 1.6597 1.6524 0.00044 -3e-06 2e-06
2
Lattice = "3.31170010567 0.0 0.0 -0.00419999985024 3.30890011787 0.0 -0.00920000020415 -0.0154999997467 3.328799963" Properties=species:S:1:pos:R:3:forces:R:3 energy=-23.689888 stress="1032.59 906.63 2045.1999999999998 906.63 1918.6499999999999 3453.7599999999998 2045.1999999999998 3453.7599999999998 -4437.12"
Ta 0.0 0.0 0.0 -0.000436 -1e-06 -2e-06
Ta 1.6491 1.6467 1.6644 0.000436 1e-06 2e-06
2
Lattice = "3.3111000061 0.0 0.0 0.00810000021011 3.3273999691 0.0 -0.00889999978244 0.00870000012219 3.31040000916" Properties=species:S:1:pos:R:3:forces:R:3 energy=-23.689996 stress="1447.25 -1793.1 1960.95 -1793.1 -3771.35 -1928.0900000000001 1960.95 -1928.0900000000001 1685.23"
Ta 0.0 0.0 0.0 0.000438 -0.000443 5e-06
Ta 1.6552 1.668 1.6552 -0.000438 0.000443 -5e-06
2
Lattice = "3.32399988174 0.0 0.0 -0.00179999996908 3.32139992714 0.0 -0.00359999993816 -0.00600000005215 3.31699991226" Properties=species:S:1:pos:R:3:forces:R:3 energy=-23.690957 stress="-9165.53 392.27 787.5 392.27 -8350.429999999998 1310.7 787.5 1310.7 -6953.2"
Ta 0.0 0.0 0.0 0.0 0.0 0.0
Ta 1.6593 1.6577 1.6585 0.0 0.0 0.0
2
Lattice = "3.31089997292 0.0 0.0 0.0124000003561 3.32559990883 0.0 -0.001200000057 -0.0124000003561 3.3341999054" Properties=species:S:1:pos:R:3:forces:R:3 energy=-23.690521 stress="-8949.18 -2681.52 276.69 -2681.52 -13545.81 2724.27 276.69 2724.27 -16201.730000000001"
Ta 0.0 0.0 0.0 -0.000423 3e-06 0.0
Ta 1.661 1.6566 1.6671 0.000423 -3e-06 0.0
2
Lattice = "3.30999994278 0.0 0.0 0.0110999997705 3.33330011368 0.0 0.00200000009499 -0.00749999983236 3.33319997787" Properties=species:S:1:pos:R:3:forces:R:3 energy=-23.69038 stress="-11410.16 -2387.02 -421.38 -2387.02 -18621.670000000002 1636.99 -421.38 1636.99 -18577.07"
Ta 0.0 0.0 0.0 0.000419 -3e-06 -1e-06
Ta 1.6616 1.6629 1.6666 -0.000419 3e-06 1e-06
2
Lattice = "3.31480002403 0.0 0.0 -0.00130000000354 3.30679988861 0.0 0.0152000002563 -0.00179999996908 3.31760001183" Properties=species:S:1:pos:R:3:forces:R:3 energy=-23.689202 stress="4967.67 296.10999999999996 -3428.94 296.10999999999996 7593.91 406.16 -3428.94 406.16 4075.8900000000003"
Ta 0.0 0.0 0.0 0.000444 0.0 -4e-06
Ta 1.6644 1.6525 1.6588 -0.000444 0.0 4e-06
2
Lattice = "3.30529999733 0.0 0.0 -0.00170000002254 3.32520008087 0.0 0.00170000002254 -0.00829999987036 3.32640004158" Properties=species:S:1:pos:R:3:forces:R:3 energy=-23.690482 stress="-550.9 376.95 -376.77 376.95 -6880.99 1848.91 -376.77 1848.91 -7253.42"
Ta 0.0 0.0 0.0 0.00043 -0.000434 -2e-06
Ta 1.6527 1.6584 1.6632 -0.00043 0.000434 2e-06
2
Lattice = "3.32270002365 0.0 0.0 -0.00240000011399 3.32060003281 0.0 -0.0148999998346 0.00600000005215 3.30489993095" Properties=species:S:1:pos:R:3:forces:R:3 energy=-23.689902 stress="-1938.73 553.61 3301.04 553.61 -1240.33 -1332.82 3301.04 -1332.82 3793.0"
Ta 0.0 0.0 0.0 -4e-06 2e-06 -0.000435
Ta 1.6527 1.6633 1.6524 4e-06 -2e-06 0.000435
2
Lattice = "3.3232998848 0.0 0.0 0.00380000006407 3.30970001221 0.0 -0.0163000002503 -0.00340000004508 3.33060002327" Properties=species:S:1:pos:R:3:forces:R:3 energy=-23.690563 stress="-9502.029999999999 -833.58 3604.52 -833.58 -5183.259999999999 750.48 3604.52 750.48 -11765.68"
Ta 0.0 0.0 0.0 -1e-06 0.000427 1e-06
Ta 1.6554 1.6532 1.6653 1e-06 -0.000427 -1e-06
2
Lattice = "3.31620001793 0.0 0.0 0.00319999991916 3.31369996071 0.0 -0.00190000003204 0.00400000018999 3.31730008125" Properties=species:S:1:pos:R:3:forces:R:3 energy=-23.690207 stress="617.27 -708.54 421.95 -708.54 1415.16 -887.75 421.95 -887.75 266.22"
Ta 0.0 0.0 0.0 -0.000437 -0.000438 0.00044
Ta 1.6587 1.6588 1.6587 0.000437 0.000438 -0.00044
2
Lattice = "3.32719993591 0.0 0.0 0.00240000011399 3.30349993706 0.0 0.00430000014603 -0.0038999998942 3.31030011177" Properties=species:S:1:pos:R:3:forces:R:3 energy=-23.689285 stress="138.79 -534.2 -967.78 -534.2 7805.76 865.88 -967.78 865.88 5611.4"
Ta 0.0 0.0 0.0 0.000447 -2e-06 -0.000443
Ta 1.667 1.6498 1.6551 -0.000447 2e-06 0.000443
2
Lattice = "3.3218998909 0.0 0.0 0.00930000003427 3.30679988861 0.0 0.0109000001103 0.00510000018403 3.31669998169" Properties=species:S:1:pos:R:3:forces:R:3 energy=-23.689768 stress="-340.25 -2080.88 -2448.95 -2080.88 4545.72 -1144.55 -2448.95 -1144.55 1351.01"
Ta 0.0 0.0 0.0 -0.000442 -0.000437 0.000444
Ta 1.671 1.6559 1.6584 0.000442 0.000437 -0.000444
2
Lattice = "3.31170010567 0.0 0.0 0.0164999999106 3.3343000412 0.0 -9.99999974738e-05 0.0138999996707 3.30570006371" Properties=species:S:1:pos:R:3:forces:R:3 energy=-23.68968 stress="-50.55 -3689.6800000000003 -1.47 -3689.6800000000003 -7274.5199999999995 -3083.4 -1.47 -3083.4 1889.91"
Ta 0.0 0.0 0.0 -0.000435 1e-06 0.000433
Ta 1.664 1.6741 1.6529 0.000435 -1e-06 -0.000433
2
Lattice = "3.32259988785 0.0 0.0 0.0109999999404 3.30929994583 0.0 -0.0142000000924 -0.0140000004321 3.32019996643" Properties=species:S:1:pos:R:3:forces:R:3 energy=-23.690074 stress="-3803.7000000000003 -2463.9700000000003 3178.14 -2463.9700000000003 463.82 3109.52 3178.14 3109.52 -3014.8100000000004"
Ta 0.0 0.0 0.0 0.000872 0.000428 1.1e-05
Ta 1.6598 1.6477 1.6601 -0.000872 -0.000428 -1.1e-05
2
Lattice = "3.31579995155 0.0 0.0 0.0163000002503 3.31240010262 0.0 0.00620000017807 -0.00879999995232 3.30360007286" Properties=species:S:1:pos:R:3:forces:R:3 energy=-23.688108 stress="8273.59 -3695.21 -1386.53 -3695.21 9410.130000000001 1972.81 -1386.53 1972.81 12301.0"
Ta 0.0 0.0 0.0 0.000448 -5e-06 -2e-06
Ta 1.6692 1.6518 1.6518 -0.000448 5e-06 2e-06
2
Lattice = "3.31279993057 0.0 0.0 0.000699999975041 3.3220000267 0.0 -0.00209999992512 0.00410000002012 3.30430006981" Properties=species:S:1:pos:R:3:forces:R:3 energy=-23.689241 stress="5705.93 -155.59 468.56 -155.59 2710.42 -920.27 468.56 -920.27 8460.77"
Ta 0.0 0.0 0.0 -1e-06 0.000446 -0.000442
Ta 1.6557 1.6631 1.6521 1e-06 -0.000446 0.000442
2
Lattice = "3.31509995461 0.0 0.0 -0.0077999997884 3.31060004234 0.0 0.0136000001803 -0.0110999997705 3.31699991226" Properties=species:S:1:pos:R:3:forces:R:3 energy=-23.68952 stress="3143.69 1764.0800000000002 -3057.7000000000003 1764.0800000000002 4618.12 2493.02 -3057.7000000000003 2493.02 2546.3"
Ta 0.0 0.0 0.0 0.000443 0.000443 -1e-06
Ta 1.6605 1.6498 1.6585 -0.000443 -0.000443 1e-06
2
Lattice = "3.30970001221 0.0 0.0 -0.0141000002623 3.30669999123 0.0 -0.00380000006407 -0.0109999999404 3.30399990082" Properties=species:S:1:pos:R:3:forces:R:3 energy=-23.686278 stress="15948.689999999999 3229.23 856.13 3229.23 16943.010000000002 2508.75 856.13 2508.75 17860.57"
Ta 0.0 0.0 0.0 -4e-06 -0.000453 -3e-06
Ta 1.6459 1.6478 1.652 4e-06 0.000453 3e-06
2
Lattice = "3.31279993057 0.0 0.0 0.00680000009015 3.33550000191 0.0 -0.00949999969453 -0.00449999980628 3.33489990234" Properties=species:S:1:pos:R:3:forces:R:3 energy=-23.690097 stress="-15440.51 -1462.0800000000002 2035.5400000000002 -1462.0800000000002 -22399.3 982.8 2035.5400000000002 982.8 -22219.22"
Ta 0.0 0.0 0.0 0.000418 -1e-06 0.000423
Ta 1.6551 1.6655 1.6675 -0.000418 1e-06 -0.000423
2
Lattice = "3.33060002327 0.0 0.0 -0.00740000000224 3.32299995422 0.0 0.00570000009611 0.00219999998808 3.32229995728" Properties=species:S:1:pos:R:3:forces:R:3 energy=-23.690811 stress="-17578.07 1606.3700000000001 -1235.27 1606.3700000000001 -15218.79 -469.97 -1235.27 -469.97 -14998.810000000001"
Ta 0.0 0.0 0.0 0.000426 2e-06 -0.000424
Ta 1.6645 1.6626 1.6611 -0.000426 -2e-06 0.000424
2
Lattice = "3.30460000038 0.0 0.0 0.00960000045598 3.32699990273 0.0 -0.0129000004381 0.00889999978244 3.33470010757" Properties=species:S:1:pos:R:3:forces:R:3 energy=-23.690266 stress="-4850.61 -2063.29 2800.95 -2063.29 -11849.39 -1958.39 2800.95 -1958.39 -14262.01"
Ta 0.0 0.0 0.0 0.000423 -0.00043 -0.000426
Ta 1.6507 1.6679 1.6673 -0.000423 0.00043 0.000426
2
Lattice = "3.3166000843 0.0 0.0 0.00989999994636 3.32179999352 0.0 0.00899999961257 0.00829999987036 3.3178999424" Properties=species:S:1:pos:R:3:forces:R:3 energy=-23.690597 stress="-3926.0299999999997 -2198.55 -1990.1100000000001 -2198.55 -5568.17 -1841.1599999999999 -1990.1100000000001 -1841.1599999999999 -4321.4800000000005"
Ta 0.0 0.0 0.0 0.000428 0.00043 0.000429
Ta 1.6678 1.6651 1.659 -0.000428 -0.00043 -0.000429
2
Lattice = "3.32559990883 0.0 0.0 0.0149999996647 3.32439994812 0.0 -0.0102000003681 -0.00879999995232 3.31529998779" Properties=species:S:1:pos:R:3:forces:R:3 energy=-23.690673 stress="-11060.560000000001 -3311.08 2234.96 -3311.08 -10663.09 1930.59 2234.96 1930.59 -7793.1"
Ta 0.0 0.0 0.0 3e-06 2e-06 0.000427
Ta 1.6652 1.6578 1.6577 -3e-06 -2e-06 -0.000427
2
Lattice = "3.32710003853 0.0 0.0 0.0142999999225 3.31200003624 0.0 0.00529999984428 -0.00150000001304 3.3180000782" Properties=species:S:1:pos:R:3:forces:R:3 energy=-23.690551 stress="-7626.490000000001 -3148.54 -1170.5 -3148.54 -2813.94 319.88 -1170.5 319.88 -4708.87"
Ta 0.0 0.0 0.0 -0.000431 -0.000428 1e-06
Ta 1.6733 1.6552 1.659 0.000431 0.000428 -1e-06
2
Lattice = "3.3218998909 0.0 0.0 0.00829999987036 3.31850004196 0.0 0.0119000002742 0.00230000005104 3.31710004807" Properties=species:S:1:pos:R:3:forces:R:3 energy=-23.690693 stress="-6193.7300000000005 -1837.26 -2623.8700000000003 -1837.26 -5083.38 -517.81 -2623.8700000000003 -517.81 -4646.26"
Ta 0.0 0.0 0.0 -0.00043 3e-06 -0.000429
Ta 1.671 1.6604 1.6585 0.00043 -3e-06 0.000429
2
Lattice = "3.32940006256 0.0 0.0 -0.00769999995828 3.30390000343 0.0 -0.0120000001043 0.0147000001743 3.32710003853" Properties=species:S:1:pos:R:3:forces:R:3 energy=-23.69021 stress="-9842.3 1710.3600000000001 2678.2400000000002 1710.3600000000001 -1794.44 -3224.8100000000004 2678.2400000000002 -3224.8100000000004 -9105.6"
Ta 0.0 0.0 0.0 -0.000437 2e-06 -0.000436
Ta 1.6548 1.6593 1.6635 0.000437 -2e-06 0.000436
2
Lattice = "3.30669999123 0.0 0.0 -0.0122999995947 3.31839990616 0.0 0.00789999961853 -0.0104999998584 3.31259989738" Properties=species:S:1:pos:R:3:forces:R:3 energy=-23.688943 stress="8333.89 2780.83 -1785.3000000000002 2780.83 4535.25 2375.9700000000003 -1785.3000000000002 2375.9700000000003 6440.179999999999"
Ta 0.0 0.0 0.0 0.000439 -0.000441 -5e-06
Ta 1.6512 1.6539 1.6563 -0.000439 0.000441 5e-06
2
Lattice = "3.33619999886 0.0 0.0 0.00150000001304 3.30669999123 0.0 0.0163000002503 0.0137999998406 3.33039999008" Properties=species:S:1:pos:R:3:forces:R:3 energy=-23.690136 stress="-18003.329999999998 -360.51 -3576.72 -360.51 -8835.43 -2976.33 -3576.72 -2976.33 -16192.060000000001"
Ta 0.0 0.0 0.0 0.0 0.00042 -4e-06
Ta 1.677 1.6603 1.6652 0.0 -0.00042 4e-06
2
Lattice = "3.30349993706 0.0 0.0 0.0162000004202 3.30900001526 0.0 -0.00700000021607 0.00680000009015 3.31489992142" Properties=species:S:1:pos:R:3:forces:R:3 energy=-23.687444 stress="14486.06 -3661.95 1582.35 -3661.95 12701.029999999999 -1541.32 1582.35 -1541.32 10767.84"
Ta 0.0 0.0 0.0 -0.00045 7e-06 -0.000453
Ta 1.6563 1.6579 1.6574 0.00045 -7e-06 0.000453
2
Lattice = "3.31089997292 0.0 0.0 -0.00889999978244 3.31270003319 0.0 0.00829999987036 0.00520000001416 3.32080006599" Properties=species:S:1:pos:R:3:forces:R:3 energy=-23.689801 stress="3684.26 1974.24 -1852.3799999999999 1974.24 3114.35 -1156.8400000000001 -1852.3799999999999 -1156.8400000000001 502.12999999999994"
Ta 0.0 0.0 0.0 0.000437 -0.000437 -1e-06
Ta 1.6552 1.6589 1.6604 -0.000437 0.000437 1e-06
2
Lattice = "3.31879997253 0.0 0.0 -0.0110999997705 3.31049990654 0.0 -0.0164999999106 -0.00410000002012 3.32960009575" Properties=species:S:1:pos:R:3:forces:R:3 energy=-23.690408 stress="-5855.900000000001 2413.85 3653.84 2413.85 -3177.2999999999997 882.09 3653.84 882.09 -9230.779999999999"
Ta 0.0 0.0 0.0 0.0 0.0 0.0
Ta 1.6456 1.6532 1.6648 0.0 0.0 0.0
2
Lattice = "3.33170008659 0.0 0.0 0.00689999992028 3.3178999424 0.0 -0.0148000000045 0.0147000001743 3.31089997292" Properties=species:S:1:pos:R:3:forces:R:3 energy=-23.690362 stress="-10662.19 -1488.5900000000001 3240.34 -1488.5900000000001 -6300.3099999999995 -3192.45 3240.34 -3192.45 -4075.9999999999995"
Ta 0.0 0.0 0.0 4e-06 -4e-06 0.000429
Ta 1.6619 1.6663 1.6555 -4e-06 4e-06 -0.000429
2
Lattice = "3.3343000412 0.0 0.0 0.00540000014007 3.32949995995 0.0 -0.0140000004321 -0.00460000010207 3.33520007133" Properties=species:S:1:pos:R:3:forces:R:3 energy=-23.688881 stress="-29339.85 -1153.21 2967.17 -1153.21 -27876.05 983.26 2967.17 983.26 -29592.94"
Ta 0.0 0.0 0.0 -0.000413 0.000412 -2e-06
Ta 1.6628 1.6625 1.6676 0.000413 -0.000412 2e-06
2
Lattice = "3.31089997292 0.0 0.0 0.0131999999285 3.32349991798 0.0 -0.00669999979436 -0.00520000001416 3.33629989624" Properties=species:S:1:pos:R:3:forces:R:3 energy=-23.690515 stress="-8945.37 -2854.2900000000004 1466.4299999999998 -2854.2900000000004 -12870.23 1153.96 1466.4299999999998 1153.96 -16851.88"
Ta 0.0 0.0 0.0 0.000847 -0.000435 -0.000427
Ta 1.6588 1.6591 1.6681 -0.000847 0.000435 0.000427
2
Lattice = "3.33450007439 0.0 0.0 0.0136000001803 3.32259988785 0.0 0.00700000021607 0.00400000018999 3.32060003281" Properties=species:S:1:pos:R:3:forces:R:3 energy=-23.690551 stress="-19623.16 -2954.7799999999997 -1523.28 -2954.7799999999997 -15920.310000000001 -868.95 -1523.28 -868.95 -15295.98"
Ta 0.0 0.0 0.0 -0.000424 4e-06 2e-06
Ta 1.6775 1.6633 1.6603 0.000424 -4e-06 -2e-06
2
Lattice = "3.30719995499 0.0 0.0 0.00600000005215 3.30640006065 0.0 -0.00870000012219 -0.00480000022799 3.33119988441" Properties=species:S:1:pos:R:3:forces:R:3 energy=-23.689487 stress="4760.94 -1330.3100000000002 1958.3200000000002 -1330.3100000000002 5030.59 1081.68 1958.3200000000002 1081.68 -2959.67"
Ta 0.0 0.0 0.0 0.000438 -2e-06 2e-06
Ta 1.6523 1.6508 1.6656 -0.000438 2e-06 -2e-06
2
Lattice = "3.32150006294 0.0 0.0 -0.000699999975041 3.30979990959 0.0 0.0129000004381 -0.0104000000283 3.31489992142" Properties=species:S:1:pos:R:3:forces:R:3 energy=-23.68986 stress="-609.8 175.89 -2883.99 175.89 3169.7000000000003 2312.35 -2883.99 2312.35 1528.81"
Ta 0.0 0.0 0.0 0.000444 -3e-06 -0.000442
Ta 1.6669 1.6497 1.6574 -0.000444 3e-06 0.000442
2
Lattice = "3.30480003357 0.0 0.0 -0.00669999979436 3.31340003014 0.0 -0.00689999992028 0.0142999999225 3.3234000206" Properties=species:S:1:pos:R:3:forces:R:3 energy=-23.689288 stress="7065.76 1506.72 1557.04 1506.72 4265.53 -3227.4500000000003 1557.04 -3227.4500000000003 1046.89"
Ta 0.0 0.0 0.0 -0.000881 -0.000446 0.0
Ta 1.6455 1.6638 1.6617 0.000881 0.000446 0.0
2
Lattice = "3.32389998436 0.0 0.0 -0.00850000046194 3.32249999046 0.0 -0.00889999978244 -0.00329999998212 3.33500003815" Properties=species:S:1:pos:R:3:forces:R:3 energy=-23.690457 stress="-18069.48 1814.44 1923.43 1814.44 -17623.8 707.29 1923.43 707.29 -21466.73"
Ta 0.0 0.0 0.0 -0.00042 -2e-06 -2e-06
Ta 1.6532 1.6596 1.6675 0.00042 2e-06 2e-06
2
Lattice = "3.33189988136 0.0 0.0 0.0142999999225 3.31990003586 0.0 -0.00710000004619 -0.0148999998346 3.33529996872" Properties=species:S:1:pos:R:3:forces:R:3 energy=-23.689792 stress="-23150.59 -3063.23 1550.5800000000002 -3063.23 -19490.46 3197.18 1550.5800000000002 3197.18 -24167.48"
Ta 0.0 0.0 0.0 0.000417 -7e-06 -0.000417
Ta 1.6696 1.6525 1.6676 -0.000417 7e-06 0.000417
2
Lattice = "3.33060002327 0.0 0.0 -0.0143999997526 3.32369995117 0.0 -0.00139999995008 -0.0136000001803 3.33200001717" Properties=species:S:1:pos:R:3:forces:R:3 energy=-23.690006 stress="-22406.35 3075.85 283.12 3075.85 -20306.539999999997 2912.28 283.12 2912.28 -22816.16"
Ta 0.0 0.0 0.0 -4e-06 -0.000417 -3e-06
Ta 1.6574 1.655 1.666 4e-06 0.000417 3e-06
2
Lattice = "3.3259999752 0.0 0.0 -0.00749999983236 3.33489990234 0.0 -0.0097000002861 0.00089999998454 3.31710004807" Properties=species:S:1:pos:R:3:forces:R:3 energy=-23.690571 stress="-17118.0 1635.28 2081.98 1635.28 -19844.84 -203.19 2081.98 -203.19 -14345.72"
Ta 0.0 0.0 0.0 2e-06 -1e-06 0.00042
Ta 1.6544 1.6679 1.6586 -2e-06 1e-06 -0.00042
2
Lattice = "3.31739997864 0.0 0.0 -0.0156999994069 3.31970000267 0.0 0.00499999988824 0.0146000003442 3.31509995461" Properties=species:S:1:pos:R:3:forces:R:3 energy=-23.690213 stress="-2208.17 3473.14 -1080.09 3473.14 -2950.43 -3225.5600000000004 -1080.09 -3225.5600000000004 -1446.74"
Ta 0.0 0.0 0.0 -0.000442 -0.000445 0.000441
Ta 1.6533 1.6671 1.6576 0.000442 0.000445 -0.000441
2
Lattice = "3.31410002708 0.0 0.0 0.0126000000164 3.32780003548 0.0 0.00749999983236 -0.00620000017807 3.33170008659" Properties=species:S:1:pos:R:3:forces:R:3 energy=-23.690617 stress="-11356.33 -2713.87 -1615.29 -2713.87 -15605.029999999999 1345.96 -1615.29 1345.96 -16800.52"
Ta 0.0 0.0 0.0 -2e-06 2e-06 0.000426
Ta 1.6671 1.6608 1.6659 2e-06 -2e-06 -0.000426
2
Lattice = "3.33410000801 0.0 0.0 -0.00949999969453 3.30469989777 0.0 -0.0119000002742 -0.00879999995232 3.31220006943" Properties=species:S:1:pos:R:3:forces:R:3 energy=-23.689761 stress="-6865.599999999999 2087.9500000000003 2646.9 2087.9500000000003 2545.62 1920.39 2646.9 1920.39 148.10000000000002"
Ta 0.0 0.0 0.0 0.000443 0.000436 6e-06
Ta 1.6564 1.648 1.6561 -0.000443 -0.000436 -6e-06
2
Lattice = "3.32760000229 0.0 0.0 -0.00190000003204 3.31820011139 0.0 0.000500000023749 -0.0155999995768 3.33640003204" Properties=species:S:1:pos:R:3:forces:R:3 energy=-23.69027 stress="-19541.46 406.28 -110.74000000000001 406.28 -16673.960000000003 3361.5 -110.74000000000001 3361.5 -22262.14"
Ta 0.0 0.0 0.0 0.0 0.0 0.0
Ta 1.6631 1.6513 1.6682 0.0 0.0 0.0
2
Lattice = "3.30819988251 0.0 0.0 0.00719999987632 3.32559990883 0.0 0.00159999995958 0.00719999987632 3.32410001755" Properties=species:S:1:pos:R:3:forces:R:3 energy=-23.690599 stress="-1982.3500000000001 -1585.1200000000001 -358.04999999999995 -1585.1200000000001 -7502.34 -1599.04 -358.04999999999995 -1599.04 -7019.8099999999995"
Ta 0.0 0.0 0.0 0.0 -2e-06 0.000434
Ta 1.6585 1.6664 1.6621 0.0 2e-06 -0.000434
2
Lattice = "3.31769990921 0.0 0.0 -0.00579999992624 3.31699991226 0.0 0.00889999978244 0.0162000004202 3.3327999115" Properties=species:S:1:pos:R:3:forces:R:3 energy=-23.69061 stress="-9577.12 1230.78 -1945.3100000000002 1230.78 -9380.55 -3550.1800000000003 -1945.3100000000002 -3550.1800000000003 -14308.38"
Ta 0.0 0.0 0.0 0.0 0.0 0.0
Ta 1.6604 1.6666 1.6664 0.0 0.0 0.0
2
Lattice = "3.31329989433 0.0 0.0 -0.000399999989895 3.31690001488 0.0 0.0135000003502 0.0 3.33590006828" Properties=species:S:1:pos:R:3:forces:R:3 energy=-23.690603 stress="-7520.4800000000005 87.73 -2963.21 87.73 -8622.48 0.69 -2963.21 0.69 -14592.02"
Ta 0.0 0.0 0.0 -4e-06 -0.000427 0.000432
Ta 1.6632 1.6584 1.668 4e-06 0.000427 -0.000432
2
Lattice = "3.31369996071 0.0 0.0 -0.00350000010803 3.30380010605 0.0 -0.00719999987632 -0.0097000002861 3.31170010567" Properties=species:S:1:pos:R:3:forces:R:3 energy=-23.687908 stress="10264.31 780.75 1638.34 780.75 13511.390000000001 2195.65 1638.34 2195.65 10923.89"
Ta 0.0 0.0 0.0 -3e-06 -0.00045 -0.000451
Ta 1.6515 1.647 1.6558 3e-06 0.00045 0.000451
2
Lattice = "3.31100010872 0.0 0.0 0.00730000017211 3.32240009308 0.0 0.00260000000708 0.00310000008903 3.33559989929" Properties=species:S:1:pos:R:3:forces:R:3 energy=-23.690688 stress="-8159.87 -1578.8500000000001 -569.48 -1578.8500000000001 -11732.89 -685.38 -569.48 -685.38 -15843.04"
Ta 0.0 0.0 0.0 -0.000422 -0.000425 1e-06
Ta 1.6604 1.6627 1.6678 0.000422 0.000425 -1e-06
2
Lattice = "3.32010006905 0.0 0.0 0.0153999999166 3.31189990044 0.0 0.00710000004619 -0.0116999996826 3.3164999485" Properties=species:S:1:pos:R:3:forces:R:3 energy=-23.689988 stress="-1287.79 -3409.17 -1564.98 -3409.17 1359.31 2585.44 -1564.98 2585.44 -98.57000000000001"
Ta 0.0 0.0 0.0 -2e-06 3e-06 0.000438
Ta 1.6713 1.6501 1.6583 2e-06 -3e-06 -0.000438
2
Lattice = "3.31150007248 0.0 0.0 -0.0038999998942 3.30809998512 0.0 0.0154999997467 -0.0133999995887 3.32680010796" Properties=species:S:1:pos:R:3:forces:R:3 energy=-23.689613 stress="2542.36 898.2 -3478.91 898.2 3649.25 3002.21 -3478.91 3002.21 -2359.93"
Ta 0.0 0.0 0.0 0.000437 -0.000437 -8e-06
Ta 1.6616 1.6473 1.6634 -0.000437 0.000437 8e-06
2
Lattice = "3.31990003586 0.0 0.0 0.0131000000983 3.32010006905 0.0 -0.00529999984428 0.00910000037402 3.31820011139" Properties=species:S:1:pos:R:3:forces:R:3 energy=-23.690678 stress="-5888.5 -2879.58 1153.4 -2879.58 -5946.5 -1998.02 1153.4 -1998.02 -5325.56"
Ta 0.0 0.0 0.0 -0.000433 3e-06 -2e-06
Ta 1.6638 1.6646 1.6591 0.000433 -3e-06 2e-06
2
Lattice = "3.3194000721 0.0 0.0 -0.00700000021607 3.3289000988 0.0 0.0137000000104 -0.0137999998406 3.3069999218" Properties=species:S:1:pos:R:3:forces:R:3 energy=-23.69017 stress="-4282.71 1592.26 -3010.8799999999997 1592.26 -7298.28 3048.75 -3010.8799999999997 3048.75 -325.23"
Ta 0.0 0.0 0.0 0.000436 0.000439 0.0
Ta 1.6631 1.6576 1.6535 -0.000436 -0.000439 0.0
2
Lattice = "3.30819988251 0.0 0.0 -0.0120000001043 3.30579996109 0.0 -0.00590000022203 -0.0113000003621 3.31590008736" Properties=species:S:1:pos:R:3:forces:R:3 energy=-23.687892 stress="11705.5 2699.26 1327.81 2699.26 12498.38 2559.92 1327.81 2559.92 9195.539999999999"
Ta 0.0 0.0 0.0 -0.000453 -0.000454 -0.000455
Ta 1.6451 1.6472 1.6579 0.000453 0.000454 0.000455
2
Lattice = "3.32249999046 0.0 0.0 -0.0121999997646 3.30819988251 0.0 0.0137999998406 -0.00240000011399 3.320499897" Properties=species:S:1:pos:R:3:forces:R:3 energy=-23.690132 stress="-3343.01 2704.11 -3081.23 2704.11 1270.1899999999998 549.12 -3081.23 549.12 -2672.32"
Ta 0.0 0.0 0.0 -0.000434 -4e-06 -0.000434
Ta 1.662 1.6529 1.6602 0.000434 4e-06 0.000434
2
Lattice = "3.31189990044 0.0 0.0 -0.00439999997616 3.32540011406 0.0 -0.0063000000082 0.00219999998808 3.32909989357" Properties=species:S:1:pos:R:3:forces:R:3 energy=-23.690843 stress="-7235.45 958.77 1373.71 958.77 -11469.4 -487.27 1373.71 -487.27 -12631.220000000001"
Ta 0.0 0.0 0.0 -1e-06 0.0 -0.00043
Ta 1.6506 1.6638 1.6645 1e-06 0.0 0.00043
2
Lattice = "3.33640003204 0.0 0.0 0.0120000001043 3.31399989128 0.0 0.00639999983832 -0.00499999988824 3.31839990616" Properties=species:S:1:pos:R:3:forces:R:3 energy=-23.690598 stress="-16030.460000000001 -2615.3 -1399.57 -2615.3 -9011.369999999999 1069.71 -1399.57 1069.71 -10383.800000000001"
Ta 0.0 0.0 0.0 -0.000861 6e-06 3e-06
Ta 1.6773 1.6545 1.6592 0.000861 -6e-06 -3e-06
2
Lattice = "3.31769990921 0.0 0.0 -0.00949999969453 3.32529997826 0.0 0.0105999996886 0.00949999969453 3.33109998703" Properties=species:S:1:pos:R:3:forces:R:3 energy=-23.690656 stress="-12733.07 2033.6599999999999 -2291.25 2033.6599999999999 -15085.44 -2061.68 -2291.25 -2061.68 -16870.989999999998"
Ta 0.0 0.0 0.0 -3e-06 -2e-06 0.000426
Ta 1.6594 1.6674 1.6656 3e-06 2e-06 -0.000426
2
Lattice = "3.32620000839 0.0 0.0 0.00270000007004 3.30970001221 0.0 0.01600000076 0.0155999995768 3.33610010147" Properties=species:S:1:pos:R:3:forces:R:3 energy=-23.690254 stress="-14323.800000000001 -620.5899999999999 -3515.58 -620.5899999999999 -9188.58 -3392.86 -3515.58 -3392.86 -17392.0"
Ta 0.0 0.0 0.0 -0.000423 0.000427 -0.000428
Ta 1.6724 1.6627 1.668 0.000423 -0.000427 0.000428
2
Lattice = "3.31920003891 0.0 0.0 -0.00730000017211 3.32259988785 0.0 -0.0133999995887 -0.0131999999285 3.32820010185" Properties=species:S:1:pos:R:3:forces:R:3 energy=-23.690694 stress="-11276.81 1552.73 2911.96 1552.73 -12332.94 2876.65 2911.96 2876.65 -14073.7"
Ta 0.0 0.0 0.0 0.000425 2e-06 4e-06
Ta 1.6493 1.6547 1.6641 -0.000425 -2e-06 -4e-06
2
Lattice = "3.33060002327 0.0 0.0 0.00170000002254 3.30550003052 0.0 -0.0154999997467 -0.0108000002801 3.31830000877" Properties=species:S:1:pos:R:3:forces:R:3 energy=-23.690097 stress="-7398.2 -404.2 3456.2400000000002 -404.2 607.84 2374.71 3456.2400000000002 2374.71 -3477.02"
Ta 0.0 0.0 0.0 4e-06 0.000435 0.000438
Ta 1.6584 1.6474 1.6592 -4e-06 -0.000435 -0.000438
2
Lattice = "3.30870008469 0.0 0.0 0.00079999997979 3.3125 0.0 0.0129000004381 -0.0046999999322 3.3111000061" Properties=species:S:1:pos:R:3:forces:R:3 energy=-23.688402 stress="10344.23 -170.68 -2918.0299999999997 -170.68 9114.35 1063.15 -2918.0299999999997 1063.15 9572.1"
Ta 0.0 0.0 0.0 4e-06 -1e-06 -0.000447
Ta 1.6612 1.6539 1.6555 -4e-06 1e-06 0.000447
2
Lattice = "3.32299995422 0.0 0.0 -0.00439999997616 3.3085000515 0.0 0.00289999996312 0.0137999998406 3.304500103" Properties=species:S:1:pos:R:3:forces:R:3 energy=-23.688669 stress="3910.4 988.25 -648.7 988.25 8614.3 -3085.0 -648.7 -3085.0 9933.490000000002"
Ta 0.0 0.0 0.0 0.000445 -0.000447 0.000446
Ta 1.6608 1.6611 1.6523 -0.000445 0.000447 -0.000446
2
Lattice = "3.31419992447 0.0 0.0 -0.0108000002801 3.31520009041 0.0 0.0114000001922 -0.00249999994412 3.33610010147" Properties=species:S:1:pos:R:3:forces:R:3 energy=-23.690538 stress="-7515.75 2343.1000000000004 -2512.81 2343.1000000000004 -7800.79 565.26 -2512.81 565.26 -14362.84"
Ta 0.0 0.0 0.0 0.0 0.000428 0.000433
Ta 1.6574 1.6564 1.6681 0.0 -0.000428 -0.000433
2
Lattice = "3.30870008469 0.0 0.0 -0.0105999996886 3.31060004234 0.0 0.00710000004619 -0.0164000000805 3.32909989357" Properties=species:S:1:pos:R:3:forces:R:3 energy=-23.689722 stress="2494.02 2358.67 -1602.8700000000001 2358.67 1865.98 3675.35 -1602.8700000000001 3675.35 -4043.8799999999997"
Ta 0.0 0.0 0.0 -2e-06 5e-06 0.000442
Ta 1.6526 1.6471 1.6646 2e-06 -5e-06 -0.000442
2
Lattice = "3.33130002022 0.0 0.0 0.0153999999166 3.3259999752 0.0 0.00669999979436 0.00999999977648 3.31539988518" Properties=species:S:1:pos:R:3:forces:R:3 energy=-23.690581 stress="-16296.82 -3376.3999999999996 -1468.21 -3376.3999999999996 -14640.43 -2166.98 -1468.21 -2166.98 -11322.16"
Ta 0.0 0.0 0.0 0.0 0.0 0.0
Ta 1.6767 1.668 1.6577 0.0 0.0 0.0
2
Lattice = "3.30430006981 0.0 0.0 0.0136000001803 3.32470011711 0.0 0.00740000000224 0.00650000013411 3.3083999157" Properties=species:S:1:pos:R:3:forces:R:3 energy=-23.688755 stress="9299.8 -3078.46 -1660.51 -3078.46 2679.5 -1477.71 -1660.51 -1477.71 7991.16"
Ta 0.0 0.0 0.0 0.000442 -4e-06 -2e-06
Ta 1.6627 1.6656 1.6542 -0.000442 4e-06 2e-06
2
Lattice = "3.3273999691 0.0 0.0 0.0126999998465 3.33459997177 0.0 -0.00460000010207 0.0146000003442 3.33229994774" Properties=species:S:1:pos:R:3:forces:R:3 energy=-23.689312 stress="-25105.09 -2688.4 959.13 -2688.4 -27291.81 -3105.23 959.13 -3105.23 -26574.49"
Ta 0.0 0.0 0.0 0.000414 -7e-06 0.000415
Ta 1.6678 1.6746 1.6662 -0.000414 7e-06 -0.000415
2
Lattice = "3.30520009995 0.0 0.0 -0.0137000000104 3.31570005417 0.0 -0.0162000004202 -0.0124000003561 3.30730009079" Properties=species:S:1:pos:R:3:forces:R:3 energy=-23.687388 stress="13516.93 3087.18 3651.46 3087.18 10100.35 2802.34 3651.46 2802.34 12865.9"
Ta 0.0 0.0 0.0 -0.000456 -0.000459 -0.000457
Ta 1.6376 1.6516 1.6536 0.000456 0.000459 0.000457
2
Lattice = "3.31599998474 0.0 0.0 0.000699999975041 3.31730008125 0.0 0.000600000028498 -0.0154999997467 3.32500004768" Properties=species:S:1:pos:R:3:forces:R:3 energy=-23.690664 stress="-4661.23 -151.07000000000002 -130.38 -151.07000000000002 -5113.86 3419.6 -130.38 3419.6 -7531.63"
Ta 0.0 0.0 0.0 -0.000432 0.0 0.0
Ta 1.6586 1.6509 1.6625 0.000432 0.0 0.0
2
Lattice = "3.3273999691 0.0 0.0 -0.0148999998346 3.32949995995 0.0 0.0137000000104 0.0154999997467 3.33450007439" Properties=species:S:1:pos:R:3:forces:R:3 energy=-23.68941 stress="-23795.190000000002 3133.63 -2900.7000000000003 3133.63 -24418.25 -3288.91 -2900.7000000000003 -3288.91 -25917.71"
Ta 0.0 0.0 0.0 3e-06 4e-06 -0.000416
Ta 1.6631 1.6725 1.6672 -3e-06 -4e-06 0.000416
2
Lattice = "3.32439994812 0.0 0.0 0.00760000012815 3.31010007858 0.0 0.00590000022203 0.0038999998942 3.31290006638" Properties=species:S:1:pos:R:3:forces:R:3 energy=-23.690035 stress="-2106.9399999999996 -1695.3400000000001 -1317.1299999999999 -1695.3400000000001 2496.5299999999997 -868.58 -1317.1299999999999 -868.58 1598.99"
Ta 0.0 0.0 0.0 -0.000442 1e-06 0.000439
Ta 1.6689 1.657 1.6565 0.000442 -1e-06 -0.000439
2
Lattice = "3.32430005074 0.0 0.0 0.00910000037402 3.3289000988 0.0 -0.00740000000224 0.01600000076 3.33310008049" Properties=species:S:1:pos:R:3:forces:R:3 energy=-23.690015 stress="-20472.059999999998 -1926.96 1574.3700000000001 -1926.96 -21891.98 -3433.3999999999996 1574.3700000000001 -3433.3999999999996 -23153.19"
Ta 0.0 0.0 0.0 4e-06 -0.000422 0.000423
Ta 1.663 1.6724 1.6666 -4e-06 0.000422 -0.000423
2
Lattice = "3.32279992104 0.0 0.0 0.0130000002682 3.32789993286 0.0 -0.00899999961257 -0.001200000057 3.32439994812" Properties=species:S:1:pos:R:3:forces:R:3 energy=-23.690752 stress="-14810.21 -2823.7999999999997 1946.96 -2823.7999999999997 -16361.699999999999 271.0 1946.96 271.0 -15278.02"
Ta 0.0 0.0 0.0 -3e-06 0.000424 0.0
Ta 1.6634 1.6634 1.6622 3e-06 -0.000424 0.0
2
Lattice = "3.30900001526 0.0 0.0 -0.0046999999322 3.33019995689 0.0 -0.00850000046194 0.00170000002254 3.30809998512" Properties=species:S:1:pos:R:3:forces:R:3 energy=-23.689825 stress="2936.71 1055.66 1878.49 1055.66 -3856.89 -383.2 1878.49 -383.2 3236.96"
Ta 0.0 0.0 0.0 -1e-06 0.000443 -0.000437
Ta 1.6479 1.666 1.654 1e-06 -0.000443 0.000437
2
Lattice = "3.32730007172 0.0 0.0 -0.0148000000045 3.31719994545 0.0 0.00960000045598 -0.0111999996006 3.32929992676" Properties=species:S:1:pos:R:3:forces:R:3 energy=-23.690562 stress="-15582.82 3214.2400000000002 -2112.58 3214.2400000000002 -12428.97 2441.49 -2112.58 2441.49 -16168.56"
Ta 0.0 0.0 0.0 -0.000428 -1e-06 0.000428
Ta 1.661 1.653 1.6647 0.000428 1e-06 -0.000428
2
Lattice = "3.31780004501 0.0 0.0 -0.0141000002623 3.31990003586 0.0 -0.000199999994948 -0.00460000010207 3.33559989929" Properties=species:S:1:pos:R:3:forces:R:3 energy=-23.690622 stress="-12368.81 3035.58 36.589999999999996 3035.58 -13009.29 1003.22 36.589999999999996 1003.22 -17869.59"
Ta 0.0 0.0 0.0 0.000419 -0.00042 -1e-06
Ta 1.6518 1.6576 1.6678 -0.000419 0.00042 1e-06
2
Lattice = "3.31019997597 0.0 0.0 0.0127999996766 3.32069993019 0.0 0.0063000000082 -0.00170000002254 3.30509996414" Properties=species:S:1:pos:R:3:forces:R:3 energy=-23.688764 stress="8054.89 -2896.21 -1408.45 -2896.21 4644.51 375.59999999999997 -1408.45 375.59999999999997 9733.77"