# two molecules DGEBA (diepoxy) and one DETA (linker)

118 atoms           
123 bonds           
221 angles           
302 dihedrals           
115 impropers           
11 atom types          
19 bond types          
50 angle types          
66 dihedral types          
22 improper types          
10 30 xlo xhi
-10 20 ylo yhi
-15 10 zlo zhi

Masses            

1 12.011150 # c2         
2 12.011150 # c3m         
3 15.999400 # o3e         
4 12.011150 # cp         
5 12.011150 # c         
6 12.011150 # c3         
7 15.999400 # oc         
8 1.007970 # hc         
9 14.006700 # na         
10 1.007970 # hn         
11 1.007970 # ho         

Pair Coeffs # lj/class2/coul/long         

1 0.0540000000 4.0100000000 # c2        
2 0.0540000000 4.0100000000 # c3m        
3 0.2400000000 3.5350000000 # o3e        
4 0.0640000000 4.0100000000 # cp        
5 0.0540000000 4.0100000000 # c        
6 0.0540000000 4.0100000000 # c3        
7 0.2400000000 3.5350000000 # oc        
8 0.0200000000 2.7000000000 # hc        
9 0.0650000000 4.0700000000 # na        
10 0.0130000000 1.0980000000 # hn        
11 0.0130000000 1.0980000000 # ho        

Bond Coeffs # class2         

1 1.1010 345.0000 -691.8900 844.6000 # c2-hc      
2 1.5300 299.6700 -501.7700 679.8100 # c2-c3m      
3 1.4200 400.3954 -835.1951 1313.0142 # c2-oc      
4 1.4200 400.3954 -835.1951 1313.0142 # c3m-o3e      
5 1.5300 299.6700 -501.7700 679.8100 # c3m-c3m      
6 1.1010 345.0000 -691.8900 844.6000 # c3m-hc      
7 1.4170 470.8361 -627.6179 1327.6345 # cp-cp      
8 1.3768 428.8798 -738.2351 1114.9655 # cp-oc      
9 1.0982 372.8251 -803.4526 894.3173 # cp-hc      
10 1.5010 321.9021 -521.8208 572.1628 # cp-c      
11 1.5300 299.6700 -501.7700 679.8100 # c-c3      
12 1.1010 345.0000 -691.8900 844.6000 # c3-hc      
13 1.4570 365.8052 -699.6368 998.4842 # c2-na      
14 1.0060 466.7400 -1073.6018 1251.1056 # na-hn      
15 1.5300 299.6700 -501.7700 679.8100 # c2-c2      
16 1.5300 299.6700 -501.7700 679.8100 # c2-c3      
17 1.4200 400.3954 -835.1951 1313.0142 # c3-oc      
18 0.9650 532.5062 -1282.9050 2004.7658 # oc-ho      
19 1.4200 400.3954 -835.1951 1313.0142 # c3m-oc      

Angle Coeffs # class2         

1 110.7700 41.4530 -10.6040 5.1290 # c3m-c2-hc      
2 107.6600 39.6410 -12.9210 -2.4318 # hc-c2-hc      
3 108.7280 58.5446 -10.8088 -12.4006 # oc-c2-hc      
4 111.2700 54.5381 -8.3642 -13.0838 # c3m-c2-oc      
5 111.2700 54.5381 -8.3642 -13.0838 # c2-c3m-o3e      
6 112.6700 39.5160 -7.4430 -9.5583 # c2-c3m-c3m      
7 110.7700 41.4530 -10.6040 5.1290 # c2-c3m-hc      
8 111.2700 54.5381 -8.3642 -13.0838 # c3m-c3m-o3e      
9 108.7280 58.5446 -10.8088 -12.4006 # o3e-c3m-hc      
10 110.7700 41.4530 -10.6040 5.1290 # c3m-c3m-hc      
11 107.6600 39.6410 -12.9210 -2.4318 # hc-c3m-hc      
12 104.5000 35.7454 -10.0067 -6.2729 # c3m-o3e-c3m      
13 118.9000 61.0226 -34.9931 0.0000 # cp-cp-cp      
14 123.4200 73.6781 -21.6787 0.0000 # cp-cp-oc      
15 117.9400 35.1558 -12.4682 0.0000 # cp-cp-hc      
16 120.0500 44.7148 -22.7352 0.0000 # cp-cp-c      
17 108.4000 43.9594 -8.3924 -9.3379 # cp-c-c3      
18 111.0000 44.3234 -9.4454 0.0000 # cp-c-cp      
19 112.6700 39.5160 -7.4430 -9.5583 # c3-c-c3      
20 110.7700 41.4530 -10.6040 5.1290 # c-c3-hc      
21 107.6600 39.6410 -12.9210 -2.4318 # hc-c3-hc      
22 102.9695 38.9739 -6.2595 -8.1710 # c2-oc-cp      
23 112.4436 47.2337 -10.6612 -10.2062 # c2-na-c2      
24 110.9538 50.8652 -4.4522 -10.0298 # c2-na-hn      
25 111.9100 60.7147 -13.3366 -13.0785 # c2-c2-na      
26 110.6204 51.3137 -6.7198 -2.6003 # hc-c2-na      
27 110.7700 41.4530 -10.6040 5.1290 # c2-c2-hc      
28 107.0671 45.2520 -7.5558 -9.5120 # hn-na-hn      
29 112.6700 39.5160 -7.4430 -9.5583 # c3m-c3m-c2      
30 110.7700 41.4530 -10.6040 5.1290 # c3-c2-hc      
31 111.9100 60.7147 -13.3366 -13.0785 # c3-c2-na      
32 112.6700 39.5160 -7.4430 -9.5583 # c2-c3-c2      
33 110.7700 41.4530 -10.6040 5.1290 # c2-c3-hc      
34 111.2700 54.5381 -8.3642 -13.0838 # c2-c3-oc      
35 108.7280 58.5446 -10.8088 -12.4006 # oc-c3-hc      
36 111.2700 54.5381 -8.3642 -13.0838 # c3-c2-oc      
37 105.8000 52.7061 -12.1090 -9.8681 # c3-oc-ho      
38 108.7280 58.5446 -10.8088 -12.4006 # hc-c3m-o3e      
39 110.7700 41.4530 -10.6040 5.1290 # hc-c3m-c3m      
40 111.2700 54.5381 -8.3642 -13.0838 # oc-c2-c3m      
41 110.7700 41.4530 -10.6040 5.1290 # hc-c2-c3m      
42 111.9100 60.7147 -13.3366 -13.0785 # c3m-c2-na      
43 112.6700 39.5160 -7.4430 -9.5583 # c2-c3m-c2      
44 111.2700 54.5381 -8.3642 -13.0838 # c2-c3m-oc      
45 108.7280 58.5446 -10.8088 -12.4006 # oc-c3m-hc      
46 105.8000 52.7061 -12.1090 -9.8681 # c3m-oc-ho      
47 111.9100 60.7147 -13.3366 -13.0785 # na-c2-c3      
48 110.7700 41.4530 -10.6040 5.1290 # hc-c2-c3      
49 111.2700 54.5381 -8.3642 -13.0838 # oc-c2-c3      
50 105.8000 52.7061 -12.1090 -9.8681 # ho-oc-c3      

Dihedral Coeffs # class2         

1 -0.1435 0.0000 0.2530 0.0000 -0.0905 0.0000# hc-c2-c3m-o3e     
2 0.0000 0.0000 0.0316 0.0000 -0.1681 0.0000# hc-c2-c3m-c3m     
3 -0.1432 0.0000 0.0617 0.0000 -0.1083 0.0000# hc-c2-c3m-hc     
4 -0.1820 0.0000 -0.1084 0.0000 -0.7047 0.0000# oc-c2-c3m-o3e     
5 0.7137 0.0000 0.2660 0.0000 -0.2545 0.0000# oc-c2-c3m-c3m     
6 -0.1435 0.0000 0.2530 0.0000 -0.0905 0.0000# oc-c2-c3m-hc     
7 0.9513 0.0000 0.1155 0.0000 0.0720 0.0000# hc-c2-oc-cp     
8 0.0000 0.0000 0.0000 0.0000 0.0000 0.0000# c3m-c2-oc-cp     
9 -0.5203 0.0000 -0.3028 0.0000 -0.3450 0.0000# c2-c3m-o3e-c3m     
10 0.5302 0.0000 0.0000 0.0000 -0.3966 0.0000# hc-c3m-o3e-c3m     
11 0.7137 0.0000 0.2660 0.0000 -0.2545 0.0000# c2-c3m-c3m-o3e     
12 0.0000 0.0000 0.0316 0.0000 -0.1681 0.0000# c2-c3m-c3m-hc     
13 -0.1435 0.0000 0.2530 0.0000 -0.0905 0.0000# o3e-c3m-c3m-hc     
14 -0.1432 0.0000 0.0617 0.0000 -0.1083 0.0000# hc-c3m-c3m-hc     
15 8.3667 0.0000 1.1932 0.0000 0.0000 0.0000# cp-cp-cp-cp     
16 0.0000 0.0000 3.9661 0.0000 0.0000 0.0000# cp-cp-cp-hc     
17 0.0000 0.0000 4.8498 0.0000 0.0000 0.0000# cp-cp-cp-oc     
18 0.0000 0.0000 1.7234 0.0000 0.0000 0.0000# oc-cp-cp-hc     
19 0.0000 0.0000 1.5000 0.0000 0.0000 0.0000# cp-cp-oc-c2     
20 0.0000 0.0000 1.8769 0.0000 0.0000 0.0000# hc-cp-cp-hc     
21 0.0000 0.0000 4.4072 0.0000 0.0000 0.0000# cp-cp-cp-c     
22 0.0000 0.0000 1.5590 0.0000 0.0000 0.0000# c-cp-cp-hc     
23 -0.2802 0.0000 -0.0678 0.0000 -0.0122 0.0000# cp-cp-c-c3     
24 -0.2802 0.0000 -0.0678 0.0000 -0.0122 0.0000# cp-cp-c-cp     
25 -0.0228 0.0000 0.0280 0.0000 -0.1863 0.0000# cp-c-c3-hc     
26 0.0000 0.0000 0.0316 0.0000 -0.1681 0.0000# c3-c-c3-hc     
27 -0.1406 0.0000 0.4168 0.0000 0.0150 0.0000# c2-c2-na-c2     
28 0.1904 0.0000 -0.1342 0.0000 -0.2460 0.0000# hc-c2-na-c2     
29 -1.1506 0.0000 -0.6344 0.0000 -0.1845 0.0000# c2-c2-na-hn     
30 -0.5187 0.0000 -0.4837 0.0000 -0.1692 0.0000# hc-c2-na-hn     
31 0.3805 0.0000 0.3547 0.0000 -0.1102 0.0000# na-c2-c2-na     
32 -0.2428 0.0000 0.4065 0.0000 -0.3079 0.0000# hc-c2-c2-na     
33 -0.1432 0.0000 0.0617 0.0000 -0.1083 0.0000# hc-c2-c2-hc     
34 0.7137 0.0000 0.2660 0.0000 -0.2545 0.0000# c3m-c3m-c2-oc     
35 0.0000 0.0000 0.0316 0.0000 -0.1681 0.0000# c3m-c3m-c2-hc     
36 -0.1820 0.0000 -0.1084 0.0000 -0.7047 0.0000# o3e-c3m-c2-oc     
37 -0.1435 0.0000 0.2530 0.0000 -0.0905 0.0000# o3e-c3m-c2-hc     
38 -0.1435 0.0000 0.2530 0.0000 -0.0905 0.0000# hc-c3m-c2-oc     
39 -0.1432 0.0000 0.0617 0.0000 -0.1083 0.0000# hc-c3m-c2-hc     
40 0.0000 0.0000 0.0316 0.0000 -0.1681 0.0000# hc-c2-c3-c2     
41 -0.1432 0.0000 0.0617 0.0000 -0.1083 0.0000# hc-c2-c3-hc     
42 -0.1435 0.0000 0.2530 0.0000 -0.0905 0.0000# hc-c2-c3-oc     
43 0.1764 0.0000 0.1766 0.0000 -0.5206 0.0000# na-c2-c3-c2     
44 -0.2428 0.0000 0.4065 0.0000 -0.3079 0.0000# na-c2-c3-hc     
45 0.0000 0.0000 0.0000 0.0000 0.0000 0.0000# na-c2-c3-oc     
46 -0.1406 0.0000 0.4168 0.0000 0.0150 0.0000# c3-c2-na-c2     
47 -1.1506 0.0000 -0.6344 0.0000 -0.1845 0.0000# c3-c2-na-hn     
48 0.7137 0.0000 0.2660 0.0000 -0.2545 0.0000# oc-c2-c3-c2     
49 -0.1435 0.0000 0.2530 0.0000 -0.0905 0.0000# oc-c2-c3-hc     
50 -0.1820 0.0000 -0.1084 0.0000 -0.7047 0.0000# oc-c2-c3-oc     
51 0.0000 0.0000 0.0000 0.0000 0.0000 0.0000# c3-c2-oc-cp     
52 -0.6732 0.0000 -0.4778 0.0000 -0.1670 0.0000# c2-c3-oc-ho     
53 0.1863 0.0000 -0.4338 0.0000 -0.2121 0.0000# hc-c3-oc-ho     
54 -0.1435 0.0000 0.2530 0.0000 -0.0905 0.0000# hc-c3m-c3m-o3e     
55 0.0000 0.0000 0.0316 0.0000 -0.1681 0.0000# hc-c2-c3m-c2     
56 -0.1435 0.0000 0.2530 0.0000 -0.0905 0.0000# hc-c2-c3m-oc     
57 0.1764 0.0000 0.1766 0.0000 -0.5206 0.0000# na-c2-c3m-c2     
58 -0.2428 0.0000 0.4065 0.0000 -0.3079 0.0000# na-c2-c3m-hc     
59 0.0000 0.0000 0.0000 0.0000 0.0000 0.0000# na-c2-c3m-oc     
60 -0.1406 0.0000 0.4168 0.0000 0.0150 0.0000# c3m-c2-na-c2     
61 0.7137 0.0000 0.2660 0.0000 -0.2545 0.0000# oc-c2-c3m-c2     
62 -0.1820 0.0000 -0.1084 0.0000 -0.7047 0.0000# oc-c2-c3m-oc     
63 -0.6732 0.0000 -0.4778 0.0000 -0.1670 0.0000# c2-c3m-oc-ho     
64 0.1863 0.0000 -0.4338 0.0000 -0.2121 0.0000# hc-c3m-oc-ho     
65 -0.6732 0.0000 -0.4778 0.0000 -0.1670 0.0000# ho-oc-c3-c2     
66 0.1863 0.0000 -0.4338 0.0000 -0.2121 0.0000# ho-oc-c3-hc     

Improper Coeffs # class2         

1 13.0421 0.0000 # cp-cp-cp-oc        
2 4.8912 0.0000 # cp-cp-cp-hc        
3 7.8153 0.0000 # cp-cp-cp-c        
4 0.0000 0.0000 # c2-na-c2-hn        
5 0.0000 0.0000 # c2-na-hn-hn        
6 0.0000 0.0000          
7 0.0000 0.0000          
8 0.0000 0.0000          
9 0.0000 0.0000          
10 0.0000 0.0000          
11 0.0000 0.0000          
12 0.0000 0.0000          
13 0.0000 0.0000          
14 0.0000 0.0000          
15 0.0000 0.0000          
16 0.0000 0.0000          
17 0.0000 0.0000          
18 0.0000 0.0000          
19 0.0000 0.0000          
20 0.0000 0.0000          
21 0.0000 0.0000          
22 0.0000 0.0000 # c2-na-c2-c2        

BondBond Coeffs           

1 3.3872 1.5300 1.1010         
2 5.3316 1.1010 1.1010         
3 23.1979 1.4200 1.1010         
4 11.4318 1.5300 1.4200         
5 11.4318 1.5300 1.4200         
6 0.0000 1.5300 1.5300         
7 3.3872 1.5300 1.1010         
8 11.4318 1.5300 1.4200         
9 23.1979 1.4200 1.1010         
10 3.3872 1.5300 1.1010         
11 5.3316 1.1010 1.1010         
12 -7.1131 1.4200 1.4200         
13 68.2856 1.4170 1.4170         
14 48.4754 1.4170 1.3768         
15 1.0795 1.4170 1.0982         
16 12.0676 1.4170 1.5010         
17 0.0000 1.5010 1.5300         
18 0.0000 1.5010 1.5010         
19 0.0000 1.5300 1.5300         
20 3.3872 1.5300 1.1010         
21 5.3316 1.1010 1.1010         
22 0.0000 1.4200 1.3768         
23 -2.1113 1.4570 1.4570         
24 -6.4168 1.4570 1.0060         
25 4.6217 1.5300 1.4570         
26 12.4260 1.1010 1.4570         
27 3.3872 1.5300 1.1010         
28 -1.8749 1.0060 1.0060         
29 0.0000 1.5300 1.5300         
30 3.3872 1.5300 1.1010         
31 4.6217 1.5300 1.4570         
32 0.0000 1.5300 1.5300         
33 3.3872 1.5300 1.1010         
34 11.4318 1.5300 1.4200         
35 23.1979 1.4200 1.1010         
36 11.4318 1.5300 1.4200         
37 -9.6879 1.4200 0.9650         
38 23.1979 1.1010 1.4200         
39 3.3872 1.1010 1.5300         
40 11.4318 1.4200 1.5300         
41 3.3872 1.1010 1.5300         
42 4.6217 1.5300 1.4570         
43 0.0000 1.5300 1.5300         
44 11.4318 1.5300 1.4200         
45 23.1979 1.4200 1.1010         
46 -9.6879 1.4200 0.9650         
47 4.6217 1.4570 1.5300         
48 3.3872 1.1010 1.5300         
49 11.4318 1.4200 1.5300         
50 -9.6879 0.9650 1.4200         

BondAngle Coeffs           

1 20.7540 11.4210 1.5300 1.1010        
2 18.1030 18.1030 1.1010 1.1010        
3 55.3270 4.6189 1.4200 1.1010        
4 2.6868 20.4033 1.5300 1.4200        
5 2.6868 20.4033 1.5300 1.4200        
6 8.0160 8.0160 1.5300 1.5300        
7 20.7540 11.4210 1.5300 1.1010        
8 2.6868 20.4033 1.5300 1.4200        
9 55.3270 4.6189 1.4200 1.1010        
10 20.7540 11.4210 1.5300 1.1010        
11 18.1030 18.1030 1.1010 1.1010        
12 -2.8112 -2.8112 1.4200 1.4200        
13 28.8708 28.8708 1.4170 1.4170        
14 58.4790 107.6806 1.4170 1.3768        
15 20.0033 24.2183 1.4170 1.0982        
16 31.0771 47.0579 1.4170 1.5010        
17 0.0000 0.0000 1.5010 1.5300        
18 0.0000 0.0000 1.5010 1.5010        
19 8.0160 8.0160 1.5300 1.5300        
20 20.7540 11.4210 1.5300 1.1010        
21 18.1030 18.1030 1.1010 1.1010        
22 0.0000 0.0000 1.4200 1.3768        
23 -7.2229 -7.2229 1.4570 1.4570        
24 31.8096 20.5799 1.4570 1.0060        
25 6.0876 16.5702 1.5300 1.4570        
26 13.4582 42.4332 1.1010 1.4570        
27 20.7540 11.4210 1.5300 1.1010        
28 28.0322 28.0322 1.0060 1.0060        
29 8.0160 8.0160 1.5300 1.5300        
30 20.7540 11.4210 1.5300 1.1010        
31 6.0876 16.5702 1.5300 1.4570        
32 8.0160 8.0160 1.5300 1.5300        
33 20.7540 11.4210 1.5300 1.1010        
34 2.6868 20.4033 1.5300 1.4200        
35 55.3270 4.6189 1.4200 1.1010        
36 2.6868 20.4033 1.5300 1.4200        
37 28.5800 18.9277 1.4200 0.9650        
38 4.6189 55.3270 1.1010 1.4200        
39 11.4210 20.7540 1.1010 1.5300        
40 20.4033 2.6868 1.4200 1.5300        
41 11.4210 20.7540 1.1010 1.5300        
42 6.0876 16.5702 1.5300 1.4570        
43 8.0160 8.0160 1.5300 1.5300        
44 2.6868 20.4033 1.5300 1.4200        
45 55.3270 4.6189 1.4200 1.1010        
46 28.5800 18.9277 1.4200 0.9650        
47 16.5702 6.0876 1.4570 1.5300        
48 11.4210 20.7540 1.1010 1.5300        
49 20.4033 2.6868 1.4200 1.5300        
50 18.9277 28.5800 0.9650 1.4200        

AngleAngle Coeffs           

1 0.0000 0.0000 0.0000 118.9000 123.4200 123.4200      
2 0.0000 0.0000 0.0000 118.9000 117.9400 117.9400      
3 0.0000 0.0000 0.0000 118.9000 120.0500 120.0500      
4 0.0000 0.0000 0.0000 112.4436 110.9538 110.9538      
5 0.0000 0.0000 0.0000 110.9538 107.0671 110.9538      
6 0.2738 -0.4825 0.2738 110.7700 107.6600 110.7700      
7 0.1689 2.5926 3.9177 111.2700 108.7280 110.7700      
8 2.4259 2.1283 2.4259 108.7280 107.6600 108.7280      
9 -0.8330 -0.8330 -3.5744 112.6700 111.2700 111.2700      
10 0.1689 2.5926 3.9177 111.2700 108.7280 110.7700      
11 -1.3199 -1.3199 0.1184 112.6700 110.7700 110.7700      
12 0.1689 2.5926 3.9177 111.2700 108.7280 110.7700      
13 0.2738 -0.4825 0.2738 110.7700 107.6600 110.7700      
14 2.4259 2.1283 2.4259 108.7280 107.6600 108.7280      
15 0.0000 0.0000 0.0000 108.4000 112.6700 108.4000      
16 0.0000 0.0000 0.0000 111.0000 108.4000 108.4000      
17 0.2738 -0.4825 0.2738 110.7700 107.6600 110.7700      
18 -0.3157 -0.3157 -0.3157 107.6600 107.6600 107.6600      
19 2.4286 0.5381 -2.5301 110.7700 110.6204 111.9100      
20 2.4321 2.4321 -3.5496 107.6600 110.6204 110.6204      
21 0.2738 -0.4825 0.2738 110.7700 107.6600 110.7700      
22 0.0000 0.0000 0.0000 112.4436 112.4436 112.4436      

AngleAngleTorsion Coeffs           

1 -20.2006 110.7700 111.2700         
2 -16.1640 110.7700 112.6700         
3 -12.5640 110.7700 110.7700         
4 -14.0484 111.2700 111.2700         
5 -29.0420 111.2700 112.6700         
6 -20.2006 111.2700 110.7700         
7 0.0000 108.7280 102.9695         
8 0.0000 111.2700 102.9695         
9 -19.0059 111.2700 104.5000         
10 -16.4438 108.7280 104.5000         
11 -29.0420 112.6700 111.2700         
12 -16.1640 112.6700 110.7700         
13 -20.2006 111.2700 110.7700         
14 -12.5640 110.7700 110.7700         
15 0.0000 118.9000 118.9000         
16 -4.8141 118.9000 117.9400         
17 -21.0247 118.9000 123.4200         
18 4.2296 123.4200 117.9400         
19 0.0000 123.4200 102.9695         
20 0.3598 117.9400 117.9400         
21 -14.4097 118.9000 120.0500         
22 4.4444 120.0500 117.9400         
23 0.0000 120.0500 108.4000         
24 0.0000 120.0500 111.0000         
25 0.0000 108.4000 110.7700         
26 -16.1640 112.6700 110.7700         
27 -24.3818 111.9100 112.4436         
28 -12.5567 110.6204 112.4436         
29 -7.5499 111.9100 110.9538         
30 -10.4258 110.6204 110.9538         
31 -11.2307 111.9100 111.9100         
32 -15.7572 110.7700 111.9100         
33 -12.5640 110.7700 110.7700         
34 -29.0420 112.6700 111.2700         
35 -16.1640 112.6700 110.7700         
36 -14.0484 111.2700 111.2700         
37 -20.2006 111.2700 110.7700         
38 -20.2006 110.7700 111.2700         
39 -12.5640 110.7700 110.7700         
40 -16.1640 110.7700 112.6700         
41 -12.5640 110.7700 110.7700         
42 -20.2006 110.7700 111.2700         
43 -27.3953 111.9100 112.6700         
44 -15.7572 111.9100 110.7700         
45 0.0000 111.9100 111.2700         
46 -24.3818 111.9100 112.4436         
47 -7.5499 111.9100 110.9538         
48 -29.0420 111.2700 112.6700         
49 -20.2006 111.2700 110.7700         
50 -14.0484 111.2700 111.2700         
51 0.0000 111.2700 102.9695         
52 -12.1038 111.2700 105.8000         
53 -10.5093 108.7280 105.8000         
54 -20.2006 110.7700 111.2700         
55 -16.1640 110.7700 112.6700         
56 -20.2006 110.7700 111.2700         
57 -27.3953 111.9100 112.6700         
58 -15.7572 111.9100 110.7700         
59 0.0000 111.9100 111.2700         
60 -24.3818 111.9100 112.4436         
61 -29.0420 111.2700 112.6700         
62 -14.0484 111.2700 111.2700         
63 -12.1038 111.2700 105.8000         
64 -10.5093 108.7280 105.8000         
65 -12.1038 105.8000 111.2700         
66 -10.5093 105.8000 108.7280         

EndBondTorsion Coeffs           

1 0.9681 0.9551 0.0436 0.5903 0.6669 0.8584 1.1010 1.4200    
2 0.0814 0.0591 0.2219 0.2486 0.2422 -0.0925 1.1010 1.5300    
3 0.2130 0.3120 0.0777 0.2130 0.3120 0.0777 1.1010 1.1010    
4 1.0165 0.7553 -0.4609 1.0165 0.7553 -0.4609 1.4200 1.4200    
5 1.1538 0.8409 -0.9138 -0.3190 0.4411 -0.7174 1.4200 1.5300    
6 0.5903 0.6669 0.8584 0.9681 0.9551 0.0436 1.4200 1.1010    
7 0.0000 0.0000 0.0000 0.0000 0.0000 0.0000 1.1010 1.3768    
8 0.0000 0.0000 0.0000 0.0000 0.0000 0.0000 1.5300 1.3768    
9 -0.2456 1.0517 -0.7795 0.4741 1.2635 0.5576 1.5300 1.4200    
10 -0.6054 1.3339 0.9648 -0.1620 0.1564 -1.1408 1.1010 1.4200    
11 -0.3190 0.4411 -0.7174 1.1538 0.8409 -0.9138 1.5300 1.4200    
12 0.2486 0.2422 -0.0925 0.0814 0.0591 0.2219 1.5300 1.1010    
13 0.5903 0.6669 0.8584 0.9681 0.9551 0.0436 1.4200 1.1010    
14 0.2130 0.3120 0.0777 0.2130 0.3120 0.0777 1.1010 1.1010    
15 -0.1185 6.3204 0.0000 -0.1185 6.3204 0.0000 1.4170 1.4170    
16 0.0000 -6.8958 0.0000 0.0000 -0.4669 0.0000 1.4170 1.0982    
17 0.0000 0.2655 0.0000 0.0000 4.8905 0.0000 1.4170 1.3768    
18 0.0000 4.2641 0.0000 0.0000 -1.5867 0.0000 1.3768 1.0982    
19 0.0000 0.0000 0.0000 0.0000 0.0000 0.0000 1.4170 1.4200    
20 0.0000 -0.6890 0.0000 0.0000 -0.6890 0.0000 1.0982 1.0982    
21 0.0000 -0.6918 0.0000 0.0000 0.2421 0.0000 1.4170 1.5010    
22 0.0000 -1.7970 0.0000 0.0000 -0.4879 0.0000 1.5010 1.0982    
23 0.0000 0.0000 0.0000 0.0000 0.0000 0.0000 1.4170 1.5300    
24 0.0000 0.0000 0.0000 0.0000 0.0000 0.0000 1.4170 1.5010    
25 0.0000 0.0000 0.0000 0.0000 0.0000 0.0000 1.5010 1.1010    
26 0.2486 0.2422 -0.0925 0.0814 0.0591 0.2219 1.5300 1.1010    
27 0.0997 -0.0046 -0.2657 -0.0128 -0.0495 -0.1079 1.5300 1.4570    
28 -0.5892 0.7140 0.3505 0.0628 0.0873 -0.0882 1.1010 1.4570    
29 -0.9466 0.9356 -0.5542 0.0570 0.0625 0.4112 1.5300 1.0060    
30 -1.1685 0.9266 -0.0993 0.0850 0.3061 0.2104 1.1010 1.0060    
31 0.0286 0.0566 -0.0493 0.0286 0.0566 -0.0493 1.4570 1.4570    
32 0.1960 0.7056 0.1120 0.1022 0.2090 0.6433 1.1010 1.4570    
33 0.2130 0.3120 0.0777 0.2130 0.3120 0.0777 1.1010 1.1010    
34 -0.3190 0.4411 -0.7174 1.1538 0.8409 -0.9138 1.5300 1.4200    
35 0.2486 0.2422 -0.0925 0.0814 0.0591 0.2219 1.5300 1.1010    
36 1.0165 0.7553 -0.4609 1.0165 0.7553 -0.4609 1.4200 1.4200    
37 0.5903 0.6669 0.8584 0.9681 0.9551 0.0436 1.4200 1.1010    
38 0.9681 0.9551 0.0436 0.5903 0.6669 0.8584 1.1010 1.4200    
39 0.2130 0.3120 0.0777 0.2130 0.3120 0.0777 1.1010 1.1010    
40 0.0814 0.0591 0.2219 0.2486 0.2422 -0.0925 1.1010 1.5300    
41 0.2130 0.3120 0.0777 0.2130 0.3120 0.0777 1.1010 1.1010    
42 0.9681 0.9551 0.0436 0.5903 0.6669 0.8584 1.1010 1.4200    
43 0.0579 -0.0043 -0.1906 0.1032 0.5896 -0.4836 1.4570 1.5300    
44 0.1022 0.2090 0.6433 0.1960 0.7056 0.1120 1.4570 1.1010    
45 0.0000 0.0000 0.0000 0.0000 0.0000 0.0000 1.4570 1.4200    
46 0.0997 -0.0046 -0.2657 -0.0128 -0.0495 -0.1079 1.5300 1.4570    
47 -0.9466 0.9356 -0.5542 0.0570 0.0625 0.4112 1.5300 1.0060    
48 1.1538 0.8409 -0.9138 -0.3190 0.4411 -0.7174 1.4200 1.5300    
49 0.5903 0.6669 0.8584 0.9681 0.9551 0.0436 1.4200 1.1010    
50 1.0165 0.7553 -0.4609 1.0165 0.7553 -0.4609 1.4200 1.4200    
51 0.0000 0.0000 0.0000 0.0000 0.0000 0.0000 1.5300 1.3768    
52 -0.5800 0.9004 0.0000 0.0000 0.5343 0.9025 1.5300 0.9650    
53 -1.7554 1.3145 0.2263 0.2493 0.6803 0.0000 1.1010 0.9650    
54 0.9681 0.9551 0.0436 0.5903 0.6669 0.8584 1.1010 1.4200    
55 0.0814 0.0591 0.2219 0.2486 0.2422 -0.0925 1.1010 1.5300    
56 0.9681 0.9551 0.0436 0.5903 0.6669 0.8584 1.1010 1.4200    
57 0.0579 -0.0043 -0.1906 0.1032 0.5896 -0.4836 1.4570 1.5300    
58 0.1022 0.2090 0.6433 0.1960 0.7056 0.1120 1.4570 1.1010    
59 0.0000 0.0000 0.0000 0.0000 0.0000 0.0000 1.4570 1.4200    
60 0.0997 -0.0046 -0.2657 -0.0128 -0.0495 -0.1079 1.5300 1.4570    
61 1.1538 0.8409 -0.9138 -0.3190 0.4411 -0.7174 1.4200 1.5300    
62 1.0165 0.7553 -0.4609 1.0165 0.7553 -0.4609 1.4200 1.4200    
63 -0.5800 0.9004 0.0000 0.0000 0.5343 0.9025 1.5300 0.9650    
64 -1.7554 1.3145 0.2263 0.2493 0.6803 0.0000 1.1010 0.9650    
65 0.0000 0.5343 0.9025 -0.5800 0.9004 0.0000 0.9650 1.5300    
66 0.2493 0.6803 0.0000 -1.7554 1.3145 0.2263 0.9650 1.1010    

MiddleBondTorsion Coeffs           

1 -16.7975 -1.2296 -0.2750 1.5300        
2 -14.8790 -3.6581 -0.3138 1.5300        
3 -14.2610 -0.5322 -0.4864 1.5300        
4 -17.2585 -3.6157 -0.8364 1.5300        
5 -21.8842 -7.6764 -0.6868 1.5300        
6 -16.7975 -1.2296 -0.2750 1.5300        
7 0.0000 0.0000 0.0000 1.4200        
8 0.0000 0.0000 0.0000 1.4200        
9 -5.9288 -2.7007 -0.3175 1.4200        
10 -6.8007 -4.6546 -1.4101 1.4200        
11 -21.8842 -7.6764 -0.6868 1.5300        
12 -14.8790 -3.6581 -0.3138 1.5300        
13 -16.7975 -1.2296 -0.2750 1.5300        
14 -14.2610 -0.5322 -0.4864 1.5300        
15 27.5989 -2.3120 0.0000 1.4170        
16 0.0000 -1.1521 0.0000 1.4170        
17 0.0000 4.8255 0.0000 1.4170        
18 0.0000 5.5432 0.0000 1.4170        
19 0.0000 0.0000 0.0000 1.3768        
20 0.0000 4.8228 0.0000 1.4170        
21 0.0000 9.1792 0.0000 1.4170        
22 0.0000 3.9421 0.0000 1.4170        
23 0.0000 0.0000 0.0000 1.5010        
24 0.0000 0.0000 0.0000 1.5010        
25 0.0000 0.0000 0.0000 1.5300        
26 -14.8790 -3.6581 -0.3138 1.5300        
27 -8.0036 -7.7321 -3.0640 1.4570        
28 -6.4529 -6.8122 -1.1632 1.4570        
29 -2.2208 0.5479 -0.3527 1.4570        
30 -3.4611 1.6996 -0.6007 1.4570        
31 -3.3497 1.0143 -3.0062 1.5300        
32 -10.4959 -0.7647 -0.0545 1.5300        
33 -14.2610 -0.5322 -0.4864 1.5300        
34 -21.8842 -7.6764 -0.6868 1.5300        
35 -14.8790 -3.6581 -0.3138 1.5300        
36 -17.2585 -3.6157 -0.8364 1.5300        
37 -16.7975 -1.2296 -0.2750 1.5300        
38 -16.7975 -1.2296 -0.2750 1.5300        
39 -14.2610 -0.5322 -0.4864 1.5300        
40 -14.8790 -3.6581 -0.3138 1.5300        
41 -14.2610 -0.5322 -0.4864 1.5300        
42 -16.7975 -1.2296 -0.2750 1.5300        
43 -15.4174 -7.3055 -1.0749 1.5300        
44 -10.4959 -0.7647 -0.0545 1.5300        
45 0.0000 0.0000 0.0000 1.5300        
46 -8.0036 -7.7321 -3.0640 1.4570        
47 -2.2208 0.5479 -0.3527 1.4570        
48 -21.8842 -7.6764 -0.6868 1.5300        
49 -16.7975 -1.2296 -0.2750 1.5300        
50 -17.2585 -3.6157 -0.8364 1.5300        
51 0.0000 0.0000 0.0000 1.4200        
52 1.2472 0.0000 0.7485 1.4200        
53 0.0000 0.9241 -0.5889 1.4200        
54 -16.7975 -1.2296 -0.2750 1.5300        
55 -14.8790 -3.6581 -0.3138 1.5300        
56 -16.7975 -1.2296 -0.2750 1.5300        
57 -15.4174 -7.3055 -1.0749 1.5300        
58 -10.4959 -0.7647 -0.0545 1.5300        
59 0.0000 0.0000 0.0000 1.5300        
60 -8.0036 -7.7321 -3.0640 1.4570        
61 -21.8842 -7.6764 -0.6868 1.5300        
62 -17.2585 -3.6157 -0.8364 1.5300        
63 1.2472 0.0000 0.7485 1.4200        
64 0.0000 0.9241 -0.5889 1.4200        
65 1.2472 0.0000 0.7485 1.4200        
66 0.0000 0.9241 -0.5889 1.4200        

BondBond13 Coeffs           

1 0.0000 1.1010 1.4200         
2 0.0000 1.1010 1.5300         
3 0.0000 1.1010 1.1010         
4 0.0000 1.4200 1.4200         
5 0.0000 1.4200 1.5300         
6 0.0000 1.4200 1.1010         
7 0.0000 1.1010 1.3768         
8 0.0000 1.5300 1.3768         
9 0.0000 1.5300 1.4200         
10 0.0000 1.1010 1.4200         
11 0.0000 1.5300 1.4200         
12 0.0000 1.5300 1.1010         
13 0.0000 1.4200 1.1010         
14 0.0000 1.1010 1.1010         
15 53.0000 1.4170 1.4170         
16 -6.2741 1.4170 1.0982         
17 -2.2436 1.4170 1.3768         
18 2.0517 1.3768 1.0982         
19 0.0000 1.4170 1.4200         
20 -1.7077 1.0982 1.0982         
21 2.5085 1.4170 1.5010         
22 0.8743 1.5010 1.0982         
23 0.0000 1.4170 1.5300         
24 0.0000 1.4170 1.5010         
25 0.0000 1.5010 1.1010         
26 0.0000 1.5300 1.1010         
27 0.0000 1.5300 1.4570         
28 0.0000 1.1010 1.4570         
29 0.0000 1.5300 1.0060         
30 0.0000 1.1010 1.0060         
31 0.0000 1.4570 1.4570         
32 0.0000 1.1010 1.4570         
33 0.0000 1.1010 1.1010         
34 0.0000 1.5300 1.4200         
35 0.0000 1.5300 1.1010         
36 0.0000 1.4200 1.4200         
37 0.0000 1.4200 1.1010         
38 0.0000 1.1010 1.4200         
39 0.0000 1.1010 1.1010         
40 0.0000 1.1010 1.5300         
41 0.0000 1.1010 1.1010         
42 0.0000 1.1010 1.4200         
43 0.0000 1.4570 1.5300         
44 0.0000 1.4570 1.1010         
45 0.0000 1.4570 1.4200         
46 0.0000 1.5300 1.4570         
47 0.0000 1.5300 1.0060         
48 0.0000 1.4200 1.5300         
49 0.0000 1.4200 1.1010         
50 0.0000 1.4200 1.4200         
51 0.0000 1.5300 1.3768         
52 0.0000 1.5300 0.9650         
53 0.0000 1.1010 0.9650         
54 0.0000 1.1010 1.4200         
55 0.0000 1.1010 1.5300         
56 0.0000 1.1010 1.4200         
57 0.0000 1.4570 1.5300         
58 0.0000 1.4570 1.1010         
59 0.0000 1.4570 1.4200         
60 0.0000 1.5300 1.4570         
61 0.0000 1.4200 1.5300         
62 0.0000 1.4200 1.4200         
63 0.0000 1.5300 0.9650         
64 0.0000 1.1010 0.9650         
65 0.0000 0.9650 1.5300         
66 0.0000 0.9650 1.1010         

AngleTorsion Coeffs           

1 2.3668 2.4920 -1.0122 -0.1892 0.4918 0.7273 110.7700 111.2700    
2 0.3113 0.4516 -0.1988 -0.2454 0.0000 -0.1136 110.7700 112.6700    
3 -0.8085 0.5569 -0.2466 -0.8085 0.5569 -0.2466 110.7700 110.7700    
4 0.5511 0.9737 -0.6673 0.5511 0.9737 -0.6673 111.2700 111.2700    
5 0.9672 -0.7566 -1.2331 0.5623 -0.3041 -0.4015 111.2700 112.6700    
6 -0.1892 0.4918 0.7273 2.3668 2.4920 -1.0122 111.2700 110.7700    
7 0.0000 0.0000 0.0000 0.0000 0.0000 0.0000 108.7280 102.9695    
8 0.0000 0.0000 0.0000 0.0000 0.0000 0.0000 111.2700 102.9695    
9 -2.7466 1.4877 -0.8955 0.5676 0.9450 0.0703 111.2700 104.5000    
10 -1.8234 1.6393 0.5144 -0.7777 0.4340 -0.6653 108.7280 104.5000    
11 0.5623 -0.3041 -0.4015 0.9672 -0.7566 -1.2331 112.6700 111.2700    
12 -0.2454 0.0000 -0.1136 0.3113 0.4516 -0.1988 112.6700 110.7700    
13 -0.1892 0.4918 0.7273 2.3668 2.4920 -1.0122 111.2700 110.7700    
14 -0.8085 0.5569 -0.2466 -0.8085 0.5569 -0.2466 110.7700 110.7700    
15 1.9767 1.0239 0.0000 1.9767 1.0239 0.0000 118.9000 118.9000    
16 0.0000 2.5014 0.0000 0.0000 2.7147 0.0000 118.9000 117.9400    
17 0.0000 10.0155 0.0000 0.0000 1.7404 0.0000 118.9000 123.4200    
18 0.0000 2.5706 0.0000 0.0000 1.8729 0.0000 123.4200 117.9400    
19 0.0000 0.0000 0.0000 0.0000 0.0000 0.0000 123.4200 102.9695    
20 0.0000 2.4501 0.0000 0.0000 2.4501 0.0000 117.9400 117.9400    
21 0.0000 3.8987 0.0000 0.0000 -4.4683 0.0000 118.9000 120.0500    
22 0.0000 -0.1242 0.0000 0.0000 3.4601 0.0000 120.0500 117.9400    
23 0.0000 0.0000 0.0000 0.0000 0.0000 0.0000 120.0500 108.4000    
24 0.0000 0.0000 0.0000 0.0000 0.0000 0.0000 120.0500 111.0000    
25 0.0000 0.0000 0.0000 0.0000 0.0000 0.0000 108.4000 110.7700    
26 -0.2454 0.0000 -0.1136 0.3113 0.4516 -0.1988 112.6700 110.7700    
27 -2.7883 1.5193 1.4796 1.2031 1.3645 -0.7071 111.9100 112.4436    
28 -2.6321 0.9353 -0.8398 -1.3582 0.1465 -0.5729 110.6204 112.4436    
29 -3.3430 4.4558 -0.0346 0.2873 -0.8072 -0.0960 111.9100 110.9538    
30 -3.9582 2.0063 0.3213 -0.4294 -0.4442 -0.6141 110.6204 110.9538    
31 1.3673 0.4528 -2.7700 1.3673 0.4528 -2.7700 111.9100 111.9100    
32 0.5111 1.6328 -1.0155 -1.1075 0.2820 0.8318 110.7700 111.9100    
33 -0.8085 0.5569 -0.2466 -0.8085 0.5569 -0.2466 110.7700 110.7700    
34 0.5623 -0.3041 -0.4015 0.9672 -0.7566 -1.2331 112.6700 111.2700    
35 -0.2454 0.0000 -0.1136 0.3113 0.4516 -0.1988 112.6700 110.7700    
36 0.5511 0.9737 -0.6673 0.5511 0.9737 -0.6673 111.2700 111.2700    
37 -0.1892 0.4918 0.7273 2.3668 2.4920 -1.0122 111.2700 110.7700    
38 2.3668 2.4920 -1.0122 -0.1892 0.4918 0.7273 110.7700 111.2700    
39 -0.8085 0.5569 -0.2466 -0.8085 0.5569 -0.2466 110.7700 110.7700    
40 0.3113 0.4516 -0.1988 -0.2454 0.0000 -0.1136 110.7700 112.6700    
41 -0.8085 0.5569 -0.2466 -0.8085 0.5569 -0.2466 110.7700 110.7700    
42 2.3668 2.4920 -1.0122 -0.1892 0.4918 0.7273 110.7700 111.2700    
43 2.0125 0.9440 -2.7612 -1.9225 -1.3450 0.2210 111.9100 112.6700    
44 -1.1075 0.2820 0.8318 0.5111 1.6328 -1.0155 111.9100 110.7700    
45 0.0000 0.0000 0.0000 0.0000 0.0000 0.0000 111.9100 111.2700    
46 -2.7883 1.5193 1.4796 1.2031 1.3645 -0.7071 111.9100 112.4436    