LAMMPS data file via write_data, version 5 May 2020, timestep = 0

64 atoms
8 atom types

0.0000000000000000e+00 1.0862000000000000e+01 xlo xhi
0.0000000000000000e+00 1.0862000000000000e+01 ylo yhi
0.0000000000000000e+00 1.0862000000000000e+01 zlo zhi

Masses

1 28.06
2 28.06
3 28.06
4 28.06
5 28.06
6 28.06
7 28.06
8 28.06

Pair Coeffs # zero

1
2
3
4
5
6
7
8

Atoms # atomic

1 1 1.0821582679234250e+01 1.0768089890052606e+01 5.2782114154092112e-02 -1 -1 0
2 2 1.2644623589070805e-01 2.6973866151300663e+00 2.6838404910230733e+00 0 0 0
3 3 2.6886015615971299e+00 1.0779945762964871e+01 2.8299381505970089e+00 0 -1 0
4 4 2.8329007005604918e+00 2.6690743201866627e+00 1.2359937723893642e-01 0 0 0
5 5 1.5213921972716424e+00 1.2921595444932625e+00 1.3789642982618950e+00 0 0 0
6 6 1.4860425041058531e+00 3.8853665070739183e+00 3.9153843913498028e+00 0 0 0
7 7 4.1419871594220101e+00 1.4231884057342254e+00 3.8965351751257127e+00 0 0 0
8 8 4.0916002382684269e+00 4.0857045774480580e+00 1.4818331695143521e+00 0 0 0
9 1 5.4332483929070872e+00 1.8873958941024710e-01 1.4627921802284161e-01 0 0 0
10 2 5.4368414340977749e+00 2.8924828813043342e+00 2.8667860819470539e+00 0 0 0
11 3 8.1119493800203539e+00 1.0773000209952240e-01 2.5336452866728161e+00 0 0 0
12 4 8.2955426243976884e+00 2.8748882519562673e+00 3.8350628986186623e-02 0 0 0
13 5 6.7320798601505025e+00 1.3027095494870840e+00 1.4928982294197886e+00 0 0 0
14 6 6.8742317689794499e+00 3.9653412376102484e+00 4.0506805154464347e+00 0 0 0
15 7 9.6779045786138891e+00 1.1702527636124300e+00 4.0071980341104547e+00 0 0 0
16 8 9.4540589455765716e+00 4.1121983054349887e+00 1.1619194458593471e+00 0 0 0
17 1 1.0803705461284940e+01 5.2746878159845654e+00 6.1123252595366578e-02 -1 0 0
18 2 1.4726683047938480e-01 8.0601198670201093e+00 2.5246050069821555e+00 0 0 0
19 3 2.7558004708887545e+00 5.5610142272980951e+00 2.6646181990826121e+00 0 0 0
20 4 2.9144739608014811e+00 8.3018591904953851e+00 1.0783914655958263e+01 0 0 -1
21 5 1.2910071356246513e+00 6.6414284435159896e+00 1.3243501732305625e+00 0 0 0
22 6 1.4393274075135483e+00 9.3757380802070216e+00 4.1734140393865129e+00 0 0 0
23 7 3.8748234996653967e+00 6.6345588763271506e+00 4.1830344304096814e+00 0 0 0
24 8 4.0077815606028455e+00 9.5761890520229667e+00 1.2373973499758391e+00 0 0 0
25 1 5.3669071758277278e+00 5.4229041366278681e+00 1.0794824304575485e+01 0 0 -1
26 2 5.4196958007648099e+00 8.1568234541650497e+00 2.6217941520038499e+00 0 0 0
27 3 8.1026284023132771e+00 5.2810576792517949e+00 2.6349151849110681e+00 0 0 0
28 4 8.1262346520143254e+00 7.9467964047716446e+00 1.0843674997034331e+01 0 0 -1
29 5 6.9361807905637809e+00 6.6580470054546828e+00 1.4325206768451122e+00 0 0 0
30 6 6.9233840741657815e+00 9.4991345042823276e+00 4.0971134730800349e+00 0 0 0
31 7 9.6892812976096909e+00 6.6097689260640271e+00 3.9383403581013390e+00 0 0 0
32 8 9.6562735184356683e+00 9.3635243482716728e+00 1.3817214020043478e+00 0 0 0
33 1 1.0700092384318864e+01 1.8703247149802406e-02 5.3764748467288328e+00 -1 0 0
34 2 1.0698092821152924e+01 2.7275451171938538e+00 8.1887846771042252e+00 -1 0 0
35 3 2.5595904516932046e+00 2.8221607687054950e-02 8.0670603963325540e+00 0 0 0
36 4 2.8214419517898661e+00 2.8818837322808726e+00 5.4423884446264195e+00 0 0 0
37 5 1.3722461913183779e+00 1.3952374879780634e+00 6.8409604473096373e+00 0 0 0
38 6 1.4876249878676027e+00 4.0821710907970186e+00 9.4410230254944292e+00 0 0 0
39 7 3.9110806914297074e+00 1.3781808590946862e+00 9.6856988043922243e+00 0 0 0
40 8 3.9440249581294013e+00 4.1879712808554626e+00 6.9093173377591039e+00 0 0 0
41 1 5.5141663269005559e+00 1.7645621764308600e-01 5.5306499273458725e+00 0 0 0
42 2 5.5985780491752450e+00 2.7997724883389998e+00 8.1142115135675805e+00 0 0 0
43 3 8.0688992871690530e+00 1.6481945028752995e-01 8.2670009825157464e+00 0 0 0
44 4 8.0871061461850093e+00 2.8829989314598494e+00 5.3855410456855504e+00 0 0 0
45 5 6.9864811057959368e+00 1.4244451123004291e+00 6.9335024333115447e+00 0 0 0
46 6 6.7189272164787059e+00 4.1617273576112819e+00 9.3431993728237934e+00 0 0 0
47 7 9.3396936544866520e+00 1.2592509571339474e+00 9.6308365502537168e+00 0 0 0
48 8 9.3844506274835222e+00 4.2051961155365900e+00 6.8071138234708295e+00 0 0 0
49 1 1.7248042280435583e-01 5.5094660728082365e+00 5.4102856880367201e+00 0 0 0
50 2 3.7450733705167986e-02 7.9809813827585803e+00 8.2751000234673722e+00 0 0 0
51 3 2.7655331604154934e+00 5.5383271031991237e+00 7.9931234676757006e+00 0 0 0
52 4 2.5155467702746610e+00 8.3325680062258929e+00 5.4759806385883039e+00 0 0 0
53 5 1.1807952451962258e+00 6.7101860129653650e+00 6.7638199088792641e+00 0 0 0
54 6 1.1959471910773762e+00 9.6844404374641329e+00 9.5649324596695067e+00 0 0 0
55 7 4.1090326500366361e+00 6.9877491657431232e+00 9.6832286446741698e+00 0 0 0
56 8 4.0458419253065214e+00 9.6567386267038486e+00 6.8650990115647899e+00 0 0 0
57 1 5.4797685959081948e+00 5.4847914290343374e+00 5.5035477801042365e+00 0 0 0
58 2 5.2795203845652381e+00 8.2286033879565554e+00 8.0581413858307709e+00 0 0 0
59 3 8.0498475764577027e+00 5.3937175246191762e+00 8.3399362744881937e+00 0 0 0
60 4 8.3304289868175641e+00 8.2409814428195727e+00 5.3806094685744537e+00 0 0 0
61 5 6.9330690971130133e+00 6.7598151784069209e+00 6.8812034851184363e+00 0 0 0
62 6 6.9458643451878403e+00 9.3250495720304549e+00 9.6826571158517201e+00 0 0 0
63 7 9.3283809458502258e+00 6.9575569047261068e+00 9.4418977316662893e+00 0 0 0
64 8 9.4282304328065276e+00 9.4433841793067455e+00 6.6169016084578596e+00 0 0 0

Velocities

1 -7.6695811444905315e-01 8.8776500375415912e-01 -4.6748679865524317e-01
2 -4.2174334498042004e-01 2.6596349461961127e-01 -1.1334804338647457e+00
3 3.1092663150899669e+00 -3.2607896569135373e+00 -4.5472992935642453e-01
4 -1.0033967676892164e+00 -4.0701495139485546e+00 3.0519108521711837e+00
5 2.1876978647560312e+00 -1.8528542484907762e+00 5.5868611584263783e-01
6 -5.8915345282488856e+00 -1.2670766284310366e+00 -1.4548236578657073e-01
7 -7.4671607451840827e-01 -2.3224748454458921e+00 2.9040191974877243e+00
8 8.8344717384787486e-01 2.1131388234004187e+00 -2.6319923612777498e+00
9 -1.4945940737308610e+00 2.4036759792415352e+00 2.9873898113274451e+00
10 -2.3062527275180000e-02 6.3069649849804210e-01 -4.6199114681815372e+00
11 3.8719801571165269e-01 -2.6757201256087666e+00 -2.8351493398548979e+00
12 3.1622414879535530e+00 1.1788951785955282e-01 -1.6811026088924106e+00
13 -4.9777200700829107e+00 1.0067220620999075e-01 -1.1749631996478570e-01
14 1.6098573779552736e+00 -1.4257777445753939e+00 9.3729752744584949e-01
15 -1.9671428383911080e-01 -1.1467725283686230e+00 -7.1090487650568090e-01
16 2.4293095169865944e+00 -2.2853507053089284e+00 3.6552591604907518e+00
17 2.1486682069514684e-01 6.5398679889262946e-03 -7.8674906209013318e-01
18 -5.9695750825985816e-01 -3.8903164843963536e+00 7.0106707544958913e-01
19 1.8513305622305032e+00 2.7457421924307135e+00 -2.6843196517815027e-01
20 4.6472920038025278e-02 3.3363247063995392e+00 -7.5654131995610463e-01
21 2.0461345318527768e+00 6.5187960424485167e+00 2.2781592760522332e-01
22 -3.2896669679401891e-01 -4.6935568644796639e+00 2.6343294291762615e-01
23 -2.0431037382403300e-01 -1.1908279321425959e+00 -2.1024589473753172e+00
24 -6.1675703823018013e+00 3.7268908602022122e+00 2.2946207883205223e+00
25 9.8131185739798532e-01 1.0773612880108889e-01 1.7659001559413789e+00
26 2.5123700267960087e+00 -9.7029098941340775e-01 -3.7611190518657027e+00
27 -2.8065233782242118e+00 2.7735023884863090e+00 -5.7440441416815013e-01
28 -2.8351435666922815e+00 -2.4736491871242201e+00 -2.7770228999188280e+00
29 -6.1233333948487512e-01 -1.4612515482031314e+00 -2.1246997373192005e+00
30 -1.6587500360685015e+00 1.2439126820981170e+00 4.6333319512528819e+00
31 -1.6739126871847136e+00 -4.0135139175283019e+00 2.4388454178990426e+00
32 -1.1634332347436640e+00 -7.7629078403429219e-01 1.2067789175483656e+00
33 2.8857524470408986e+00 -1.7030276362003458e+00 -2.0845880086526334e+00
34 3.6831626165197040e+00 -3.5993774010234549e-02 -8.0961124509532045e-01
35 -2.8770388338755111e+00 3.9112196797609061e-01 -2.6842134469568530e+00
36 2.3476192919341012e+00 -1.4869539504293825e+00 2.6805229608818411e+00
37 -1.9857985903088504e+00 3.6532965667626152e+00 7.6783019003634334e-01
38 -8.6498749460025504e-05 -1.2786473611543103e+00 -2.5574004902042100e+00
39 3.2183147762059252e+00 2.1412145724457892e+00 -1.3379757716793121e+00
40 -3.3194222393529000e+00 8.6217442393646981e-01 -9.7775722554209368e-02
41 -2.4363036081885721e+00 -2.5050089095178842e+00 -1.7152684549177144e+00
42 -1.8123025300125442e+00 4.1040607170758863e+00 1.8113434768789887e+00
43 8.2116299357978972e-01 -1.4091949665194181e+00 1.5546533259848685e+00
44 -1.5106466229056412e+00 -3.7176405569288479e-01 2.9687407194461857e+00
45 2.0036640890479163e+00 3.4558719013661352e+00 2.4761488653104236e+00
46 1.1557532358053453e-05 6.8233360706012713e-02 -8.1988351060085085e-01
47 2.0610372874209806e+00 2.9250619947397714e+00 -4.6246198532284426e+00
48 3.7769045376898491e+00 -6.2124369701718694e+00 6.5274567582735055e-01
49 4.6074991208714851e+00 8.2503257645594730e-01 8.5565348020904775e-01
50 8.5045797019446467e-01 1.5642419476572114e+00 3.4414259937041352e+00
51 3.0951672150001852e+00 6.4364948036249203e-01 -2.5200572359688507e+00
52 -3.4329134343428513e-01 -3.5864072102511093e+00 -1.3092330149470974e+00
53 -4.3836593017980983e+00 -3.3032188251492345e-01 -4.2201800726103427e+00
54 1.0067907201962536e+00 3.3833856103070516e+00 -4.2244492140600592e-01
55 1.3872579123070348e+00 8.7826766277411539e-01 -9.4887528280134281e-01
56 6.9357081915378493e-01 3.8110270186753179e+00 1.4629354931293179e-01
57 6.6962746178223931e-01 6.6943282268523383e+00 9.9362589535207779e-01
58 -1.7296381154890770e+00 -5.5052794989092768e-01 2.7151993562471821e+00
59 1.1683811118902456e+00 -5.6097747254105945e+00 -1.3465121907588353e+00
60 4.2289642990542493e+00 -5.3831728480380980e-01 3.0410178504652357e+00
61 8.1393552020156468e-01 -8.8749030091659420e-01 2.4504472860529236e+00
62 -2.4947166250287984e+00 2.8424666276480779e+00 1.1665977930274425e+00
63 -8.7979164195267434e-01 2.3389132899677176e+00 3.8359678050967816e-01
64 -3.3977492794459896e+00 -1.2790636562498856e+00 -2.8439591835333616e-01
