LAMMPS data file via write_data, version 5 May 2020, timestep = 100

48 atoms
2 atom types

-2.4861156578082535e+00 8.9861156578082539e+00 xlo xhi
-2.4819903352214698e+00 8.9819903352214627e+00 ylo yhi
-4.3054203125591495e-02 5.1588542031255695e+00 zlo zhi

Masses

1 12.01
2 1.00794

Atoms # atomic

1 1 -2.4341520800875485e-01 -1.7599524940425884e-01 1.7253026363065874e-02 0 0 0
2 2 6.2959178506621150e-01 -8.1199640633841275e-01 5.0650728892557169e+00 0 0 -1
3 2 -1.1121054450754664e+00 -8.3279707540106163e-01 7.2096452612715661e-02 0 0 0
4 1 -7.5984840129235773e-02 5.7591620256483522e-01 1.3343679301805187e+00 0 0 0
5 2 8.5789395758423881e-01 1.1360995499761726e+00 1.3392878065261780e+00 0 0 0
6 2 -8.9514139407768334e-01 1.2810979866887890e+00 1.4672917222565367e+00 0 0 0
7 1 -7.8922730413067493e-02 -4.7479369963754220e-01 2.5185123359600543e+00 0 0 0
8 2 6.9190595505201324e-01 -1.2323705910769223e+00 2.4967645244437549e+00 0 0 0
9 2 -1.0542989182028326e+00 -8.6670850317437531e-01 2.7742498749957547e+00 0 0 0
10 1 -3.9293923764317451e-01 7.9768136737711803e-01 4.0780146018561370e+00 0 0 0
11 2 2.6489159244845972e-01 6.3268071552307958e-01 3.1065632452221319e+00 0 0 0
12 2 -1.1276632977587033e+00 1.6002955633500584e+00 4.0362106311025991e+00 0 0 0
25 1 2.8193998846172103e-01 4.9716388907291211e+00 1.2606338151319968e-01 0 0 0
26 2 6.3688650225373622e-01 3.9416691414211957e+00 8.4663335521264788e-02 0 0 0
27 2 -2.0208077533780515e+00 2.5949325118859128e+00 5.0202232238943560e+00 0 0 -1
28 1 -7.4168338315013638e-01 5.2218024150822453e+00 1.2248307190256451e+00 0 0 0
29 2 -4.8179493715117638e-01 6.1236479529318952e+00 1.7794910195025608e+00 0 0 0
30 2 -1.7176232502059992e+00 5.3891340038772491e+00 7.6757849370604592e-01 0 0 0
31 1 -8.2930357027190393e-01 4.0508256977629209e+00 2.1889173835557001e+00 0 0 0
32 2 6.0059642714797988e-02 3.5652543084424897e+00 2.5883670569486474e+00 0 0 0
33 2 -1.7771933013123182e+00 3.7284700023378750e+00 2.6194240236976913e+00 0 0 0
34 1 7.0934043141810477e-01 5.8634734699961584e+00 4.4708075530959954e+00 0 0 0
35 2 1.4298800972607446e+00 5.6733729534659272e+00 3.6739058245879264e+00 0 0 0
36 2 3.8569508794682422e-01 6.9038536556618695e+00 4.4511164881858134e+00 0 0 0
13 1 5.3833228071964809e+00 -7.9766421392727882e-01 4.9067271264856016e+00 0 0 -1
14 2 6.1381564762115239e+00 -7.8202480607143987e-01 4.9424348568586329e-01 0 0 0
15 2 4.9519600117886347e+00 -1.7940020475946012e+00 4.8110945764576156e+00 0 0 -1
16 1 4.2645777622126220e+00 1.3426567813575572e+00 1.9093414401493067e+00 0 0 0
17 2 5.2992823900063506e+00 1.6374691057747635e+00 1.7460953493055651e+00 0 0 0
18 2 3.5099850408886284e+00 1.8099079050100266e+00 1.2774250930764246e+00 0 0 0
19 1 3.8688841475335543e+00 2.3194408557219204e-01 2.9625536035071800e+00 0 0 0
20 2 4.4341357385042519e+00 -7.1331393747926441e-01 2.5617272090593692e+00 0 0 0
21 2 2.8376541614717623e+00 -2.2192921113968814e-01 2.5457530111814437e+00 0 0 0
22 1 5.0378949110324136e+00 2.3252709541752614e-01 4.1826607654379533e+00 0 0 0
23 2 5.4732646659003770e+00 1.2253893824970703e+00 4.3037885157885949e+00 0 0 0
24 2 3.2481280364389118e+00 8.2567333665575415e-01 3.7760702420134979e+00 0 0 0
37 1 4.1662535153421656e+00 4.5773898294151056e+00 -1.0050993206243145e-02 0 0 0
38 2 4.9392137394956936e+00 3.8125893258627546e+00 5.2693482707363397e-02 0 0 0
39 2 3.1995812686514005e+00 4.0802938177597321e+00 5.1370804386657056e+00 0 0 -1
40 1 4.2110798207275053e+00 5.4794783309775354e+00 1.2640511411782265e+00 0 0 0
41 2 5.1714048300399131e+00 5.9965367483183840e+00 1.2752754545998148e+00 0 0 0
42 2 3.4278850616533649e+00 6.2349719582368124e+00 1.1809837259994789e+00 0 0 0
43 1 4.0344354881156264e+00 4.7341737056781810e+00 2.5920156833691146e+00 0 0 0
44 2 5.9018244698732047e+00 2.9062392498170997e+00 2.6599377379111933e+00 0 0 0
45 2 3.3647742541156997e+00 3.8770609870643540e+00 2.6263801261664406e+00 0 0 0
46 1 4.3864129291324065e+00 5.4385557345189968e+00 3.9068248851528278e+00 0 0 0
47 2 5.4322503572891048e+00 5.7470767535646932e+00 3.8793919420623091e+00 0 0 0
48 2 3.7782712922559569e+00 6.3393431995123084e+00 3.9888830689083061e+00 0 0 0

Velocities

1 -1.0894444084053871e+00 1.2179758936956877e+00 1.1079806495668135e-01
2 1.6877845887054355e+00 1.3056535723402372e+00 2.6561381291171191e+00
3 -3.1125663897940310e+00 1.6529463325047355e+00 -4.0034715419532665e+00
4 -1.1557050859943641e+00 -1.1836562561048363e+00 -1.2552320014721685e+00
5 3.9983598869475645e+00 1.0340503455549954e+00 2.8100380170215185e+00
6 5.1092451702327493e+00 -3.9141586462940986e-01 6.2633396565144273e-01
7 1.0307982395927142e+00 -1.2606300928185629e-01 -2.8206938844989836e-02
8 -6.1963844586525672e-02 1.5367728661944744e+00 -1.6165066090802973e+00
9 5.9246559865739123e-01 1.7618681246069584e-01 -1.7712296302906054e+00
10 2.2580329076027261e-02 -1.1064033888047093e+00 -8.4543250413064619e-01
11 2.7527292315030985e+00 -8.4549696409899500e-01 -1.6649408346851993e+00
12 2.2551594965037169e-01 4.0427187315766098e+00 -4.6646230929080152e+00
25 -3.4216979727798102e-01 2.6515660067898694e-01 -4.1153207161407163e-01
26 4.8780948317346393e+00 3.3594615440046387e+00 -1.7251088924872291e+00
27 3.4230423525981633e+00 5.7326721971736438e-01 4.1159603478846511e+00
28 -1.2430127296124194e+00 8.4712600153098727e-01 -1.4444463305442226e-02
29 -4.7244436356582273e+00 4.8891316822495341e+00 -2.3254053488248032e+00
30 -4.7413901140247372e+00 5.3815030555326331e+00 -1.0828996770519246e+00
31 -6.2008075007494567e-01 9.1617269551362390e-01 2.3142026319364109e-01
32 4.2266796565992841e+00 2.5453270169936268e+00 -4.8321190043502371e-01
33 -4.6135662901311782e+00 -1.9728957639302671e+00 -3.0374188716470223e+00
34 4.0114701075701914e-01 1.4151504196514619e-01 1.4817950597700830e-01
35 4.1358822022551971e+00 -1.8243773216029848e+00 -7.2472363609030288e-01
36 4.6340930144944625e+00 2.4576344600576472e+00 5.0626747539766868e+00
13 1.8278069366103494e-01 5.2342341602105624e-01 -6.0423794796060226e-01
14 4.9390070605030276e+00 2.1021116363725221e+00 2.0486606910290217e-01
15 -4.9993254261382736e-01 -4.6980992366373302e+00 2.8677140594068162e+00
16 7.8343591908967891e-01 -3.3780594158195848e-01 1.4671535586247206e+00
17 -1.8418238503512363e+00 2.9037305513734619e+00 -4.4823250896128389e-02
18 -1.8876740682082613e+00 3.6977793758646254e+00 -7.1976453348094083e-01
19 1.1160256125335217e+00 -3.8469582576856409e-01 1.3566081850646794e-01
20 -3.5794369426869292e+00 -4.2485734281342564e+00 2.5679481394581951e+00
21 4.6400734263468575e+00 -2.7006328994236486e+00 2.5920610885986042e+00
22 -5.2238413509963677e-01 -9.9964685063253012e-01 -4.9342929458022622e-01
23 -1.8036726500469569e+00 -4.8244704690808271e-01 2.8954691667568189e+00
24 3.8243074390853242e+00 2.8226264709240891e+00 -4.5665850315188749e-03
37 1.0560596585528772e+00 -1.0741413123517354e+00 -4.6177958544062769e-01
38 -4.3048610332410373e+00 -2.0121669185838891e+00 2.6598958497710523e+00
39 -3.3591849767473567e+00 -9.6050957527058711e-01 -9.0169345872103590e-01
40 1.9193383706614244e-02 1.3336541742820790e-01 9.3466008986781524e-01
41 3.4751244640977843e+00 -1.1523945163243521e+00 -2.9448921878292245e+00
42 2.7087738982055294e+00 9.4561842351091427e-02 8.1539452331144333e-02
43 -4.8968596347171067e-01 5.9091455453317410e-01 1.0488500207673568e+00
44 2.6912081704725952e+00 7.4631405042237164e-01 -4.0069184028303733e+00
45 1.0744157293309868e+00 -4.6574530734219959e+00 -8.5404163785692366e-01
46 -6.2272628902830041e-01 -6.8959866091615207e-01 2.0230104819190772e-01
47 -4.9707138179571322e+00 -2.4357921349417890e+00 5.0196115666859775e+00
48 -1.9619565986884380e+00 2.1496720750712592e+00 -3.5468158775431577e+00
