LAMMPS data file via write_data, version 21 Jul 2020, timestep = 5000

27 atoms
2 atom types

-0.2436910920596036 13.743691092059596 xlo xhi
-0.2436910920596036 13.743691092059596 ylo yhi
-0.2436910920596036 13.743691092059596 zlo zhi

Masses

1 9
2 1

Atoms # atomic

21 1 8.218284363111994 3.8616496369708644 3.926644621675435 0 0 1
14 2 3.971804908882051 12.196374430867266 11.800922980362827 1 -1 2
4 2 12.749633950530594 0.2895775102974337 13.665118030342807 1 0 -4
6 2 10.48479135210438 0.7314009568199128 0.20579559916130968 0 0 -1
11 2 6.370393143436297 0.7506711988180665 11.228922122628624 -1 1 0
16 2 1.781613249220567 9.315352564201742 13.003045928765761 1 -1 -1
15 2 2.5907208520939946 7.092392808241224 9.564419981414446 -2 0 -1
10 2 2.06473035593474 10.936583460926354 0.2143993310674837 1 -2 2
17 2 10.89572436719935 1.4615862891785334 5.9966656418333475 -3 -2 0
12 2 8.989180695332816 13.155343018320753 7.380136516456334 3 -2 -1
23 2 9.679726091492721 5.587125576488552 0.5505405659916122 0 1 -1
26 2 10.150200745369286 13.451068779020826 13.1305422632724 0 0 -2
27 2 0.5854518735680864 3.3706426419449973 13.20338885987352 3 3 -4
2 2 12.401535589626157 4.499183730038622 8.453939258351905 0 -2 0
9 1 11.284839488845652 10.602811415241838 12.294336783300636 0 0 -1
7 2 3.67365214779975 0.6031426192504774 3.744838163244472 -1 0 -3
25 2 0.580286149741973 6.5570299426679615 8.204514419385035 2 -1 1
5 2 0.4370415403230168 12.62671878288036 10.900794906743482 -3 1 -2
20 2 0.5960686789505689 -0.03029382390167784 6.650651587937794 1 -1 -2
3 2 2.4025882097830804 3.537273393359948 6.539574857512142 -1 1 -1
8 2 0.2515454304433808 3.209093417679412 6.394794043739663 1 1 0
24 2 0.8855320855058237 10.07143392738017 2.6866421503905222 0 0 0
22 2 1.1569993715184617 9.633923152653242 12.34752906065215 -2 0 2
1 1 11.516625939770336 4.289372112043943 11.847412277845446 -1 -1 -1
13 2 3.4573289217000625 10.709357504995712 0.2070680620433607 -3 1 2
18 2 8.388010639142333 4.8343459387085295 0.022914514686456666 0 2 2
19 2 0.8904095150489832 6.178968410953466 12.739150191807628 -2 -2 1

Velocities

21 0.5108629151801364 0.5071783225038178 0.038121513505701005
14 0.04442371287433498 -0.9592694013198345 1.2892900869531516
4 -0.2178346847645286 0.6098857389317441 -0.11034167964068448
6 -0.1576695048262709 -1.2130499080058224 -1.532174167207837
11 2.8099374837612547 -0.04484558137222933 -2.949735057364872
16 -2.514269472184712 0.8600214136555172 -1.334072825855178
15 -1.9716757999689132 0.34144027670649985 -1.289546613298351
10 1.593221282752536 -1.4854596141900234 -0.5931052285995597
17 0.30576221579017154 -1.7264461829362503 0.9151292837107401
12 1.856996336103833 1.2171769820936116 0.7446116107611583
23 0.6826664104612703 -1.2226601048696837 -0.575337461330738
26 2.060350188652742 1.4611540801166607 -1.2802524060106233
27 0.249900902388907 2.388571043902052 -1.8492601452320174
2 0.2605802271656383 0.7180097106986123 0.23261242169201765
9 -0.34764522027409256 0.3030477382656852 -0.27629534212658624
7 -2.269133408440061 -3.1960327319813473 -0.148176086091223
25 1.1175412259994884 -0.5507974421930979 1.1903914944413345
5 0.20657924357863497 1.6144987892387104 -1.4640329026812684
20 0.0590579871685183 -0.24749314593051103 -1.104019292812069
3 -0.5186327771760407 0.5748836420503801 -1.1735732476681855
8 -0.4437666044968981 1.7357347488421837 1.9514880021657892
24 -0.28726920313585036 -0.13725286038541634 2.2362521378373943
22 0.07031578857583798 2.4612824702440497 1.159670483206302
1 -0.6115443594925424 -1.3770574953178165 0.6488398210995187
13 -1.7087317711505776 1.2667666619290276 0.6879911689583401
18 1.023336469072999 1.4409480361581861 0.7015199009707059
19 1.783253733076145 -0.8055837104480024 0.5986765907881554
