LAMMPS data file via write_data, version 30 Jul 2021, timestep = 0

48 atoms
3 atom types

0 7.38 xlo xhi
0 8.58 ylo yhi
-0.010057298274271795 10 zlo zhi

Masses

1 11
2 14
3 12

Atoms # full

1 1 2 -0.42 7.377582386921897 0.7221769963191714 0.0037771363154878545 -1 0 0
2 1 1 0.42 7.378315948261095 2.1411424242268047 0.005723979908844447 -1 0 0
3 1 2 -0.42 1.2447887970776952 2.8676004848245533 0.001348446268284902 0 0 0
4 1 1 0.42 1.2414656689644874 4.28578628613883 0.00011113531427045186 0 0 0
5 1 2 -0.42 0.002474815180746286 4.9992187428028405 -0.005589712651255407 0 0 0
6 1 1 0.42 7.379979983665971 6.4385854739759045 0.0010611130348691324 -1 0 0
7 1 2 -0.42 1.2317585840471603 7.158810080624563 -0.008974942974268898 0 0 0
8 1 1 0.42 1.2352508770341066 0.0037783122313107898 0.002093671640424837 0 1 0
9 1 2 -0.42 2.4773332782542727 0.7231766195586773 0.004444922690486966 0 0 0
10 1 1 0.42 2.4830271537615816 2.1501422709017723 0.006147046087378192 0 0 0
11 1 2 -0.42 3.709595948985172 2.8691715937849 0.006976742817543793 0 0 0
12 1 1 0.42 3.7240167199015244 4.289068384919813 0.002345347298470022 0 0 0
13 1 2 -0.42 2.4712325868621394 4.998856391973726 0.004379902423536359 0 0 0
14 1 1 0.42 2.474562437522464 6.433656440055303 -0.0012119905144032052 0 0 0
15 1 2 -0.42 3.725038325222275 7.159189010774339 -0.0002959156829379106 0 0 0
16 1 1 0.42 3.706133972373436 0.0037306803342563467 0.0015443778464311643 0 1 0
17 1 2 -0.42 4.956689237720773 0.7233633730273523 0.0032104707105134024 0 0 0
18 1 1 0.42 4.962115477057346 2.152167902820356 -0.009057298274271795 0 0 0
19 1 2 -0.42 6.184281256484653 2.869710737578436 0.008366480776279456 0 0 0
20 1 1 0.42 6.188803450864838 4.284231685327474 -0.008064701146476297 0 0 0
21 1 2 -0.42 4.949812422011079 5.0147217402047115 -0.006712379416782586 0 0 0
22 1 1 0.42 4.948281204520974 6.429549384016799 -0.00850282965158244 0 0 0
23 1 2 -0.42 6.194837058886999 7.1510817137970974 0.0003637878086249291 0 0 0
24 1 1 0.42 6.197894966950315 8.5753425339448 0.0019680102504640875 0 0 0
25 2 3 0 1.2443079194694104 1.4354905223825436 3.3292096834113867 0 0 0
26 2 3 0 0.005953551957362122 2.146347747385198 3.3215903030250176 0 0 0
27 2 3 0 0.008405194319042002 3.581100920138928 3.3281647749562584 0 0 0
28 2 3 0 1.2344840653089975 4.28597364831994 3.339107313230218 0 0 0
29 2 3 0 1.2459826328321986 5.712398010763525 3.3233669025652888 0 0 0
30 2 3 0 0.0011015360109049533 6.428515735279543 3.328962843282597 0 0 0
31 2 3 0 0.0053187626578466785 7.857443990429139 3.336147142535144 0 0 0
32 2 3 0 1.2375058991604755 0.003935190110437195 3.328740186117934 0 1 0
33 2 3 0 3.722777594386544 1.4230858546509806 3.3239591190330495 0 0 0
34 2 3 0 2.477738590136957 2.145253431839055 3.329428918999354 0 0 0
35 2 3 0 2.47490377328119 3.5704865369598786 3.332226684676589 0 0 0
36 2 3 0 3.7109409527732264 4.284650259616156 3.3369133687377506 0 0 0
37 2 3 0 3.7215294678437676 5.715823050199925 3.3280047101471597 0 0 0
38 2 3 0 2.4731365114325135 6.42811664625216 3.321473560073168 0 0 0
39 2 3 0 2.4849857361078898 7.868035765305644 3.3321074919552114 0 0 0
40 2 3 0 3.7175249488002753 8.571871486223243 3.334068954044054 0 0 0
41 2 3 0 6.201483231089492 1.433297921099373 3.338159917163737 0 0 0
42 2 3 0 4.951929076909173 2.149340612475919 3.3226738827688034 0 0 0
43 2 3 0 4.960270928343071 3.580837662003859 3.3235852988546646 0 0 0
44 2 3 0 6.190455345511372 4.287625009635288 3.3335369402978277 0 0 0
45 2 3 0 6.192023154106657 5.727784070585754 3.3368743347641425 0 0 0
46 2 3 0 4.951470112194179 6.42552064756887 3.3305236900088024 0 0 0
47 2 3 0 4.954889130658072 7.858963970208524 3.3224472946591894 0 0 0
48 2 3 0 6.191151024308316 0.00989854985843345 3.3349274706910026 0 1 0

