# written with /home/ludwig/runs/lammps/prep_unittests/./traj_to_data.py

44 atoms
4 atom types
8 bonds
2 bond types
4 angles
1 angle types

0.000   25.456 xlo xhi
0.000   25.456 ylo yhi
0.000   29.000 zlo zhi

Masses

1 196.966553 #  Au1
2 196.966553 #  Au2
3 1.008 #  H1 H2
4 15.9994 #  O

Atoms

1 1 4 -0.848 1.000 0.000 9.000 # O
2 2 4 -0.848 12.728 0.000 9.000 # O
3 3 4 -0.848 1.000 12.228 9.000 # O
4 4 4 -0.848 12.728 12.228 9.000 # O
5 1 3 0.424 0.184 0.000 9.577 # H1
6 2 3 0.424 11.911 0.000 9.577 # H1
7 3 3 0.424 0.184 12.228 9.577 # H1
8 4 3 0.424 11.911 12.228 9.577 # H1
9 1 3 0.424 1.816 0.000 9.577 # H2
10 2 3 0.424 13.544 0.000 9.577 # H2
11 3 3 0.424 1.816 12.228 9.577 # H2
12 4 3 0.424 13.544 12.228 9.577 # H2
13 5 1 0.000 0.000 0.000 5.000 # Au1
14 5 1 0.000 6.364 0.000 5.000 # Au1
15 5 1 0.000 12.728 0.000 5.000 # Au1
16 5 1 0.000 19.092 0.000 5.000 # Au1
17 5 1 0.000 0.000 6.364 5.000 # Au1
18 5 1 0.000 6.364 6.364 5.000 # Au1
19 5 1 0.000 12.728 6.364 5.000 # Au1
20 5 1 0.000 19.092 6.364 5.000 # Au1
21 5 1 0.000 0.000 12.728 5.000 # Au1
22 5 1 0.000 6.364 12.728 5.000 # Au1
23 5 1 0.000 12.728 12.728 5.000 # Au1
24 5 1 0.000 19.092 12.728 5.000 # Au1
25 5 1 0.000 0.000 19.092 5.000 # Au1
26 5 1 0.000 6.364 19.092 5.000 # Au1
27 5 1 0.000 12.728 19.092 5.000 # Au1
28 5 1 0.000 19.092 19.092 5.000 # Au1
29 6 2 0.000 0.000 0.000 19.500 # Au2
30 6 2 0.000 6.364 0.000 19.500 # Au2
31 6 2 0.000 12.728 0.000 19.500 # Au2
32 6 2 0.000 19.092 0.000 19.500 # Au2
33 6 2 0.000 0.000 6.364 19.500 # Au2
34 6 2 0.000 6.364 6.364 19.500 # Au2
35 6 2 0.000 12.728 6.364 19.500 # Au2
36 6 2 0.000 19.092 6.364 19.500 # Au2
37 6 2 0.000 0.000 12.728 19.500 # Au2
38 6 2 0.000 6.364 12.728 19.500 # Au2
39 6 2 0.000 12.728 12.728 19.500 # Au2
40 6 2 0.000 19.092 12.728 19.500 # Au2
41 6 2 0.000 0.000 19.092 19.500 # Au2
42 6 2 0.000 6.364 19.092 19.500 # Au2
43 6 2 0.000 12.728 19.092 19.500 # Au2
44 6 2 0.000 19.092 19.092 19.500 # Au2

Bonds

1 1 1 5
2 2 1 9
3 1 2 6
4 2 2 10
5 1 3 7
6 2 3 11
7 1 4 8
8 2 4 12

Angles

1 1 5 1 9
2 1 6 2 10
3 1 7 3 11
4 1 8 4 12
