ITEM: TIMESTEP
0
ITEM: NUMBER OF ATOMS
27
ITEM: BOX BOUNDS pp pp pp
-2.4369109205960360e-01 1.3743691092059596e+01
-2.4369109205960360e-01 1.3743691092059596e+01
-2.4369109205960360e-01 1.3743691092059596e+01
ITEM: ATOMS id type x y z vx vy vz 
21 1 8.21828 3.86165 3.92664 0.510863 0.507178 0.0381215 
14 2 3.9718 12.1964 11.8009 0.0444237 -0.959269 1.28929 
4 2 12.7496 0.289578 13.6651 -0.217835 0.609886 -0.110342 
6 2 10.4848 0.731401 0.205796 -0.15767 -1.21305 -1.53217 
11 2 6.37039 0.750671 11.2289 2.80994 -0.0448456 -2.94974 
16 2 1.78161 9.31535 13.003 -2.51427 0.860021 -1.33407 
15 2 2.59072 7.09239 9.56442 -1.97168 0.34144 -1.28955 
10 2 2.06473 10.9366 0.214399 1.59322 -1.48546 -0.593105 
17 2 10.8957 1.46159 5.99667 0.305762 -1.72645 0.915129 
12 2 8.98918 13.1553 7.38014 1.857 1.21718 0.744612 
23 2 9.67973 5.58713 0.550541 0.682666 -1.22266 -0.575337 
26 2 10.1502 13.4511 13.1305 2.06035 1.46115 -1.28025 
27 2 0.585452 3.37064 13.2034 0.249901 2.38857 -1.84926 
2 2 12.4015 4.49918 8.45394 0.26058 0.71801 0.232612 
9 1 11.2848 10.6028 12.2943 -0.347645 0.303048 -0.276295 
7 2 3.67365 0.603143 3.74484 -2.26913 -3.19603 -0.148176 
25 2 0.580286 6.55703 8.20451 1.11754 -0.550797 1.19039 
5 2 0.437042 12.6267 10.9008 0.206579 1.6145 -1.46403 
20 2 0.596069 -0.0302938 6.65065 0.059058 -0.247493 -1.10402 
3 2 2.40259 3.53727 6.53957 -0.518633 0.574884 -1.17357 
8 2 0.251545 3.20909 6.39479 -0.443767 1.73573 1.95149 
24 2 0.885532 10.0714 2.68664 -0.287269 -0.137253 2.23625 
22 2 1.157 9.63392 12.3475 0.0703158 2.46128 1.15967 
1 1 11.5166 4.28937 11.8474 -0.611544 -1.37706 0.64884 
13 2 3.45733 10.7094 0.207068 -1.70873 1.26677 0.687991 
18 2 8.38801 4.83435 0.0229145 1.02334 1.44095 0.70152 
19 2 0.89041 6.17897 12.7392 1.78325 -0.805584 0.598677 
