ITEM: TIMESTEP
0
ITEM: NUMBER OF ATOMS
864
ITEM: BOX BOUNDS pp pp pp
0.0000000000000000e+00 6.9130545060664147e+01
0.0000000000000000e+00 6.5176902932690410e+01
0.0000000000000000e+00 3.9912538800000000e+01
ITEM: ATOMS id x y z vx vy vz c_dpdUatom[1] c_dpdUatom[2] c_dpdUatom[3] c_dpdUatom[4] c_crdx
1 0.960146 2.7157 1.66302 0.0298971 3.375 -1.27729 0 8.89219 0 2065 1
2 6.72103 2.7157 4.98907 -0.0916375 -0.89202 -2.71041 0 8.89219 0 2065 1
3 10.5616 8.14711 4.98907 -2.47702 -0.702544 1.34214 0 8.89219 0 2065 1
4 4.80073 8.14711 1.66302 2.86217 -0.0962787 1.65153 0 8.89219 0 2065 1
5 0.960146 2.7157 8.31511 2.23564 -1.66191 -0.712413 0 8.89219 0 2065 1
6 6.72103 2.7157 11.6412 -1.50246 -4.1326 -1.68088 0 8.89219 0 2065 1
7 10.5616 8.14711 11.6412 -2.58797 -0.209265 0.652811 0 8.89219 0 2065 1
8 4.80073 8.14711 8.31511 0.806222 1.66299 1.2147 0 8.89219 0 2065 1
9 0.960146 2.7157 14.9672 -5.62215 1.03099 -3.68979 0 8.89219 0 2065 1
10 6.72103 2.7157 18.2932 -1.14612 0.31607 2.59875 0 8.89219 0 2065 1
11 10.5616 8.14711 18.2932 -7.86518 -2.54936 -2.21934 0 8.89219 0 2065 1
12 4.80073 8.14711 14.9672 0.33337 -1.48791 1.42581 0 8.89219 0 2065 1
13 0.960146 2.7157 21.6193 2.31129 -1.00271 2.06243 0 8.89219 0 2065 1
14 6.72103 2.7157 24.9453 -4.48641 -0.929021 -0.306855 0 8.89219 0 2065 1
15 10.5616 8.14711 24.9453 2.40329 2.98566 -3.87777 0 8.89219 0 2065 1
16 4.80073 8.14711 21.6193 -2.1382 -1.31317 -1.57304 0 8.89219 0 2065 1
17 0.960146 2.7157 28.2714 -3.38386 2.97775 -2.77103 0 8.89219 0 2065 1
18 6.72103 2.7157 31.5974 2.81345 6.10352 -3.61476 0 8.89219 0 2065 1
19 10.5616 8.14711 31.5974 -1.82359 -0.560251 1.87919 0 8.89219 0 2065 1
20 4.80073 8.14711 28.2714 -5.15408 -0.78456 4.62953 0 8.89219 0 2065 1
21 0.960146 2.7157 34.9235 0.918087 -2.79282 -1.86064 0 8.89219 0 2065 1
22 6.72103 2.7157 38.2495 0.579344 3.6633 -2.00385 0 8.89219 0 2065 1
23 10.5616 8.14711 38.2495 2.55762 1.06325 2.73608 0 8.89219 0 2065 1
24 4.80073 8.14711 34.9235 4.24546 3.4903 0.771048 0 8.89219 0 2065 1
25 12.4819 2.7157 1.66302 2.51859 -0.555496 0.520097 0 8.89219 0 2065 1
26 18.2428 2.7157 4.98907 2.53093 1.45041 -2.55284 0 8.89219 0 2065 1
27 22.0834 8.14711 4.98907 -2.21601 -0.154625 -1.46017 0 8.89219 0 2065 1
28 16.3225 8.14711 1.66302 -1.86243 -1.37726 -1.72486 0 8.89219 0 2065 1
29 12.4819 2.7157 8.31511 -1.64809 0.638267 -2.30336 0 8.89219 0 2065 1
30 18.2428 2.7157 11.6412 1.03061 -1.94698 5.72084 0 8.89219 0 2065 1
31 22.0834 8.14711 11.6412 -5.84297 0.797468 0.0465523 0 8.89219 0 2065 1
32 16.3225 8.14711 8.31511 -2.46603 0.968994 -0.170938 0 8.89219 0 2065 1
33 12.4819 2.7157 14.9672 -1.0194 -2.40773 -5.31612 0 8.89219 0 2065 1
34 18.2428 2.7157 18.2932 1.22552 1.49081 0.649096 0 8.89219 0 2065 1
35 22.0834 8.14711 18.2932 5.21685 -2.97306 -0.802746 0 8.89219 0 2065 1
36 16.3225 8.14711 14.9672 -1.10962 8.10679 -3.01791 0 8.89219 0 2065 1
37 12.4819 2.7157 21.6193 -1.82723 -1.04845 3.34525 0 8.89219 0 2065 1
38 18.2428 2.7157 24.9453 -6.98377 1.70446 -4.42705 0 8.89219 0 2065 1
39 22.0834 8.14711 24.9453 -8.45743 -2.18953 -0.140201 0 8.89219 0 2065 1
40 16.3225 8.14711 21.6193 2.60822 3.4601 2.69711 0 8.89219 0 2065 1
41 12.4819 2.7157 28.2714 3.56475 -1.90515 -1.72927 0 8.89219 0 2065 1
42 18.2428 2.7157 31.5974 -3.90287 -0.0924806 -0.671953 0 8.89219 0 2065 1
43 22.0834 8.14711 31.5974 -1.37069 -1.9375 -1.28951 0 8.89219 0 2065 1
44 16.3225 8.14711 28.2714 -0.909387 3.27857 2.24346 0 8.89219 0 2065 1
45 12.4819 2.7157 34.9235 -2.98819 0.858818 -0.604739 0 8.89219 0 2065 1
46 18.2428 2.7157 38.2495 -0.105153 2.63228 1.26295 0 8.89219 0 2065 1
47 22.0834 8.14711 38.2495 3.05275 4.38585 0.127167 0 8.89219 0 2065 1
48 16.3225 8.14711 34.9235 -1.21791 -6.73536 3.99779 0 8.89219 0 2065 1
49 24.0037 2.7157 1.66302 -1.63991 -3.59081 3.98655 0 8.89219 0 2065 1
50 29.7645 2.7157 4.98907 -2.46265 1.72618 0.661181 0 8.89219 0 2065 1
51 33.6051 8.14711 4.98907 3.61476 -4.44745 -5.31662 0 8.89219 0 2065 1
52 27.8442 8.14711 1.66302 -2.37811 1.94938 0.501539 0 8.89219 0 2065 1
53 24.0037 2.7157 8.31511 -1.83935 3.79149 0.208331 0 8.89219 0 2065 1
54 29.7645 2.7157 11.6412 -1.76892 -1.52094 -4.53267 0 8.89219 0 2065 1
55 33.6051 8.14711 11.6412 1.98381 4.85018 -1.98997 0 8.89219 0 2065 1
56 27.8442 8.14711 8.31511 -0.713627 5.20603 5.13395 0 8.89219 0 2065 1
57 24.0037 2.7157 14.9672 -0.856571 5.55919 3.44445 0 8.89219 0 2065 1
58 29.7645 2.7157 18.2932 2.23736 -0.178561 -2.76445 0 8.89219 0 2065 1
59 33.6051 8.14711 18.2932 3.69325 0.326001 1.28704 0 8.89219 0 2065 1
60 27.8442 8.14711 14.9672 -5.20878 3.11598 3.60044 0 8.89219 0 2065 1
61 24.0037 2.7157 21.6193 2.84416 -3.90199 -2.56938 0 8.89219 0 2065 1
62 29.7645 2.7157 24.9453 1.23383 -0.239891 0.721088 0 8.89219 0 2065 1
63 33.6051 8.14711 24.9453 -4.06346 0.954959 0.234868 0 8.89219 0 2065 1
64 27.8442 8.14711 21.6193 4.13798 2.49112 -1.13205 0 8.89219 0 2065 1
65 24.0037 2.7157 28.2714 1.79577 0.912083 -8.36136 0 8.89219 0 2065 1
66 29.7645 2.7157 31.5974 -2.06411 0.443991 -0.875975 0 8.89219 0 2065 1
67 33.6051 8.14711 31.5974 0.60895 -0.420794 -4.01288 0 8.89219 0 2065 1
68 27.8442 8.14711 28.2714 -3.95246 4.94412 4.37818 0 8.89219 0 2065 1
69 24.0037 2.7157 34.9235 -1.61797 2.26794 -1.15528 0 8.89219 0 2065 1
70 29.7645 2.7157 38.2495 -1.456 -1.44571 4.77482 0 8.89219 0 2065 1
71 33.6051 8.14711 38.2495 -0.00212799 -4.55658 -0.117157 0 8.89219 0 2065 1
72 27.8442 8.14711 34.9235 -0.2625 -1.69097 3.09303 0 8.89219 0 2065 1
73 35.5254 2.7157 1.66302 -0.652902 -0.871674 2.94683 0 8.89219 0 2065 1
74 41.2863 2.7157 4.98907 0.642696 -3.65797 -4.86979 0 8.89219 0 2065 1
75 45.1269 8.14711 4.98907 2.28326 0.614015 -2.1269 0 8.89219 0 2065 1
76 39.366 8.14711 1.66302 1.46615 -3.29371 1.86545 0 8.89219 0 2065 1
77 35.5254 2.7157 8.31511 -1.62278 1.45707 1.14104 0 8.89219 0 2065 1
78 41.2863 2.7157 11.6412 -0.823082 -0.695841 -1.36405 0 8.89219 0 2065 1
79 45.1269 8.14711 11.6412 0.31376 2.60122 1.63175 0 8.89219 0 2065 1
80 39.366 8.14711 8.31511 0.863411 -3.51654 -3.08103 0 8.89219 0 2065 1
81 35.5254 2.7157 14.9672 2.04023 -0.123189 1.4806 0 8.89219 0 2065 1
82 41.2863 2.7157 18.2932 5.20236 -1.33339 2.96916 0 8.89219 0 2065 1
83 45.1269 8.14711 18.2932 0.220594 0.260201 5.45932 0 8.89219 0 2065 1
84 39.366 8.14711 14.9672 -2.53808 1.60973 0.0476391 0 8.89219 0 2065 1
85 35.5254 2.7157 21.6193 0.957522 -2.82262 -1.95505 0 8.89219 0 2065 1
86 41.2863 2.7157 24.9453 -0.829504 -0.379529 -1.8996 0 8.89219 0 2065 1
87 45.1269 8.14711 24.9453 -5.39488 0.369541 4.58539 0 8.89219 0 2065 1
88 39.366 8.14711 21.6193 3.94507 5.25613 0.0357479 0 8.89219 0 2065 1
89 35.5254 2.7157 28.2714 1.99754 3.26308 2.5664 0 8.89219 0 2065 1
90 41.2863 2.7157 31.5974 1.18242 -1.46945 -2.65486 0 8.89219 0 2065 1
91 45.1269 8.14711 31.5974 -2.41126 -1.69153 -2.71358 0 8.89219 0 2065 1
92 39.366 8.14711 28.2714 1.45001 -3.6014 1.76097 0 8.89219 0 2065 1
93 35.5254 2.7157 34.9235 -1.97428 -0.313454 0.125901 0 8.89219 0 2065 1
94 41.2863 2.7157 38.2495 -1.10695 -5.43533 -1.16741 0 8.89219 0 2065 1
95 45.1269 8.14711 38.2495 0.476038 4.4151 -7.72064 0 8.89219 0 2065 1
96 39.366 8.14711 34.9235 3.33926 -4.54447 2.18489 0 8.89219 0 2065 1
97 47.0472 2.7157 1.66302 2.50186 -0.164257 1.52275 0 8.89219 0 2065 1
98 52.8081 2.7157 4.98907 1.27824 0.275847 8.17031 0 8.89219 0 2065 1
99 56.6486 8.14711 4.98907 -0.975745 1.57336 -4.18822 0 8.89219 0 2065 1
100 50.8878 8.14711 1.66302 -0.666124 -3.88678 0.282068 0 8.89219 0 2065 1
101 47.0472 2.7157 8.31511 -2.07314 -0.670256 2.01992 0 8.89219 0 2065 1
102 52.8081 2.7157 11.6412 4.00164 3.79454 0.615165 0 8.89219 0 2065 1
103 56.6486 8.14711 11.6412 -3.66784 -3.2525 -0.720378 0 8.89219 0 2065 1
104 50.8878 8.14711 8.31511 4.71369 -4.48236 2.27499 0 8.89219 0 2065 1
105 47.0472 2.7157 14.9672 2.853 -2.50022 -1.63794 0 8.89219 0 2065 1
106 52.8081 2.7157 18.2932 0.571249 3.41125 -0.703919 0 8.89219 0 2065 1
107 56.6486 8.14711 18.2932 -2.45108 -2.0323 -3.17619 0 8.89219 0 2065 1
108 50.8878 8.14711 14.9672 -0.794409 -0.88283 -6.62324 0 8.89219 0 2065 1
109 47.0472 2.7157 21.6193 1.3059 -3.30095 3.18179 0 8.89219 0 2065 1
110 52.8081 2.7157 24.9453 3.16052 2.1729 4.07717 0 8.89219 0 2065 1
111 56.6486 8.14711 24.9453 1.06274 2.93605 1.68352 0 8.89219 0 2065 1
112 50.8878 8.14711 21.6193 -0.035634 2.00805 0.262885 0 8.89219 0 2065 1
113 47.0472 2.7157 28.2714 2.40736 0.361431 -5.87593 0 8.89219 0 2065 1
114 52.8081 2.7157 31.5974 0.8735 -7.86718 -2.44201 0 8.89219 0 2065 1
115 56.6486 8.14711 31.5974 -1.61925 -2.83954 1.44678 0 8.89219 0 2065 1
116 50.8878 8.14711 28.2714 0.790302 0.258137 4.28578 0 8.89219 0 2065 1
117 47.0472 2.7157 34.9235 3.96425 1.21981 0.737944 0 8.89219 0 2065 1
118 52.8081 2.7157 38.2495 -1.34002 -1.34239 5.40251 0 8.89219 0 2065 1
119 56.6486 8.14711 38.2495 0.465228 3.77637 1.01565 0 8.89219 0 2065 1
120 50.8878 8.14711 34.9235 -0.679521 1.75305 3.41064 0 8.89219 0 2065 1
121 58.5689 2.7157 1.66302 -0.71544 2.23307 -2.52707 0 8.89219 0 2065 1
122 64.3298 2.7157 4.98907 -7.49823 2.39243 0.497663 0 8.89219 0 2065 1
123 68.1704 8.14711 4.98907 -0.0799562 5.90701 -0.359954 0 8.89219 0 2065 1
124 62.4095 8.14711 1.66302 1.13138 0.976681 4.76721 0 8.89219 0 2065 1
125 58.5689 2.7157 8.31511 1.20383 -5.78224 3.82179 0 8.89219 0 2065 1
126 64.3298 2.7157 11.6412 -0.513089 -4.07137 0.994496 0 8.89219 0 2065 1
127 68.1704 8.14711 11.6412 -1.64502 -6.33253 -5.05444 0 8.89219 0 2065 1
128 62.4095 8.14711 8.31511 -1.95919 -1.84582 -0.293444 0 8.89219 0 2065 1
129 58.5689 2.7157 14.9672 -2.4487 3.07986 -3.00199 0 8.89219 0 2065 1
130 64.3298 2.7157 18.2932 -1.57462 -3.49293 -5.26022 0 8.89219 0 2065 1
131 68.1704 8.14711 18.2932 -2.47948 1.2229 0.942338 0 8.89219 0 2065 1
132 62.4095 8.14711 14.9672 -2.05171 -0.781624 3.48652 0 8.89219 0 2065 1
133 58.5689 2.7157 21.6193 1.84129 5.32543 -1.2047 0 8.89219 0 2065 1
134 64.3298 2.7157 24.9453 0.420945 1.45898 5.89674 0 8.89219 0 2065 1
135 68.1704 8.14711 24.9453 -1.97382 2.52492 0.160194 0 8.89219 0 2065 1
136 62.4095 8.14711 21.6193 -1.72677 1.43227 -0.929012 0 8.89219 0 2065 1
137 58.5689 2.7157 28.2714 2.26498 -0.550095 -0.376418 0 8.89219 0 2065 1
138 64.3298 2.7157 31.5974 1.67231 1.60163 1.09453 0 8.89219 0 2065 1
139 68.1704 8.14711 31.5974 -2.45283 0.0639718 -3.76839 0 8.89219 0 2065 1
140 62.4095 8.14711 28.2714 -0.66527 1.87282 -0.612527 0 8.89219 0 2065 1
141 58.5689 2.7157 34.9235 1.31599 -3.76027 0.577846 0 8.89219 0 2065 1
142 64.3298 2.7157 38.2495 2.73022 -0.237295 -0.234093 0 8.89219 0 2065 1
143 68.1704 8.14711 38.2495 -3.45604 -1.29642 -4.5469 0 8.89219 0 2065 1
144 62.4095 8.14711 34.9235 2.6225 0.645513 3.74538 0 8.89219 0 2065 1
145 0.960146 13.5785 1.66302 7.12218 1.83641 -0.397887 0 8.89219 0 2065 1
146 6.72103 13.5785 4.98907 -5.66519 -2.99493 -5.03675 0 8.89219 0 2065 1
147 10.5616 19.0099 4.98907 0.37418 -0.542046 0.577673 0 8.89219 0 2065 1
148 4.80073 19.0099 1.66302 2.73442 2.5441 8.43692 0 8.89219 0 2065 1
149 0.960146 13.5785 8.31511 -1.26597 -0.888905 -1.50689 0 8.89219 0 2065 1
150 6.72103 13.5785 11.6412 -2.96081 -2.50622 1.51377 0 8.89219 0 2065 1
151 10.5616 19.0099 11.6412 2.0313 -0.47723 3.17341 0 8.89219 0 2065 1
152 4.80073 19.0099 8.31511 -0.534446 -0.713223 1.3105 0 8.89219 0 2065 1
153 0.960146 13.5785 14.9672 -3.52052 2.0084 2.33294 0 8.89219 0 2065 1
154 6.72103 13.5785 18.2932 -1.15974 -4.01694 -3.15484 0 8.89219 0 2065 1
155 10.5616 19.0099 18.2932 -4.78649 0.780092 -1.97693 0 8.89219 0 2065 1
156 4.80073 19.0099 14.9672 -1.27216 -1.9268 3.12458 0 8.89219 0 2065 1
157 0.960146 13.5785 21.6193 1.92225 -0.662052 0.958743 0 8.89219 0 2065 1
158 6.72103 13.5785 24.9453 0.99984 1.39782 2.72448 0 8.89219 0 2065 1
159 10.5616 19.0099 24.9453 0.529944 1.0547 -0.220315 0 8.89219 0 2065 1
160 4.80073 19.0099 21.6193 0.693567 -0.617377 -1.39551 0 8.89219 0 2065 1
161 0.960146 13.5785 28.2714 1.09379 4.27662 1.40555 0 8.89219 0 2065 1
162 6.72103 13.5785 31.5974 -1.2535 -1.26142 3.73496 0 8.89219 0 2065 1
163 10.5616 19.0099 31.5974 0.498039 -2.47885 0.139405 0 8.89219 0 2065 1
164 4.80073 19.0099 28.2714 -4.1631 -4.46134 4.49189 0 8.89219 0 2065 1
165 0.960146 13.5785 34.9235 4.91835 -7.30873 -0.372896 0 8.89219 0 2065 1
166 6.72103 13.5785 38.2495 -4.69931 -0.886539 -2.56683 0 8.89219 0 2065 1
167 10.5616 19.0099 38.2495 3.15122 -0.0169004 0.670813 0 8.89219 0 2065 1
168 4.80073 19.0099 34.9235 1.45904 -4.92051 2.94336 0 8.89219 0 2065 1
169 12.4819 13.5785 1.66302 1.49102 1.08064 -2.41014 0 8.89219 0 2065 1
170 18.2428 13.5785 4.98907 1.88946 -6.01885 -2.06502 0 8.89219 0 2065 1
171 22.0834 19.0099 4.98907 5.31507 0.397826 0.97581 0 8.89219 0 2065 1
172 16.3225 19.0099 1.66302 -3.34225 -1.40881 3.40307 0 8.89219 0 2065 1
173 12.4819 13.5785 8.31511 1.96886 0.828218 -2.12577 0 8.89219 0 2065 1
174 18.2428 13.5785 11.6412 3.0914 3.18306 -1.77272 0 8.89219 0 2065 1
175 22.0834 19.0099 11.6412 3.28564 0.835182 2.23238 0 8.89219 0 2065 1
176 16.3225 19.0099 8.31511 1.69377 -4.06408 0.188088 0 8.89219 0 2065 1
177 12.4819 13.5785 14.9672 -0.817349 -5.19946 3.16993 0 8.89219 0 2065 1
178 18.2428 13.5785 18.2932 3.00735 -2.98167 4.31693 0 8.89219 0 2065 1
179 22.0834 19.0099 18.2932 1.53008 2.82786 1.56242 0 8.89219 0 2065 1
180 16.3225 19.0099 14.9672 0.597698 -3.42352 0.13387 0 8.89219 0 2065 1
181 12.4819 13.5785 21.6193 2.5855 -3.7785 3.66779 0 8.89219 0 2065 1
182 18.2428 13.5785 24.9453 -0.276754 -0.401909 2.97152 0 8.89219 0 2065 1
183 22.0834 19.0099 24.9453 1.53608 -3.56752 2.68621 0 8.89219 0 2065 1
184 16.3225 19.0099 21.6193 -1.28897 3.1986 -3.29424 0 8.89219 0 2065 1
185 12.4819 13.5785 28.2714 1.8959 -0.704788 -2.82137 0 8.89219 0 2065 1
186 18.2428 13.5785 31.5974 -1.30526 -1.23295 -2.2967 0 8.89219 0 2065 1
187 22.0834 19.0099 31.5974 0.265209 1.66487 2.54506 0 8.89219 0 2065 1
188 16.3225 19.0099 28.2714 -2.14794 -1.79828 3.93507 0 8.89219 0 2065 1
189 12.4819 13.5785 34.9235 -1.43974 4.01367 1.73598 0 8.89219 0 2065 1
190 18.2428 13.5785 38.2495 3.88991 3.81254 0.829495 0 8.89219 0 2065 1
191 22.0834 19.0099 38.2495 0.491703 7.27924 1.30593 0 8.89219 0 2065 1
192 16.3225 19.0099 34.9235 -2.62458 2.28723 -1.74383 0 8.89219 0 2065 1
193 24.0037 13.5785 1.66302 0.939201 -1.76661 0.458499 0 8.89219 0 2065 1
194 29.7645 13.5785 4.98907 -0.0595151 -0.583306 -3.04143 0 8.89219 0 2065 1
195 33.6051 19.0099 4.98907 0.986448 0.0185193 1.6059 0 8.89219 0 2065 1
196 27.8442 19.0099 1.66302 3.47943 -2.28892 0.500468 0 8.89219 0 2065 1
197 24.0037 13.5785 8.31511 3.18428 5.80289 2.82477 0 8.89219 0 2065 1
198 29.7645 13.5785 11.6412 0.266024 1.0363 2.94383 0 8.89219 0 2065 1
199 33.6051 19.0099 11.6412 0.844879 2.711 -5.38675 0 8.89219 0 2065 1
200 27.8442 19.0099 8.31511 -0.950247 2.66893 -2.02405 0 8.89219 0 2065 1
201 24.0037 13.5785 14.9672 3.26011 -3.18625 -3.98247 0 8.89219 0 2065 1
202 29.7645 13.5785 18.2932 -5.11003 -2.021 1.54789 0 8.89219 0 2065 1
203 33.6051 19.0099 18.2932 -5.15607 0.44794 -3.1891 0 8.89219 0 2065 1
204 27.8442 19.0099 14.9672 1.38894 0.385012 -2.02585 0 8.89219 0 2065 1
205 24.0037 13.5785 21.6193 -0.413383 2.14395 1.40216 0 8.89219 0 2065 1
206 29.7645 13.5785 24.9453 1.84799 -2.88257 -4.22766 0 8.89219 0 2065 1
207 33.6051 19.0099 24.9453 3.6444 0.810285 2.10057 0 8.89219 0 2065 1
208 27.8442 19.0099 21.6193 3.97883 0.811313 -0.848306 0 8.89219 0 2065 1
209 24.0037 13.5785 28.2714 -2.63456 1.78642 -4.9956 0 8.89219 0 2065 1
210 29.7645 13.5785 31.5974 -1.1261 -2.98496 -5.0803 0 8.89219 0 2065 1
211 33.6051 19.0099 31.5974 -1.77025 1.24816 -1.57874 0 8.89219 0 2065 1
212 27.8442 19.0099 28.2714 -4.12692 3.34038 4.32627 0 8.89219 0 2065 1
213 24.0037 13.5785 34.9235 4.88836 3.71644 -2.53962 0 8.89219 0 2065 1
214 29.7645 13.5785 38.2495 0.828391 -0.673809 -1.52892 0 8.89219 0 2065 1
215 33.6051 19.0099 38.2495 -4.76491 2.20299 4.74923 0 8.89219 0 2065 1
216 27.8442 19.0099 34.9235 -0.763222 1.76247 4.26536 0 8.89219 0 2065 1
217 35.5254 13.5785 1.66302 -0.800882 4.29587 3.04867 0 8.89219 0 2065 1
218 41.2863 13.5785 4.98907 0.282408 -0.358184 0.974823 0 8.89219 0 2065 1
219 45.1269 19.0099 4.98907 -2.52386 1.9955 -0.38237 0 8.89219 0 2065 1
220 39.366 19.0099 1.66302 -1.20126 2.7288 -4.07749 0 8.89219 0 2065 1
221 35.5254 13.5785 8.31511 -2.26736 0.437952 -0.390853 0 8.89219 0 2065 1
222 41.2863 13.5785 11.6412 1.28562 -7.92568 6.25791 0 8.89219 0 2065 1
223 45.1269 19.0099 11.6412 3.37697 1.0517 -0.323097 0 8.89219 0 2065 1
224 39.366 19.0099 8.31511 -0.889892 -1.12891 1.57596 0 8.89219 0 2065 1
225 35.5254 13.5785 14.9672 1.82765 -1.91983 -4.50723 0 8.89219 0 2065 1
226 41.2863 13.5785 18.2932 -1.11251 0.983602 1.83297 0 8.89219 0 2065 1
227 45.1269 19.0099 18.2932 -3.4417 -1.12045 4.06186 0 8.89219 0 2065 1
228 39.366 19.0099 14.9672 2.80314 2.35581 -5.33965 0 8.89219 0 2065 1
229 35.5254 13.5785 21.6193 -0.532385 2.9197 5.05686 0 8.89219 0 2065 1
230 41.2863 13.5785 24.9453 2.70629 -2.10765 -0.0668359 0 8.89219 0 2065 1
231 45.1269 19.0099 24.9453 2.70445 1.54246 1.76768 0 8.89219 0 2065 1
232 39.366 19.0099 21.6193 0.983702 3.56499 -1.01126 0 8.89219 0 2065 1
233 35.5254 13.5785 28.2714 -4.80019 4.34131 2.30505 0 8.89219 0 2065 1
234 41.2863 13.5785 31.5974 2.60051 -5.41516 1.67483 0 8.89219 0 2065 1
235 45.1269 19.0099 31.5974 -0.105474 -2.27457 5.52622 0 8.89219 0 2065 1
236 39.366 19.0099 28.2714 3.03311 1.09439 3.06539 0 8.89219 0 2065 1
237 35.5254 13.5785 34.9235 -1.52267 -4.11646 0.571885 0 8.89219 0 2065 1
238 41.2863 13.5785 38.2495 -2.20686 0.452319 1.61617 0 8.89219 0 2065 1
239 45.1269 19.0099 38.2495 -3.75974 -4.18377 -1.88655 0 8.89219 0 2065 1
240 39.366 19.0099 34.9235 0.13743 -1.9643 -0.67878 0 8.89219 0 2065 1
241 47.0472 13.5785 1.66302 0.518315 -4.05803 -0.74312 0 8.89219 0 2065 1
242 52.8081 13.5785 4.98907 1.22732 0.55602 -6.50328 0 8.89219 0 2065 1
243 56.6486 19.0099 4.98907 -0.184831 -1.39751 -2.44763 0 8.89219 0 2065 1
244 50.8878 19.0099 1.66302 -3.9145 -0.991199 -1.23612 0 8.89219 0 2065 1
245 47.0472 13.5785 8.31511 -0.185316 -2.36842 2.43941 0 8.89219 0 2065 1
246 52.8081 13.5785 11.6412 -0.346825 3.65652 0.539611 0 8.89219 0 2065 1
247 56.6486 19.0099 11.6412 3.00347 -2.07911 -0.484905 0 8.89219 0 2065 1
248 50.8878 19.0099 8.31511 2.7517 -2.90642 1.37246 0 8.89219 0 2065 1
249 47.0472 13.5785 14.9672 -3.90325 0.505848 1.44154 0 8.89219 0 2065 1
250 52.8081 13.5785 18.2932 1.12565 0.518777 -0.928234 0 8.89219 0 2065 1
251 56.6486 19.0099 18.2932 -0.710065 -1.19169 -0.815627 0 8.89219 0 2065 1
252 50.8878 19.0099 14.9672 3.29227 -1.38419 -5.80393 0 8.89219 0 2065 1
253 47.0472 13.5785 21.6193 3.3679 0.516444 1.90349 0 8.89219 0 2065 1
254 52.8081 13.5785 24.9453 -1.83137 -0.0574415 0.0669747 0 8.89219 0 2065 1
255 56.6486 19.0099 24.9453 -1.59733 2.71693 -1.54255 0 8.89219 0 2065 1
256 50.8878 19.0099 21.6193 -6.173 3.2435 2.79699 0 8.89219 0 2065 1
257 47.0472 13.5785 28.2714 -1.10405 0.0954325 0.993952 0 8.89219 0 2065 1
258 52.8081 13.5785 31.5974 2.10719 -3.04379 -0.827543 0 8.89219 0 2065 1
259 56.6486 19.0099 31.5974 -3.89067 0.683932 1.93111 0 8.89219 0 2065 1
260 50.8878 19.0099 28.2714 0.103546 1.78026 1.36783 0 8.89219 0 2065 1
261 47.0472 13.5785 34.9235 -0.180423 -0.714296 1.03317 0 8.89219 0 2065 1
262 52.8081 13.5785 38.2495 -3.97362 -5.98031 -2.40597 0 8.89219 0 2065 1
263 56.6486 19.0099 38.2495 -2.4137 3.56515 -0.342507 0 8.89219 0 2065 1
264 50.8878 19.0099 34.9235 5.4895 4.7459 1.52516 0 8.89219 0 2065 1
265 58.5689 13.5785 1.66302 -3.28298 1.51802 -2.69786 0 8.89219 0 2065 1
266 64.3298 13.5785 4.98907 1.96812 -0.091185 0.698082 0 8.89219 0 2065 1
267 68.1704 19.0099 4.98907 -3.09605 2.44811 -0.804083 0 8.89219 0 2065 1
268 62.4095 19.0099 1.66302 -0.690837 -1.92687 2.29812 0 8.89219 0 2065 1
269 58.5689 13.5785 8.31511 -3.86022 0.12168 -3.7457 0 8.89219 0 2065 1
270 64.3298 13.5785 11.6412 1.67917 -0.550071 -0.380045 0 8.89219 0 2065 1
271 68.1704 19.0099 11.6412 -1.80543 3.50833 -2.10251 0 8.89219 0 2065 1
272 62.4095 19.0099 8.31511 4.52077 -0.970618 -5.59686 0 8.89219 0 2065 1
273 58.5689 13.5785 14.9672 -0.928517 1.95937 -2.5281 0 8.89219 0 2065 1
274 64.3298 13.5785 18.2932 -1.41748 -4.07142 -1.04407 0 8.89219 0 2065 1
275 68.1704 19.0099 18.2932 4.04193 -1.48239 -2.99638 0 8.89219 0 2065 1
276 62.4095 19.0099 14.9672 1.07245 0.285609 -0.378524 0 8.89219 0 2065 1
277 58.5689 13.5785 21.6193 2.84244 5.08423 0.355153 0 8.89219 0 2065 1
278 64.3298 13.5785 24.9453 -0.0857749 -2.22335 0.864589 0 8.89219 0 2065 1
279 68.1704 19.0099 24.9453 -0.913145 1.8645 -1.94606 0 8.89219 0 2065 1
280 62.4095 19.0099 21.6193 7.12197 5.47345 -5.12511 0 8.89219 0 2065 1
281 58.5689 13.5785 28.2714 -1.90101 -1.48465 2.37728 0 8.89219 0 2065 1
282 64.3298 13.5785 31.5974 -1.05662 4.69156 -0.375818 0 8.89219 0 2065 1
283 68.1704 19.0099 31.5974 -1.11974 -5.10078 2.68937 0 8.89219 0 2065 1
284 62.4095 19.0099 28.2714 0.300564 1.41063 -4.73495 0 8.89219 0 2065 1
285 58.5689 13.5785 34.9235 0.922012 -3.14583 -0.339822 0 8.89219 0 2065 1
286 64.3298 13.5785 38.2495 -0.0425603 -1.48549 3.10476 0 8.89219 0 2065 1
287 68.1704 19.0099 38.2495 -3.70698 2.06656 -4.52846 0 8.89219 0 2065 1
288 62.4095 19.0099 34.9235 4.57565 0.65635 0.194339 0 8.89219 0 2065 1
289 0.960146 24.4413 1.66302 -1.00783 0.74976 -3.32946 0 8.89219 0 2065 1
290 6.72103 24.4413 4.98907 -0.258242 6.63075 -1.8194 0 8.89219 0 2065 1
291 10.5616 29.8727 4.98907 -5.76941 0.91039 -0.0908181 0 8.89219 0 2065 1
292 4.80073 29.8727 1.66302 0.855322 4.31862 -3.16726 0 8.89219 0 2065 1
293 0.960146 24.4413 8.31511 5.18478 1.3193 -1.19206 0 8.89219 0 2065 1
294 6.72103 24.4413 11.6412 -0.878548 -0.699378 2.65978 0 8.89219 0 2065 1
295 10.5616 29.8727 11.6412 -0.263548 1.40605 -3.89978 0 8.89219 0 2065 1
296 4.80073 29.8727 8.31511 1.49522 6.46525 -3.92824 0 8.89219 0 2065 1
297 0.960146 24.4413 14.9672 2.38272 -2.33825 1.05515 0 8.89219 0 2065 1
298 6.72103 24.4413 18.2932 -2.20511 1.2124 -1.78259 0 8.89219 0 2065 1
299 10.5616 29.8727 18.2932 -7.01448 -3.68166 -3.33096 0 8.89219 0 2065 1
300 4.80073 29.8727 14.9672 2.1935 1.10033 0.453264 0 8.89219 0 2065 1
301 0.960146 24.4413 21.6193 0.360338 0.764557 1.07227 0 8.89219 0 2065 1
302 6.72103 24.4413 24.9453 0.852915 1.88556 0.959957 0 8.89219 0 2065 1
303 10.5616 29.8727 24.9453 1.25166 -0.69848 0.48752 0 8.89219 0 2065 1
304 4.80073 29.8727 21.6193 0.412069 0.688183 4.69229 0 8.89219 0 2065 1
305 0.960146 24.4413 28.2714 4.63221 -3.06175 3.0297 0 8.89219 0 2065 1
306 6.72103 24.4413 31.5974 -1.52775 0.499549 4.03491 0 8.89219 0 2065 1
307 10.5616 29.8727 31.5974 0.35803 1.47647 2.52039 0 8.89219 0 2065 1
308 4.80073 29.8727 28.2714 0.720892 -4.39934 -1.32654 0 8.89219 0 2065 1
309 0.960146 24.4413 34.9235 -3.66837 4.95314 -2.91422 0 8.89219 0 2065 1
310 6.72103 24.4413 38.2495 -1.18532 -4.71162 1.69577 0 8.89219 0 2065 1
311 10.5616 29.8727 38.2495 2.82203 -2.26973 2.49905 0 8.89219 0 2065 1
312 4.80073 29.8727 34.9235 3.11955 -2.24461 -0.777631 0 8.89219 0 2065 1
313 12.4819 24.4413 1.66302 1.40389 6.4831 -0.506417 0 8.89219 0 2065 1
314 18.2428 24.4413 4.98907 1.84823 -1.63754 -3.15945 0 8.89219 0 2065 1
315 22.0834 29.8727 4.98907 1.68542 -1.01563 0.0170586 0 8.89219 0 2065 1
316 16.3225 29.8727 1.66302 3.52444 1.42953 0.708261 0 8.89219 0 2065 1
317 12.4819 24.4413 8.31511 5.03785 -4.72404 1.29582 0 8.89219 0 2065 1
318 18.2428 24.4413 11.6412 -2.93419 -3.56847 -5.03982 0 8.89219 0 2065 1
319 22.0834 29.8727 11.6412 -3.84653 -1.64583 3.40365 0 8.89219 0 2065 1
320 16.3225 29.8727 8.31511 -1.10247 2.28976 0.519092 0 8.89219 0 2065 1
321 12.4819 24.4413 14.9672 -1.13246 5.57702 5.95414 0 8.89219 0 2065 1
322 18.2428 24.4413 18.2932 -0.0674251 -3.52271 -1.44118 0 8.89219 0 2065 1
323 22.0834 29.8727 18.2932 0.928951 -5.21973 -3.25 0 8.89219 0 2065 1
324 16.3225 29.8727 14.9672 -3.112 7.24675 -0.624365 0 8.89219 0 2065 1
325 12.4819 24.4413 21.6193 -0.227606 2.87912 2.4913 0 8.89219 0 2065 1
326 18.2428 24.4413 24.9453 0.766592 0.257445 2.54472 0 8.89219 0 2065 1
327 22.0834 29.8727 24.9453 1.93414 0.198465 -0.427931 0 8.89219 0 2065 1
328 16.3225 29.8727 21.6193 -2.29377 -0.180372 -3.60939 0 8.89219 0 2065 1
329 12.4819 24.4413 28.2714 -2.39983 -1.3098 0.974763 0 8.89219 0 2065 1
330 18.2428 24.4413 31.5974 -0.541021 1.95569 1.51562 0 8.89219 0 2065 1
331 22.0834 29.8727 31.5974 1.72629 -5.04497 1.1596 0 8.89219 0 2065 1
332 16.3225 29.8727 28.2714 6.1321 -0.997635 3.66804 0 8.89219 0 2065 1
333 12.4819 24.4413 34.9235 2.64812 -0.255268 3.97634 0 8.89219 0 2065 1
334 18.2428 24.4413 38.2495 3.19972 3.15759 -0.431314 0 8.89219 0 2065 1
335 22.0834 29.8727 38.2495 2.56684 4.29875 3.36748 0 8.89219 0 2065 1
336 16.3225 29.8727 34.9235 -0.314216 1.98985 6.27783 0 8.89219 0 2065 1
337 24.0037 24.4413 1.66302 -0.938702 -0.951747 -2.58613 0 8.89219 0 2065 1
338 29.7645 24.4413 4.98907 -3.26585 -0.767407 -2.07569 0 8.89219 0 2065 1
339 33.6051 29.8727 4.98907 2.11448 -1.22736 -1.87951 0 8.89219 0 2065 1
340 27.8442 29.8727 1.66302 1.63923 2.62292 -2.20157 0 8.89219 0 2065 1
341 24.0037 24.4413 8.31511 -2.86395 -2.37372 1.33311 0 8.89219 0 2065 1
342 29.7645 24.4413 11.6412 1.98133 1.35507 -3.35273 0 8.89219 0 2065 1
343 33.6051 29.8727 11.6412 -1.17891 -0.655688 -3.36132 0 8.89219 0 2065 1
344 27.8442 29.8727 8.31511 -5.51047 2.97054 -1.64746 0 8.89219 0 2065 1
345 24.0037 24.4413 14.9672 -2.92873 -1.46342 6.26869 0 8.89219 0 2065 1
346 29.7645 24.4413 18.2932 -2.24347 -0.975937 -2.34939 0 8.89219 0 2065 1
347 33.6051 29.8727 18.2932 -4.24709 -3.91012 -3.41852 0 8.89219 0 2065 1
348 27.8442 29.8727 14.9672 2.29181 -1.86339 0.340349 0 8.89219 0 2065 1
349 24.0037 24.4413 21.6193 4.63923 1.12783 -4.96264 0 8.89219 0 2065 1
350 29.7645 24.4413 24.9453 -0.798678 -0.0816553 -2.51277 0 8.89219 0 2065 1
351 33.6051 29.8727 24.9453 1.28222 2.7696 -1.72964 0 8.89219 0 2065 1
352 27.8442 29.8727 21.6193 4.90508 -2.25375 3.89642 0 8.89219 0 2065 1
353 24.0037 24.4413 28.2714 1.77141 0.709008 -1.47958 0 8.89219 0 2065 1
354 29.7645 24.4413 31.5974 -0.76584 -2.58365 -0.601002 0 8.89219 0 2065 1
355 33.6051 29.8727 31.5974 -3.38813 2.97468 2.43677 0 8.89219 0 2065 1
356 27.8442 29.8727 28.2714 -0.269735 -2.78034 -1.36209 0 8.89219 0 2065 1
357 24.0037 24.4413 34.9235 0.659233 -2.91568 -1.59118 0 8.89219 0 2065 1
358 29.7645 24.4413 38.2495 -1.27379 0.62771 1.78906 0 8.89219 0 2065 1
359 33.6051 29.8727 38.2495 3.43157 -0.568287 2.25553 0 8.89219 0 2065 1
360 27.8442 29.8727 34.9235 0.658867 -1.41277 0.352041 0 8.89219 0 2065 1
361 35.5254 24.4413 1.66302 -0.11046 0.0286026 -2.40806 0 8.89219 0 2065 1
362 41.2863 24.4413 4.98907 -4.31036 0.439371 1.34423 0 8.89219 0 2065 1
363 45.1269 29.8727 4.98907 -0.378269 -1.54721 -2.13547 0 8.89219 0 2065 1
364 39.366 29.8727 1.66302 -2.21464 -0.612176 -6.84614 0 8.89219 0 2065 1
365 35.5254 24.4413 8.31511 2.08617 -1.07609 2.6294 0 8.89219 0 2065 1
366 41.2863 24.4413 11.6412 -4.27853 0.771363 -1.86665 0 8.89219 0 2065 1
367 45.1269 29.8727 11.6412 4.58402 -0.0312691 1.52686 0 8.89219 0 2065 1
368 39.366 29.8727 8.31511 3.49172 1.80412 -7.24582 0 8.89219 0 2065 1
369 35.5254 24.4413 14.9672 -3.03451 -2.91531 0.892512 0 8.89219 0 2065 1
370 41.2863 24.4413 18.2932 2.47415 -0.296845 1.78718 0 8.89219 0 2065 1
371 45.1269 29.8727 18.2932 3.20371 -0.194453 -1.09895 0 8.89219 0 2065 1
372 39.366 29.8727 14.9672 -3.01853 2.69037 0.59647 0 8.89219 0 2065 1
373 35.5254 24.4413 21.6193 -3.27521 -0.362022 4.67732 0 8.89219 0 2065 1
374 41.2863 24.4413 24.9453 -1.90263 -2.01286 1.2274 0 8.89219 0 2065 1
375 45.1269 29.8727 24.9453 4.47987 2.37086 -8.45132 0 8.89219 0 2065 1
376 39.366 29.8727 21.6193 -0.732166 6.23137 -0.120281 0 8.89219 0 2065 1
377 35.5254 24.4413 28.2714 5.97032 -2.08561 0.755547 0 8.89219 0 2065 1
378 41.2863 24.4413 31.5974 -0.158675 -2.43197 -1.66336 0 8.89219 0 2065 1
379 45.1269 29.8727 31.5974 -0.438398 -0.0703638 0.0157548 0 8.89219 0 2065 1
380 39.366 29.8727 28.2714 5.52169 4.73473 -1.76385 0 8.89219 0 2065 1
381 35.5254 24.4413 34.9235 2.22997 -0.589365 -1.04484 0 8.89219 0 2065 1
382 41.2863 24.4413 38.2495 -2.50861 3.18166 -1.04092 0 8.89219 0 2065 1
383 45.1269 29.8727 38.2495 0.484322 1.97634 0.608378 0 8.89219 0 2065 1
384 39.366 29.8727 34.9235 -0.718039 2.18005 2.14849 0 8.89219 0 2065 1
385 47.0472 24.4413 1.66302 2.36508 3.12483 -0.945249 0 8.89219 0 2065 1
386 52.8081 24.4413 4.98907 1.86268 2.59936 -3.82217 0 8.89219 0 2065 1
387 56.6486 29.8727 4.98907 -3.28212 3.20811 -0.733336 0 8.89219 0 2065 1
388 50.8878 29.8727 1.66302 0.326266 -0.935477 -0.17251 0 8.89219 0 2065 1
389 47.0472 24.4413 8.31511 0.767696 -1.39583 -4.45653 0 8.89219 0 2065 1
390 52.8081 24.4413 11.6412 4.2372 -0.223668 -3.2337 0 8.89219 0 2065 1
391 56.6486 29.8727 11.6412 -4.0292 3.16015 -1.51511 0 8.89219 0 2065 1
392 50.8878 29.8727 8.31511 -0.513403 -2.05379 -2.65055 0 8.89219 0 2065 1
393 47.0472 24.4413 14.9672 -0.998214 1.06951 -5.63747 0 8.89219 0 2065 1
394 52.8081 24.4413 18.2932 -0.958733 -3.8124 0.113885 0 8.89219 0 2065 1
395 56.6486 29.8727 18.2932 2.17685 -1.86942 2.54825 0 8.89219 0 2065 1
396 50.8878 29.8727 14.9672 -1.90483 -3.79798 1.91654 0 8.89219 0 2065 1
397 47.0472 24.4413 21.6193 0.565021 -3.06314 -2.84548 0 8.89219 0 2065 1
398 52.8081 24.4413 24.9453 -1.08542 -0.493281 -3.16038 0 8.89219 0 2065 1
399 56.6486 29.8727 24.9453 4.74639 0.170022 -0.742966 0 8.89219 0 2065 1
400 50.8878 29.8727 21.6193 -2.00576 -1.41711 3.87785 0 8.89219 0 2065 1
401 47.0472 24.4413 28.2714 3.47118 2.82025 1.21059 0 8.89219 0 2065 1
402 52.8081 24.4413 31.5974 3.76026 -4.43306 4.30246 0 8.89219 0 2065 1
403 56.6486 29.8727 31.5974 0.592108 1.28877 0.895558 0 8.89219 0 2065 1
404 50.8878 29.8727 28.2714 -0.525535 4.09628 -1.15164 0 8.89219 0 2065 1
405 47.0472 24.4413 34.9235 0.202626 -1.50886 -0.773261 0 8.89219 0 2065 1
406 52.8081 24.4413 38.2495 -1.23324 4.38257 -1.62059 0 8.89219 0 2065 1
407 56.6486 29.8727 38.2495 -2.80723 0.482032 1.72166 0 8.89219 0 2065 1
408 50.8878 29.8727 34.9235 2.98521 -2.62141 3.90124 0 8.89219 0 2065 1