LAMMPS data file via write_data, version 19 Mar 2020, timestep = 100000

3000 atoms
2 atom types

0.0000000000000000e+00 3.1043045599999999e+01 xlo xhi
0.0000000000000000e+00 3.1043045599999999e+01 ylo yhi
0.0000000000000000e+00 3.1043045599999999e+01 zlo zhi

Masses

1 15.9994
2 1.008

Atoms # full

1497 499 2 3.8692754524846124e-01 4.4005135488793817e-01 6.8027067297961290e+00 5.5831272410063155e+00 1 1 0
2401 801 1 -7.3547395604658661e-01 2.8088432936816430e+00 5.9999842940434611e+00 7.5341673350383074e+00 0 0 1
498 166 2 3.0554141478230923e-01 3.1386470457186180e+00 2.2943733261485031e+00 5.1875440798585783e+00 0 0 0
496 166 1 -7.5716565194584284e-01 3.8873560175490196e+00 2.3951000308343597e+00 4.5394769377363851e+00 0 0 0
497 166 2 3.7474917326292168e-01 3.7024128468444144e+00 3.2217803242562795e+00 4.1929178141452947e+00 0 0 0
141 47 2 3.2819006595815370e-01 2.5785003546035381e+00 5.9522998290113884e+00 5.8385480391059792e+00 0 0 0
139 47 1 -7.7172999478983184e-01 2.0053458831978461e+00 5.9351684255357595e+00 4.9823207910634197e+00 0 0 0
140 47 2 3.4612974959574128e-01 1.9901552204785218e+00 4.9986259421397863e+00 4.6918048080889641e+00 0 0 0
1528 510 1 -7.5149674240312681e-01 1.2212058305113851e+00 3.1560995554557962e+00 5.1718212890067647e+00 0 0 1
1530 510 2 3.7575023559399656e-01 1.0614876365158610e+00 2.8589915602608413e+00 4.2601977545295187e+00 0 0 1
239 80 2 3.1918884951446297e-01 3.4548424578221191e+00 6.8686033008322411e+00 4.0968412335733095e+00 0 0 0
1631 544 2 3.6861828487030079e-01 3.9941113970107973e+00 8.2656574262085822e+00 3.7036119701634340e+00 0 0 1
238 80 1 -7.2526545622797589e-01 4.2937849132106294e+00 7.3521044049343605e+00 3.8476838702946998e+00 0 0 0
1529 510 2 3.8946339762840293e-01 4.7692250699647681e-01 2.8107643958401316e+00 5.8055619177966395e+00 0 0 1
803 268 2 3.6060640616141898e-01 5.1999339494958026e+00 7.1414015202400929e+00 5.2920488833458919e+00 0 0 0
25 9 1 -6.8827487728119863e-01 3.0985740485415683e+01 2.1645132256403783e+00 7.1925310016229442e+00 -1 0 0
27 9 2 3.9080868164496113e-01 3.1038026593265343e+01 1.2354407250465411e+00 6.7561483851304862e+00 -1 0 0
2163 721 2 3.6472103780410930e-01 4.6878345557312040e-01 4.4573173444597218e+00 8.2821613647545185e+00 1 1 0
1496 499 2 3.6063498463225496e-01 5.7206768577255742e+00 2.4384675008031360e+00 7.1873570706862715e+00 1 1 0
115 39 1 -7.4965480601589229e-01 3.9517920662385966e+00 4.5447061663723476e+00 2.6662584102276901e+00 0 0 0
1085 362 2 3.3764339144646993e-01 3.9978584926219818e+00 5.4230104078563821e+00 3.1053878503627486e+00 0 1 0
314 105 2 3.5708750153667096e-01 1.0310030023560768e+00 6.7316041319369146e+00 3.3734266629564154e+00 0 0 0
819 273 2 3.6128343578796446e-01 4.0463343017695772e+00 7.1003506727668608e-01 3.6622194337536271e+00 0 1 0
2403 801 2 3.5806910955956361e-01 3.1226344268198925e+00 5.0377455961668165e+00 7.5171760439731976e+00 0 0 1
1574 525 2 3.5863203818711292e-01 4.9947645983585964e+00 1.2493041620163177e+00 5.6377122255901835e+00 0 0 1
116 39 2 3.4196008866457084e-01 4.7958254257633097e+00 4.5134813120446164e+00 2.1983078109383745e+00 0 0 0
1636 546 1 -7.3478551595100094e-01 5.6121875121579743e+00 9.8694416382053440e-01 6.3597906501324371e+00 0 0 1
2065 689 1 -6.8215047066870260e-01 1.6875908310066173e+01 1.1238310027866776e+01 5.4081336330899350e-02 0 0 1
802 268 1 -7.2240461296520764e-01 6.0892988070798753e+00 7.3641709926087646e+00 5.7407764588525003e+00 0 0 0
59 20 2 3.5081337980355071e-01 1.3604526173929814e+00 2.3513564015736548e+00 2.0377862637213977e+00 0 0 0
33 11 2 3.6353567283317345e-01 3.0775061814683362e+01 6.5696256871609071e+00 2.6276539222916169e+00 -1 0 0
2127 709 2 3.8311301768239048e-01 3.6974335831421676e+00 2.7027373781194757e+00 1.4961865571696141e+01 1 0 0
550 184 1 -7.4281091881652961e-01 2.3465162274577466e+01 9.3744257059057343e+00 1.5241859744894187e+01 0 0 0
309 103 2 3.7176965299895415e-01 1.4990887604490121e+01 2.5382454665563348e-01 2.1346503640246048e+00 0 0 0
2232 744 2 3.4815014742283323e-01 8.5202267262527187e-01 5.3847185145336800e+00 4.3093648474523089e-01 1 0 1
226 76 1 -7.4722095769484009e-01 6.0692884597532881e+00 2.3731132049765241e-01 1.3056780543916178e+00 0 0 0
1637 546 2 3.6806353395792374e-01 6.5164572239659728e+00 8.5646744910183303e-01 5.9444090391217541e+00 0 0 1
260 87 2 3.5228697506239837e-01 5.8972736974633246e+00 7.8289186664455324e+00 6.5863339763837985e+00 0 0 0
1086 362 2 3.2722459596763726e-01 7.0330455928520674e+00 5.8850176611591190e+00 6.8095906828009625e+00 0 1 0
1840 614 1 -6.9152209464673109e-01 7.3245865814791085e+00 7.9057953792723765e+00 1.2980778971057452e+00 0 0 1
2612 871 2 4.1176928679744829e-01 7.0756137615931474e+00 8.4166252144604954e+00 2.1531585977535128e+00 0 1 1
1842 614 2 3.6725157545857429e-01 8.3748740565416746e+00 7.8690080028348319e+00 1.3560226011424448e+00 0 0 1
963 321 2 4.1022870020113211e-01 9.9106967870758638e+00 8.0146702338176699e+00 7.2466157795297530e+00 0 0 0
1084 362 1 -7.4044322693270392e-01 7.6057467080876133e+00 5.0781976218288616e+00 6.7743760963270709e+00 0 1 0
1663 555 1 -7.1834560936369407e-01 9.9879391215874271e+00 8.0388811719689492e+00 1.2917807541733919e+00 0 0 1
821 274 2 3.5209674216131409e-01 6.9247313199235387e+00 4.3047612584180914e+00 6.9943975000286365e+00 0 1 0
1791 597 2 4.0841331548659748e-01 7.7878722270508298e+00 5.3818187244858136e+00 5.1636842205127689e+00 0 0 1
2023 675 1 -7.3605189371990465e-01 1.1063137080072600e+01 6.0098264472003251e+00 4.7345199683786516e+00 0 0 1
1664 555 2 3.6238506868933806e-01 1.0108354841357976e+01 8.8072390044573137e+00 1.9305013188119438e+00 0 0 1
1767 589 2 3.6100076072975557e-01 1.1741733648682450e+01 5.8658042545439084e+00 5.4513143091575005e+00 0 0 1
2311 771 1 -7.3005291084991386e-01 8.3020764393069832e+00 5.1948566338776221e+00 4.3179489922325596e+00 0 1 1
2312 771 2 3.9274744365696557e-01 9.1759366291491578e+00 5.5291322309174307e+00 4.3792866152146628e+00 0 1 1
303 101 2 3.8608151180006473e-01 1.2482611497403401e+01 1.6658621953141555e+00 7.1576373240832911e+00 0 0 0
1853 618 2 3.8557910794412215e-01 6.6913261295433673e+00 8.6875135976398994e+00 4.3705239171971151e+00 0 0 1
1852 618 1 -7.6091540778352407e-01 6.8668361281846897e+00 9.2238953384065479e+00 3.5736208524521458e+00 0 0 1
829 277 1 -7.3432390170804673e-01 1.2651767705075731e+01 2.5248313732060534e+00 7.4965512157935255e+00 0 1 0
2875 959 1 -6.8813502015404293e-01 9.1874051384777449e+00 7.6860288086314632e-01 7.6608447591038757e+00 1 1 0
2759 920 2 3.7682339456265845e-01 8.5249450804126656e+00 3.3731054837881027e+00 4.0641841504019780e+00 0 1 1
249 83 2 3.6791165233171941e-01 7.2214553136648609e+00 4.7206182695467334e+00 2.3723286638248067e+00 0 0 0
993 331 2 3.9800531948136814e-01 7.9893180393450729e+00 1.2276942134777038e+00 4.9666634620494534e+00 0 1 0
401 134 2 3.6396631747563196e-01 7.2262707803170203e+00 5.8369412728614911e+00 1.3803763554044857e+00 0 0 0
247 83 1 -7.0764043316735903e-01 7.0942828324841241e+00 4.9106461584568386e+00 1.4288882775766745e+00 0 0 0
1103 368 2 3.7230345163383838e-01 1.1235962979488763e+01 5.4404357695885279e+00 3.9635214837262134e+00 0 1 1
2876 959 2 3.9583804731902583e-01 9.0582611669642077e+00 1.2231093581437821e-01 8.4012470775560555e+00 1 1 0
1011 337 2 3.1959728574581830e-01 1.2437946514638131e+01 1.8732979306873965e+00 3.6181266905009841e+00 0 1 0
1893 631 2 3.7036844773404975e-01 1.1900156966658409e+01 7.4502596457796590e+00 3.8797921320454436e+00 0 0 0
2877 959 2 3.7223487628956575e-01 1.0152687605106527e+01 7.0850125780251816e-01 7.3676117410643789e+00 1 1 0
1841 614 2 3.9790957842087205e-01 9.8835907129974281e+00 8.4957358744048488e+00 4.8066780575509332e-01 0 0 1
203 68 2 3.6407021234816317e-01 9.4391284270869331e+00 2.2161312855505408e+00 3.4466407008994877e+00 0 0 0
2466 822 2 3.9557744289353053e-01 1.0478382294700539e+01 1.9034549670425855e+00 1.1912053570753032e+00 0 1 0
1700 567 2 3.4174585658026774e-01 7.6681567751202886e+00 4.9737131302251258e+00 8.6429890150973634e+00 0 0 0
218 73 2 3.9489709747944879e-01 1.0903840596118812e+01 5.9682168503065460e+00 7.8542237295695791e+00 0 0 0
202 68 1 -6.9246227426584595e-01 8.5034914220925781e+00 2.4316557415608751e+00 3.8001377954723088e+00 0 0 0
1104 368 2 4.1528548950455579e-01 8.3645436315872566e+00 3.1379844007295282e-01 6.1604329151249164e+00 0 1 1
991 331 1 -7.6182583273993854e-01 8.0263667515679185e+00 3.4744605461058575e-01 5.2922470899230607e+00 0 1 0
102 34 2 3.6492516758405213e-01 8.0013989365832714e+00 1.4028078508187747e+00 1.5379165763135083e+01 0 0 0
2029 677 1 -7.8283617067763300e-01 1.2424136860279537e+01 5.4791209410548314e+00 7.1612535440534977e+00 0 0 1
2025 675 2 3.5494230815894440e-01 1.2591724131934392e+01 4.5209311627752200e+00 7.2145026163518384e+00 0 0 1
2031 677 2 3.9304550594436322e-01 1.3267174250891356e+01 5.8828315339307844e+00 7.3758229847280052e+00 0 0 1
1111 371 1 -7.5194924903800975e-01 1.1789258909767749e+01 4.2473893606497439e+00 2.7973156311830794e+00 0 1 0
1112 371 2 3.8149161266254628e-01 1.1325719951844707e+01 3.5140850737691274e+00 2.4518247585030761e+00 0 1 0
1009 337 1 -6.7933790730634036e-01 1.2973399971679061e+01 1.2394482882933624e+00 4.1644406722513532e+00 0 1 0
1113 371 2 3.2793652825314779e-01 1.2508853849264057e+01 3.8651741180754389e+00 3.4664525276051128e+00 0 1 0
983 328 2 3.8034871224020939e-01 1.6372200409886108e+01 3.2828243758410647e+00 5.8612475722303015e-01 0 1 0
982 328 1 -7.3826897087316046e-01 1.6538672856583677e+01 2.3344314174687226e+00 3.5593412007078301e-01 0 1 0
196 66 1 -7.4549107934801362e-01 1.2855296474912164e+01 5.4732616414580368e+00 3.3990948313494568e-01 0 0 0
379 127 1 -7.5307613958567499e-01 1.7194559173341730e+01 6.4295472504929743e+00 3.1166682064054481e+00 0 0 0
954 318 2 3.2002351836232878e-01 1.5888333805783443e+01 5.3623905112413706e+00 1.6366381459492292e+00 0 0 0
197 66 2 3.9353316471972760e-01 1.2366235949554447e+01 5.2689950079443948e+00 1.0819343253779545e+00 0 0 0
308 103 2 3.8053566932308219e-01 1.5827400649134340e+01 1.5102383139749007e+00 1.6944312751168922e+00 0 0 0
2674 892 1 -7.5251563708889002e-01 1.6616504346881126e+01 3.8056411956327221e+00 3.9613426800009357e+00 0 1 0
2675 892 2 3.6376048259316174e-01 1.5794339487607786e+01 4.0211703398579264e+00 4.4872213323852286e+00 0 1 0
381 127 2 3.7093646473040048e-01 1.6989489495356811e+01 5.5370106263854231e+00 3.4535566149823853e+00 0 0 0
2676 892 2 3.5623982090771111e-01 1.6485199958957558e+01 2.9341789231643403e+00 3.5795848239229255e+00 0 1 0
221 74 2 3.1224109180106219e-01 1.3507875971913872e+01 5.1731003897988455e+00 4.2683251224427101e+00 0 0 0
220 74 1 -7.3383156196182264e-01 1.3725487235521911e+01 4.3585589872930308e+00 4.6808284626942935e+00 0 0 0
222 74 2 3.2778663941490466e-01 1.3273816959634512e+01 4.4026137329898694e+00 5.5445678182165032e+00 0 0 0
958 320 1 -7.4610017930944261e-01 1.5663290274330219e+01 4.9796893426559716e+00 7.5150390905448938e-01 0 0 0
960 320 2 3.7551283813146968e-01 1.4736666783744411e+01 5.3254716418768213e+00 7.1438023451097432e-01 0 0 0
320 107 2 3.4147571367646573e-01 1.4548277543914198e+01 7.7726612206472465e+00 8.6200265130584590e+00 0 0 0
380 127 2 3.8288888396260523e-01 1.8086680823606102e+01 6.6958699296408941e+00 3.4346868318853470e+00 0 0 0
319 107 1 -7.5289236146249161e-01 1.4504190487958663e+01 6.8302827431032336e+00 8.3585598210513634e+00 0 0 0
2078 693 2 3.6896467802253480e-01 1.9837126505526836e+01 9.4872638994601708e+00 1.4545504814288625e+01 0 0 0
2042 681 2 3.8133266548460326e-01 1.8632936926135795e+01 1.8847209418642434e+00 1.0661866182918509e+00 0 0 1
525 175 2 3.5767804986002788e-01 1.6044729651565728e+01 7.7152962602539885e+00 4.9279045177504499e-01 0 0 0
526 176 1 -7.1675182179051944e-01 1.7338617473894164e+01 3.9073780698890020e-01 4.3862477545242067e+00 0 0 0
527 176 2 3.7606096783862469e-01 1.6471133582835396e+01 6.4871802983856663e-01 3.9292007431044085e+00 0 0 0
534 178 2 3.5687435904323250e-01 1.8050783975465485e+01 3.7181143555290390e+00 5.1537709798264908e+00 0 0 0
119 40 2 3.7458680445139569e-01 2.0487263421233615e+00 5.4481575893417078e-01 1.3498519365226000e+01 0 0 0
307 103 1 -7.5313456861153183e-01 1.5516325859493993e+01 1.0041223608999403e+00 2.5148439529207085e+00 0 0 0
434 145 2 3.6060382443901440e-01 2.8318372247716162e+01 6.0000350790735746e-01 1.3039033487948334e+01 0 0 0
2538 846 2 3.7038237727101675e-01 1.5873081510603580e+01 7.3431633253088568e+00 4.2151889384124237e+00 0 1 0
362 121 2 3.5138788653950254e-01 1.3822311947328766e+01 1.2399332735227380e+00 3.7058472510950380e+00 0 1 0
1773 591 2 3.7574693015917909e-01 2.4710555149281316e+01 1.1915637515904558e+01 8.9573752514615723e+00 0 0 0
1441 481 1 -7.3263272810282853e-01 2.6976878393661949e+01 3.0627092401548633e-01 6.9616920124764707e+00 0 0 0
2049 683 2 3.5088136504355405e-01 2.7431266984046175e+01 1.4851721772360399e+01 4.7815946067125177e+00 0 0 1
1311 437 2 3.5918535518609329e-01 1.1906016994206430e+01 1.4181562861585023e-01 5.7126228122925715e+00 0 1 0
1194 398 2 3.4995179923095754e-01 1.7833416122412100e+01 1.5436461184933348e-01 9.0760596623794463e+00 0 1 0
1144 382 1 -7.2894009311541352e-01 2.1625386814021507e+01 5.4650300718290135e+00 6.7230254595329866e+00 0 0 0
2043 681 2 3.8805213934516697e-01 1.9877585541745020e+01 1.0369100917515413e+00 9.1741760286022211e-01 0 0 1
532 178 1 -7.0517978497245426e-01 1.8491368955069976e+01 3.5217019209699156e+00 6.0490036778759615e+00 0 0 0
533 178 2 3.9142658940071773e-01 1.8144895666077264e+01 4.3371633326148933e+00 6.6153233851801607e+00 0 0 0
2041 681 1 -7.1168345284775480e-01 1.9352240103205951e+01 1.5571033521169870e+00 1.5405407560902771e+00 0 0 1
1905 635 2 3.6418908688370261e-01 2.1605773287702167e+01 4.2765165277270425e+00 5.1106621918495518e+00 0 0 1
1903 635 1 -6.9792797977161336e-01 2.1748551405429989e+01 4.0998926315357895e+00 4.1658099232003689e+00 0 0 1
1217 406 2 3.7913386240549446e-01 2.2836463194848776e+01 5.2406299294258698e+00 2.9961168585826239e+00 0 1 0
1904 635 2 3.6724890029640833e-01 2.1010627209303685e+01 3.3761847111544125e+00 4.0045156441401977e+00 0 0 1
1216 406 1 -7.2604871901178580e-01 2.3447202645475159e+01 5.5920326273056826e+00 2.2944876098746829e+00 0 1 0
248 83 2 3.3978223300435040e-01 2.3198037218540914e+01 7.6326540121433748e+00 2.6633349332777576e+00 0 0 0
1146 382 2 3.4792706746670926e-01 2.1431062769332790e+01 6.3968311439957963e+00 6.5873809264560750e+00 0 0 0
515 172 2 3.7066235504587541e-01 2.3336985121668135e+01 4.9569713602477519e+00 1.5211960503752682e+00 0 0 0
1116 372 2 3.5646923248294565e-01 2.0298081690348930e+01 5.4854204901743469e+00 3.5506637971694550e+00 0 1 0
1114 372 1 -7.0395571779608335e-01 1.9907703230303699e+01 6.1513486169178977e+00 3.0110646253217355e+00 0 1 0
1115 372 2 3.8069079044468124e-01 1.9945826625468705e+01 5.9246211790915924e+00 2.0351856889836997e+00 0 1 0
579 193 2 3.9547297628369682e-01 2.3996070039116375e+01 1.0529411602750995e+00 1.1165198143647250e+00 0 0 0
585 195 2 3.7096507480798313e-01 2.3767754484183236e+01 2.6411712385066539e+00 1.1225288846698618e+00 0 0 0
1196 399 2 3.5072559348999632e-01 1.9373676533195667e+01 2.4530216578494639e+00 4.7668697348213600e+00 0 1 0
1714 572 1 -7.0802398477202177e-01 1.9900350884093399e+01 5.2222678995018956e+00 3.7497577490663969e-01 0 0 0
2814 938 2 3.9150922204105332e-01 1.6699795914991270e+01 9.4769974678379248e-02 5.7930995252327664e+00 0 1 1
2819 940 2 3.3914466909902691e-01 2.3808226622202906e+01 1.4027657188514016e+01 1.5194174847249243e+01 0 0 0
583 195 1 -7.3812607951190867e-01 2.4143811703288495e+01 1.9114222006859189e+00 1.6122127404924802e+00 0 0 0
624 208 2 3.5387842445422352e-01 2.4421069009592568e+01 6.6814349771311372e+00 7.2476246528316957e-01 0 0 0
1195 399 1 -7.0634180393460455e-01 1.9969889729479270e+01 1.9322909693732215e+00 4.0979444083531487e+00 0 1 0
1197 399 2 4.0772620806047699e-01 1.9396653865507815e+01 1.5237357262145894e+00 3.3353295837171375e+00 0 1 0
418 140 1 -7.0399715143996378e-01 2.4418330292019323e+01 1.7532752213027898e+00 4.5070628850662953e+00 0 0 0
420 140 2 3.8368844685430692e-01 2.4262150970924750e+01 7.7767358985760937e-01 4.5882878553516822e+00 0 0 0
419 140 2 4.1155198449350688e-01 2.4460738669155493e+01 2.0224169088874415e+00 3.6037300525953690e+00 0 0 0
1145 382 2 3.3232971594426863e-01 2.4543873230681669e+01 6.5476103457458166e+00 6.4993358688362211e+00 0 0 0
1171 391 1 -6.8843097609044668e-01 1.3127471808587817e+01 1.5430342606026111e+01 5.2162038862750935e+00 0 0 0
503 168 2 3.5852519131886351e-01 2.3431171518107213e+01 5.6038697706205145e+00 5.8644913703225265e+00 0 0 0
1280 427 2 3.5376168279638437e-01 2.1067713619991196e+01 1.5516513195141689e+01 3.1292364926754366e+00 0 0 0
502 168 1 -7.3571741856961170e-01 2.4383876101821894e+01 5.6246216646123770e+00 6.2255871204360247e+00 0 0 0
884 295 2 3.3705342906758395e-01 2.0831958439525298e+01 8.4319099928220318e+00 1.4983513705461160e+01 -1 1 0
2161 721 1 -7.2741868531417841e-01 3.1002324428745287e-01 5.3902843230030770e+00 8.4582030730450217e+00 1 1 0
32 11 2 3.7224714013611548e-01 2.8969088068039767e+01 5.8853613725276244e-01 1.3415063196894363e+00 -1 0 0
31 11 1 -7.0701682996664361e-01 2.8861481885382837e+01 1.6305346253392183e+00 1.2125555964014341e+00 -1 0 0
1397 466 2 3.7287783474065178e-01 2.9021060975786416e+01 5.8230468622467777e+00 1.1493524979364806e+00 0 1 0
615 205 2 3.8565372047805646e-01 2.4926495528292843e+01 2.4681537292063078e+00 6.2171953534894255e+00 0 0 0
302 101 2 3.6922138072184107e-01 3.0448744544102141e+01 6.4864682511493870e+00 6.6729371988181709e+00 -1 0 0
2901 967 2 4.2376035006718926e-01 3.0021935022741616e+01 2.3328327033627505e+00 7.4094868457492877e+00 0 1 1
301 101 1 -7.8432242912457006e-01 3.0600037180261197e+01 6.9519317345137130e+00 5.8723762844978475e+00 -1 0 0
58 20 1 -6.9908992171353024e-01 6.3748292073836732e-01 2.0463572721280681e+00 2.6294907465286599e+00 0 0 0
240 80 2 3.3485166879456130e-01 3.0843398181986625e+01 2.1919511746150593e+00 2.1074553862407970e+00 -1 0 0
2007 669 2 3.6413535825084464e-01 2.7884518960634296e+01 6.6614101874550382e+00 2.9471974124708211e+00 0 0 1
622 208 1 -7.5750477464126409e-01 2.5145684392649883e+01 7.1849543661857584e+00 3.5392257365769353e-01 0 0 0
1298 433 2 3.3441853145114819e-01 2.7818478639726820e+01 3.3144672824362722e+00 4.0335774579265600e+00 0 1 0
448 150 1 -7.0318713721338333e-01 2.8097674324043851e+01 2.4598468287538888e+00 4.1297936159472464e+00 0 0 0
2004 668 2 3.7851807512870878e-01 2.8277280394440744e+01 2.1676827663847433e+00 3.2511065976651894e+00 0 0 0
1415 472 2 3.5501881145054931e-01 2.7398178513195557e+01 4.8176197476632554e+00 8.1955155867095399e+00 0 0 0
935 312 2 3.7926192283897481e-01 2.7867354921700084e+01 2.3163446476640237e+00 7.1464374500543952e+00 -1 1 0
934 312 1 -7.0550798053293162e-01 2.8514066684769428e+01 3.0309372866169420e+00 6.9865725072981961e+00 -1 1 0
936 312 2 3.5802385594781078e-01 2.8350968993500395e+01 3.1826801669888085e+00 6.0233873348596116e+00 -1 1 0
1654 552 1 -7.2778148499228823e-01 2.6000151339640546e+01 6.2984732742535758e+00 3.9240473831981197e+00 -1 0 1
1656 552 2 3.8027277584560176e-01 2.5187286537297961e+01 6.1459731664565673e+00 3.3539954771306548e+00 -1 0 1
1416 472 2 3.7533076508460606e-01 2.7486061051601464e+01 6.1751659468413065e+00 7.6778011869943370e+00 0 0 0
1284 428 2 3.7296810722231194e-01 2.5695725667684769e+01 6.1010097723828309e+00 4.7757707803728042e+00 -1 1 0
1282 428 1 -7.2633138156117139e-01 2.6533195522991019e+01 3.0430789772738978e+00 9.4074079366307362e-01 -1 1 0
395 132 2 3.7194150494052364e-01 2.0721686406351484e+01 1.4825699905520535e+01 6.7864002498783798e+00 0 -1 0
315 105 2 3.9182710238531726e-01 2.7194063305354611e+01 2.3585563875597009e+00 7.3548938961926469e-01 -1 0 0
2005 669 1 -7.3670581211206421e-01 2.8797406268766185e+01 6.8426764115822305e+00 2.7028840681739510e+00 0 0 1
1283 428 2 3.8989794328252242e-01 2.5720251978925841e+01 2.5003236123211270e+00 1.1432158812361251e+00 -1 1 0
2454 818 2 3.5521705336813136e-01 5.1507876412977160e-01 1.3637905550535947e+01 1.3746168208106381e+01 0 0 0
143 48 2 3.6506930274778204e-01 2.8548886820557613e+01 7.1302593790984945e+00 5.5261781302066835e+00 -1 0 0
322 108 1 -7.1522081979271412e-01 2.7851815251966961e+01 1.1251230139737199e+01 1.0598254784622664e+01 0 0 0
2006 669 2 3.8260586691915549e-01 2.8793657450713877e+01 7.7546719844509173e+00 2.2997713633332033e+00 0 0 1
144 48 2 3.6242795555462648e-01 2.7062070631452631e+01 7.2243739405285794e+00 5.1544861901002568e+00 -1 0 0
142 48 1 -7.4158746208401738e-01 2.7655742999010020e+01 7.0029279966475046e+00 5.9266458450432316e+00 -1 0 0
128 43 2 3.6493793175219513e-01 2.9251866054560224e+01 1.8128122219449998e+00 2.9835519613040862e-01 -1 0 0
893 298 2 3.7946920482746471e-01 2.0789415683959433e+01 5.0171134231841330e-01 4.9622184914003116e+00 -1 1 0
613 205 1 -7.2930970719515864e-01 2.5354487785368573e+01 2.9206965939664045e+00 7.0171052428807306e+00 0 0 0
1854 618 2 3.6046538469487516e-01 6.0186383954012292e+00 9.6181536881972463e+00 3.3021872686892668e+00 0 0 1
313 105 1 -7.2860828500242214e-01 6.6309818808902365e-01 6.8670236808095488e+00 2.5073334000482266e+00 0 0 0
489 163 2 3.8242671450949917e-01 3.2789655077764341e+00 1.0335182590066815e+01 3.1661711981267127e+00 1 0 0
1582 528 1 -6.9633133541634928e-01 3.9175816189525694e+00 8.8798388320891473e+00 6.6440531322343496e-02 0 0 1
1583 528 2 3.8330519894733267e-01 3.7157303505667616e+00 9.3075520118682071e+00 9.5043849871585739e-01 0 0 1
1545 515 2 3.3547912585773454e-01 1.7513554097617570e+00 1.4264802299774038e+01 1.3255855811745821e+01 0 0 0
487 163 1 -7.5962823214403985e-01 4.0623364446220558e+00 1.0069168258611036e+01 2.6871955226819590e+00 1 0 0
488 163 2 3.3513510512049199e-01 4.4047292342860924e+00 1.0884175221904872e+01 2.3609347733608774e+00 1 0 0
236 79 2 3.3992074273664707e-01 5.8140865525284569e-01 1.0447318523122952e+01 4.6983525142782989e+00 0 0 0
1087 363 1 -7.7121238428502759e-01 2.2878236686215194e+00 1.0794053515937286e+01 4.6705075461661476e+00 0 0 0
876 292 2 3.7577555404776669e-01 2.6906293270298849e+00 1.0167016969107877e+01 5.3443139055192077e+00 0 0 0
1089 363 2 3.5301346996899213e-01 2.4523046410709441e+00 1.1721309434211925e+01 5.0512172834935525e+00 0 0 0
988 330 1 -7.3980602252790906e-01 3.0605477789577495e+00 8.6425406263411908e+00 6.3050430950897791e+00 0 0 0
989 330 2 3.5221983851749666e-01 2.7372684251186699e+00 7.7380758558943352e+00 6.3162320630704851e+00 0 0 0
351 117 2 3.5476259391158621e-01 4.9008643683721811e+00 1.3370829450075949e+01 1.4978719937142511e+00 0 0 0
349 117 1 -7.2438225240095444e-01 3.9668742629788083e+00 1.3106368663758122e+01 1.3619716573037230e+00 0 0 0
2204 735 2 3.3502436980086803e-01 1.3133732729193814e+00 1.1046095576944669e+01 7.3879940582274928e-01 1 0 1
2090 697 2 3.1416504629569597e-01 3.5713442770377184e+00 1.3601010630849697e+01 2.1393200249164996e+00 1 0 0
2165 722 2 3.6187320847216919e-01 3.0809439330817803e+01 1.3842330112549433e+01 4.6223282175213347e+00 0 -1 1
2822 941 2 3.8410087331911397e-01 7.0484164184591402e-01 8.6201759024897981e+00 2.2996257689948187e+00 1 0 1
2821 941 1 -6.9317519523929871e-01 1.0510035515236795e+00 9.5837781336614452e+00 2.2453884041254644e+00 1 0 1
2838 946 2 3.4514550685245993e-01 9.6234805605568241e-01 9.9084729669537506e+00 3.1471571998744992e+00 1 0 1
2164 722 1 -7.5352117053148004e-01 3.0047419170952306e+01 1.3303786185264741e+01 4.3623085402350235e+00 0 -1 1
975 325 2 3.7682730648664148e-01 4.1159794867671584e+00 1.3015015958314439e+01 5.9005683034394236e+00 0 0 0
2066 689 2 3.8742997998029072e-01 1.6019479085528225e+01 1.1685737415708365e+01 2.1333527031933200e-01 0 0 1
2935 979 1 -7.3059112897193779e-01 1.3639244652625697e+00 1.1859835077454461e+01 1.5196214658237747e-01 1 0 1
2244 748 2 3.5548258327564458e-01 2.1573034557559936e+00 1.2211891396818533e+01 4.2478770601766352e-01 1 0 1
990 330 2 3.5068291930645673e-01 4.0201368215177693e+00 8.5826932481606466e+00 6.5452969738789379e+00 0 0 0
2149 717 1 -7.4148447957628705e-01 1.2019739267070590e+00 1.4672260592254840e+01 5.5630992204181284e+00 1 0 1
973 325 1 -7.8775790214207508e-01 3.2808598996908067e+00 1.2848526359195688e+01 6.2732967928043202e+00 0 0 0
762 254 2 3.6025664654146405e-01 1.9056954910051354e+00 1.4057376445312965e+01 5.5313206816203708e+00 0 0 0
2795 932 2 3.9224283641486529e-01 2.6521176460952926e+01 4.6186126865153296e+00 2.5126444848059759e-01 0 1 1
122 41 2 3.6819491116834224e-01 2.3324552592077765e+01 3.5796379652413099e-02 7.4527908359156143e+00 -1 0 0
358 120 1 -7.4765682452255755e-01 5.4380659569255423e+00 1.3878425473942585e+01 4.4473440250118168e+00 0 0 0
417 139 2 3.7382189272773941e-01 1.7560447634827046e+01 1.5143597939000566e+01 8.1699992837828930e+00 0 0 0
961 321 1 -7.6642246769839772e-01 1.0042308679106254e+01 8.9584766183836724e+00 7.1840235780789001e+00 0 0 0
962 321 2 3.6857664079591451e-01 9.1568370079591368e+00 9.4753221975802866e+00 7.3013392451650754e+00 0 0 0
2030 677 2 3.8077556991114592e-01 1.1274953341341806e+01 9.1756604772778196e+00 8.2615689499298348e+00 0 0 1
296 99 2 3.8390767271087611e-01 8.3870652149458866e+00 1.0498040232468407e+01 4.1447572130468879e+00 0 0 0
1684 562 1 -7.2814409094719501e-01 7.3903507455065967e+00 1.1071556853951039e+01 1.2250354825262861e+00 0 0 1
295 99 1 -7.5867788325900443e-01 8.3606792224635225e+00 1.1198565313529352e+01 4.7578819239418824e+00 0 0 0
297 99 2 3.8050488962837858e-01 8.1992673935332281e+00 1.0810184886840672e+01 5.5982050466612767e+00 0 0 0
752 251 2 3.7058099998233940e-01 6.9641895936893086e+00 1.2308111468798824e+01 6.9658155757407219e+00 0 0 0
751 251 1 -7.4278412639228442e-01 6.8317676886338417e+00 1.3225459031894374e+01 6.7438315667638911e+00 0 0 0
333 111 2 3.2594448957973510e-01 1.0940086812021329e+01 1.0907622350149609e+01 2.3696570893195164e+00 0 0 0
1721 574 2 3.6555965852011851e-01 1.0108207122612409e+01 1.2939405571008342e+01 1.8138351188170265e+00 0 0 1
1720 574 1 -6.7979005435637685e-01 1.0139115176726332e+01 1.2619264235791288e+01 9.1494055886703352e-01 0 0 1
1722 574 2 3.1408722434581637e-01 9.3407660548652700e+00 1.3012442918969811e+01 4.6724181254637065e-01 0 0 1
513 171 2 3.5331149898951131e-01 6.1258136386977373e+00 1.3650690886881765e+01 5.1785295600723549e+00 0 0 0
359 120 2 3.3369997701578780e-01 5.9767384049249790e+00 1.3598746260467328e+01 3.6815405445583935e+00 0 0 0
1686 562 2 3.5240375771748844e-01 6.9460097646681369e+00 1.1918500061515987e+01 1.4366910383412708e+00 0 0 1
2280 760 2 3.7119825856449817e-01 7.2401035636003090e+00 1.4224140737357329e+01 1.1984115186101394e+00 0 0 1
332 111 2 3.4834558761665085e-01 1.0853174350853518e+01 1.0627732179932620e+01 6.3333012192419424e+00 0 0 0
994 332 1 -7.1059773710688490e-01 1.1083273692355830e+01 1.1613748775864417e+01 6.4686656234184738e+00 0 0 0
341 114 2 3.3735279609069491e-01 7.0764838609572767e+00 9.4518567379441283e+00 7.8554150256115385e+00 0 0 0
340 114 1 -7.5518289903745917e-01 7.6864902765107814e+00 1.0199138450529055e+01 7.5550827779115322e+00 0 0 0
2278 760 1 -7.8009249592433916e-01 6.8004361878348911e+00 1.3720896671082105e+01 1.9284680084598940e+00 0 0 1
331 111 1 -7.3418890315657181e-01 1.0267332256594415e+01 1.0457999131588730e+01 2.9030361238710336e+00 0 0 0
1272 424 2 3.1651297923855615e-01 1.0320620493004430e+01 1.1044707571318979e+01 3.6633258241542537e+00 0 0 0
2279 760 2 3.0287135476369220e-01 7.5119692850690356e+00 1.3642877563459185e+01 2.5709230452345122e+00 0 0 1
552 184 2 3.1157287016550422e-01 2.2611381264759519e+01 9.5628153947696610e+00 1.4801127234723051e+01 0 0 0
1071 357 2 3.6370197009760108e-01 9.2109793110600613e+00 1.2678296857439486e+01 4.1086137374479605e+00 0 0 0
753 251 2 3.8398429683529961e-01 7.6805428689642357e+00 1.3657573344140784e+01 6.9011137950325541e+00 0 0 0
996 332 2 3.7894194562482475e-01 1.2011414776837247e+01 1.1748453532754196e+01 6.1451088221579040e+00 0 0 0
649 217 1 -7.3435592382189663e-01 1.3706413328780920e+00 1.3953920709658846e+01 1.4118039306937186e+01 1 0 0
1069 357 1 -7.7126130153104555e-01 9.6710350248297203e+00 1.3461439256148447e+01 3.6996363509544015e+00 0 0 0
698 233 2 3.8485248110641607e-01 1.0125965419176254e+01 1.2973195546590683e+01 7.2780509680289356e+00 1 0 0
2720 907 2 3.5902734372621675e-01 2.5263573307082972e+01 1.4868669781495987e+01 9.8064356926907124e+00 0 1 0
806 269 2 3.6058437088561074e-01 1.0569862483970079e+01 1.3309830973784278e+01 3.9004031613580823e+00 0 0 0
524 175 2 3.7925251782370911e-01 1.7318664733722265e+01 7.6410073785404355e+00 1.4165581848616602e+00 0 0 0
523 175 1 -7.2080194552706012e-01 1.6846011175578873e+01 8.1855784635332398e+00 8.6426136208733129e-01 0 0 0
1892 631 2 3.3559177520446359e-01 1.2031997034331688e+01 8.9284412640576942e+00 3.4755052150328223e+00 0 0 0
977 326 2 3.5661278293438609e-01 1.2923340356870726e+01 1.3924500954723241e+01 2.8572605709043160e+00 0 0 0
1270 424 1 -7.6167366620956856e-01 1.3625015813317914e+01 1.1635889254372275e+01 5.3936156072980204e+00 0 0 0
1271 424 2 3.2283997763176686e-01 1.3363419589478919e+01 1.2055222357868308e+01 4.5025536195181903e+00 0 0 0
1891 631 1 -7.1511451722943142e-01 1.2546260930801695e+01 8.1678258594311988e+00 3.7054756391045220e+00 0 0 0
374 125 2 3.7100735648407795e-01 1.4671305077239150e+01 8.4693641702357034e+00 6.5010617381468663e+00 0 0 0
999 333 2 3.7673389148422226e-01 1.6858188839617025e+01 1.3260840101787142e+01 3.6536277097279157e+00 0 0 0
976 326 1 -7.6500251118257601e-01 1.2495194270294981e+01 1.3064141836183607e+01 2.9073867924432082e+00 0 0 0
2537 846 2 3.4154322829704103e-01 1.4449902508342412e+01 8.1164653714006967e+00 4.4858453812232160e+00 0 1 0
945 315 2 3.5756763237003220e-01 1.2874768239465711e+01 1.2619148926920694e+01 2.2110146519842866e+00 0 0 0
1925 642 2 3.4095981919838175e-01 1.5692511942686176e+01 9.6147015634048660e+00 3.3486570916909053e+00 0 0 0
1924 642 1 -7.2404266196428380e-01 1.5221695559658110e+01 1.0459664212803514e+01 3.1680209738104517e+00 0 0 0