#  data

3 atoms

1 atom types

-10 10 xlo xhi
-10 10 ylo yhi
-10 10 zlo zhi

Masses

1 1.00794

Atoms

1 1 0 0 0
2 1 1.5 0 0
3 1 0 1.5 0
