LAMMPS (6 Jan 2017)
  using 1 OpenMP thread(s) per MPI task
variable number	equal 2
variable ofreq	equal 1000
variable efreq	equal 1000

units lj

dimension 3

newton off

processors 2 2 2

boundary  p p p

atom_style hybrid bond ellipsoid
atom_modify sort 0 1.0

# Pair interactions require lists of neighbours to be calculated
neighbor 1.0 bin
neigh_modify every 1 delay 0 check yes

read_data data.duplex2
  orthogonal box = (-20 -20 -20) to (20 20 20)
  2 by 2 by 2 MPI processor grid
  reading atoms ...
  16 atoms
  reading velocities ...
  16 velocities
  16 ellipsoids
  scanning bonds ...
  2 = max bonds/atom
  reading bonds ...
  13 bonds
  2 = max # of 1-2 neighbors
  2 = max # of 1-3 neighbors
  4 = max # of 1-4 neighbors
  6 = max # of special neighbors

set atom * mass 3.1575
  16 settings made for mass

group all type 1 4
16 atoms in group all

# oxDNA bond interactions - FENE backbone
bond_style oxdna_fene
bond_coeff * 2.0 0.25 0.7525

# oxDNA pair interactions
pair_style hybrid/overlay oxdna_excv oxdna_stk oxdna_hbond oxdna_xstk oxdna_coaxstk
pair_coeff * * oxdna_excv   2.0 0.7 0.675 2.0 0.515 0.5 2.0 0.33 0.32
pair_coeff * * oxdna_stk    1.61048 6.0 0.4 0.9 0.32 0.6 1.3 0 0.8 0.9 0 0.95 0.9 0 0.95 2.0 0.65 2.0 0.65
pair_coeff * * oxdna_hbond  0.0   8.0 0.4 0.75 0.34 0.7 1.5 0 0.7 1.5 0 0.7 1.5 0 0.7 0.46 3.141592653589793 0.7 4.0 1.5707963267948966 0.45 4.0 1.5707963267948966 0.45
pair_coeff 1 4 oxdna_hbond  1.077 8.0 0.4 0.75 0.34 0.7 1.5 0 0.7 1.5 0 0.7 1.5 0 0.7 0.46 3.141592653589793 0.7 4.0 1.5707963267948966 0.45 4.0 1.5707963267948966 0.45
pair_coeff 2 3 oxdna_hbond  1.077 8.0 0.4 0.75 0.34 0.7 1.5 0 0.7 1.5 0 0.7 1.5 0 0.7 0.46 3.141592653589793 0.7 4.0 1.5707963267948966 0.45 4.0 1.5707963267948966 0.45
pair_coeff * * oxdna_xstk   47.5 0.575 0.675 0.495 0.655 2.25 0.791592653589793 0.58 1.7 1.0 0.68 1.7 1.0 0.68 1.5 0 0.65 1.7 0.875 0.68 1.7 0.875 0.68
pair_coeff * * oxdna_coaxstk 46.0 0.4 0.6 0.22 0.58 2.0 2.541592653589793 0.65 1.3 0 0.8 0.9 0 0.95 0.9 0 0.95 2.0 -0.65 2.0 -0.65

# NVE ensemble
#fix 1 all   nve/dotc/langevin 0.1 0.1 0.03 457145 angmom 10
fix 1 all   nve/dot

timestep 1e-5

#comm_style tiled
#fix 3 all balance 10000 1.1 rcb

#compute mol all chunk/atom molecule
#compute mychunk all vcm/chunk mol
#fix 4 all ave/time 10000 1 10000 c_mychunk[1] c_mychunk[2] c_mychunk[3] file vcm.txt mode vector

dump pos all xyz ${ofreq} traj.${number}.xyz
dump pos all xyz 1000 traj.${number}.xyz
dump pos all xyz 1000 traj.2.xyz

compute quat all property/atom quatw quati quatj quatk
dump quat all custom ${ofreq} quat.${number}.txt id c_quat[1] c_quat[2] c_quat[3] c_quat[4]
dump quat all custom 1000 quat.${number}.txt id c_quat[1] c_quat[2] c_quat[3] c_quat[4]
dump quat all custom 1000 quat.2.txt id c_quat[1] c_quat[2] c_quat[3] c_quat[4]
dump_modify quat sort id
dump_modify quat format line "%d  %13.6le  %13.6le  %13.6le  %13.6le"

compute erot all erotate/asphere
compute ekin all ke
compute epot all pe
variable erot equal c_erot
variable ekin equal c_ekin
variable epot equal c_epot
variable etot equal c_erot+c_ekin+c_epot
fix 5 all print ${efreq} "$(step)  ekin = ${ekin} |  erot = ${erot} | epot = ${epot} | etot = ${etot}" screen yes
fix 5 all print 1000 "$(step)  ekin = ${ekin} |  erot = ${erot} | epot = ${epot} | etot = ${etot}" screen yes

dump out all custom ${ofreq} out.${number}.txt id x y z vx vy vz fx fy fz tqx tqy tqz
dump out all custom 1000 out.${number}.txt id x y z vx vy vz fx fy fz tqx tqy tqz
dump out all custom 1000 out.2.txt id x y z vx vy vz fx fy fz tqx tqy tqz
dump_modify out sort id
dump_modify out format line "%d   %13.6le %13.6le %13.6le  %13.6le %13.6le %13.6le  %13.6le %13.6le %13.6le  %13.6le %13.6le %13.6le"

run 1000000
Neighbor list info ...
  update every 1 steps, delay 0 steps, check yes
  max neighbors/atom: 2000, page size: 100000
  master list distance cutoff = 1.92828
  ghost atom cutoff = 1.92828
  binsize = 0.964142, bins = 42 42 42
  5 neighbor lists, perpetual/occasional/extra = 5 0 0
  (1) pair oxdna_excv, perpetual
      pair build: half/bin/newtoff
      stencil: half/bin/3d/newtoff
      bin: standard
  (2) pair oxdna_stk, perpetual, copy from (1)
      pair build: copy
      stencil: none
      bin: none
  (3) pair oxdna_hbond, perpetual, copy from (1)
      pair build: copy
      stencil: none
      bin: none
  (4) pair oxdna_xstk, perpetual, copy from (1)
      pair build: copy
      stencil: none
      bin: none
  (5) pair oxdna_coaxstk, perpetual, copy from (1)
      pair build: copy
      stencil: none
      bin: none
Memory usage per processor = 11.4582 Mbytes
Step Temp E_pair E_mol TotEng Press 
       0            0   -1.5235228  0.036645354   -1.4868774 0.00014116104 
1000  ekin = 0.0511709070311299 |  erot = 0.0248348123389927 | epot = -23.8660448339751 | etot = -23.790039114605
2000  ekin = 0.149137798875338 |  erot = 0.0789714551136564 | epot = -24.0181483784241 | etot = -23.7900391244351
3000  ekin = 0.190379013143159 |  erot = 0.125735206277489 | epot = -24.1061533403451 | etot = -23.7900391209245
4000  ekin = 0.194528189062358 |  erot = 0.173040905379086 | epot = -24.1576082154806 | etot = -23.7900391210391
5000  ekin = 0.199850170236079 |  erot = 0.233157150984044 | epot = -24.2230464423978 | etot = -23.7900391211777
6000  ekin = 0.205905817641157 |  erot = 0.304323496650519 | epot = -24.3002684356247 | etot = -23.7900391213331
7000  ekin = 0.212220021159582 |  erot = 0.384549560644912 | epot = -24.3868087033015 | etot = -23.790039121497
8000  ekin = 0.218314202088014 |  erot = 0.471711967895033 | epot = -24.4800652916436 | etot = -23.7900391216606
9000  ekin = 0.223741076797877 |  erot = 0.563660146739384 | epot = -24.5774403453517 | etot = -23.7900391218144
10000  ekin = 0.228119229302781 |  erot = 0.658324324073801 | epot = -24.6764826753266 | etot = -23.79003912195
11000  ekin = 0.231164416037746 |  erot = 0.753816894980289 | epot = -24.7750204330781 | etot = -23.7900391220601
12000  ekin = 0.232714211652384 |  erot = 0.84851709805869 | epot = -24.8712704318511 | etot = -23.79003912214
13000  ekin = 0.232742826838781 |  erot = 0.941129307620862 | epot = -24.9639112566473 | etot = -23.7900391221877
14000  ekin = 0.231363818138759 |  erot = 1.03070770677634 | epot = -25.0521106471198 | etot = -23.7900391222047
15000  ekin = 0.228819904588809 |  erot = 1.11664454653748 | epot = -25.1355035733219 | etot = -23.7900391221956
16000  ekin = 0.225460924720283 |  erot = 1.19862484214794 | epot = -25.2141248890354 | etot = -23.7900391221672
17000  ekin = 0.221712681466923 |  erot = 1.27655585451365 | epot = -25.288307658108 | etot = -23.7900391221275
18000  ekin = 0.218040616731683 |  erot = 1.35048357992147 | epot = -25.3585633187377 | etot = -23.7900391220845
19000  ekin = 0.214912688272585 |  erot = 1.42050971471592 | epot = -25.4254615250338 | etot = -23.7900391220453
20000  ekin = 0.212765487947216 |  erot = 1.48672101030828 | epot = -25.4895256202704 | etot = -23.790039122015
21000  ekin = 0.211976738796867 |  erot = 1.54913926118147 | epot = -25.5511551219748 | etot = -23.7900391219964
22000  ekin = 0.21284611938781 |  erot = 1.60769552576378 | epot = -25.6105807671421 | etot = -23.7900391219905
23000  ekin = 0.215585141679047 |  erot = 1.66222772788908 | epot = -25.6678519915641 | etot = -23.790039121996
24000  ekin = 0.220315725170011 |  erot = 1.71249735357246 | epot = -25.722852200753 | etot = -23.7900391220105
25000  ekin = 0.227076254011826 |  erot = 1.75821892542001 | epot = -25.7753343014626 | etot = -23.7900391220308
26000  ekin = 0.235833309889318 |  erot = 1.79909530621485 | epot = -25.8249677381578 | etot = -23.7900391220536
27000  ekin = 0.246496949892935 |  erot = 1.83485241537691 | epot = -25.8713884873457 | etot = -23.7900391220758
28000  ekin = 0.258937337639359 |  erot = 1.8652682859546 | epot = -25.9142447456889 | etot = -23.7900391220949
29000  ekin = 0.27300071104087 |  erot = 1.89019316417213 | epot = -25.9532329973225 | etot = -23.7900391221095
30000  ekin = 0.288523030605979 |  erot = 1.90955919452218 | epot = -25.9881213472469 | etot = -23.7900391221188
31000  ekin = 0.30534012597601 |  erot = 1.92337983201599 | epot = -26.0187590801148 | etot = -23.7900391221228
32000  ekin = 0.323293666844633 |  erot = 1.93174026453514 | epot = -26.0450730535027 | etot = -23.7900391221229
33000  ekin = 0.342232763284131 |  erot = 1.93478072763089 | epot = -26.0670526130357 | etot = -23.7900391221206
34000  ekin = 0.362011419094961 |  erot = 1.93267471595918 | epot = -26.0847252571724 | etot = -23.7900391221182
35000  ekin = 0.382482430856147 |  erot = 1.92560394058074 | epot = -26.098125493555 | etot = -23.7900391221181
36000  ekin = 0.403488688911547 |  erot = 1.91373173668148 | epot = -26.1072595477158 | etot = -23.7900391221228
37000  ekin = 0.42485324606162 |  erot = 1.8971767795855 | epot = -26.1120691477817 | etot = -23.7900391221345
38000  ekin = 0.446369992874803 |  erot = 1.87598959309505 | epot = -26.1123987081251 | etot = -23.7900391221552
39000  ekin = 0.467797249654285 |  erot = 1.85013537225202 | epot = -26.1079717440917 | etot = -23.7900391221854
40000  ekin = 0.488856865020382 |  erot = 1.8194877027512 | epot = -26.0983836899954 | etot = -23.7900391222238
41000  ekin = 0.509241187939144 |  erot = 1.78383812993974 | epot = -26.0831184401463 | etot = -23.7900391222674
42000  ekin = 0.528629204160999 |  erot = 1.74292537212047 | epot = -26.0615936985924 | etot = -23.7900391223109
43000  ekin = 0.546711009335729 |  erot = 1.69648473864167 | epot = -26.0332348703252 | etot = -23.7900391223478
44000  ekin = 0.563216872753784 |  erot = 1.64431328588219 | epot = -25.9975692810071 | etot = -23.7900391223711
45000  ekin = 0.577944304417933 |  erot = 1.58634086827635 | epot = -25.9543242950694 | etot = -23.7900391223751
46000  ekin = 0.590775170466223 |  erot = 1.5226938268439 | epot = -25.9035081196668 | etot = -23.7900391223567
47000  ekin = 0.601676329040704 |  erot = 1.45373869010991 | epot = -25.845454141467 | etot = -23.7900391223164
48000  ekin = 0.610681807666557 |  erot = 1.38009838886155 | epot = -25.7808193187856 | etot = -23.7900391222575
49000  ekin = 0.617860886283296 |  erot = 1.30264119527248 | epot = -25.7105412037405 | etot = -23.7900391221847
50000  ekin = 0.623281883563546 |  erot = 1.2224494033767 | epot = -25.6357704090436 | etot = -23.7900391221033
51000  ekin = 0.62698324566633 |  erot = 1.14077761881976 | epot = -25.5577999865032 | etot = -23.7900391220171
52000  ekin = 0.628960631522912 |  erot = 1.05900864467488 | epot = -25.4780083981262 | etot = -23.7900391219284
53000  ekin = 0.629172415919528 |  erot = 0.97861015721069 | epot = -25.3978216949684 | etot = -23.7900391218382
54000  ekin = 0.627559377787494 |  erot = 0.901090724539185 | epot = -25.3186892240743 | etot = -23.7900391217476
55000  ekin = 0.62407018624077 |  erot = 0.827951622642264 | epot = -25.2420609305415 | etot = -23.7900391216585
56000  ekin = 0.618683918308404 |  erot = 0.760631914897513 | epot = -25.1693549547795 | etot = -23.7900391215736
57000  ekin = 0.611423585135926 |  erot = 0.700447272479966 | epot = -25.1019099791128 | etot = -23.7900391214969
58000  ekin = 0.602358706572204 |  erot = 0.648526246742139 | epot = -25.0409240747472 | etot = -23.7900391214329
59000  ekin = 0.591598560422097 |  erot = 0.605749772215651 | epot = -24.9873874540236 | etot = -23.7900391213859
60000  ekin = 0.572094684856767 |  erot = 0.573115223591272 | epot = -24.9352490327772 | etot = -23.7900391243291
61000  ekin = 0.530466124608228 |  erot = 0.553664635080751 | epot = -24.8741698818825 | etot = -23.7900391221935
62000  ekin = 0.49190992473103 |  erot = 0.551089390054573 | epot = -24.8330384357728 | etot = -23.7900391209872
63000  ekin = 0.475249215598409 |  erot = 0.563856755599469 | epot = -24.8291450932991 | etot = -23.7900391221013
64000  ekin = 0.474310292745222 |  erot = 0.582051351160155 | epot = -24.8464007682135 | etot = -23.7900391243081
65000  ekin = 0.469131800358538 |  erot = 0.59466274807523 | epot = -24.8538336716372 | etot = -23.7900391232034
66000  ekin = 0.459581711707883 |  erot = 0.608085508523301 | epot = -24.857706343516 | etot = -23.7900391232848
67000  ekin = 0.449590824629185 |  erot = 0.625681898691853 | epot = -24.8653118466871 | etot = -23.7900391233661
68000  ekin = 0.439179833561525 |  erot = 0.64615594962328 | epot = -24.8753749066252 | etot = -23.7900391234404
69000  ekin = 0.428399217919289 |  erot = 0.668289858883242 | epot = -24.8867282003046 | etot = -23.7900391235021
70000  ekin = 0.417337578112755 |  erot = 0.691026744636636 | epot = -24.8984034462956 | etot = -23.7900391235462
71000  ekin = 0.406125499021496 |  erot = 0.713538362857507 | epot = -24.9097029854499 | etot = -23.7900391235709
72000  ekin = 0.394933938003325 |  erot = 0.735235847829714 | epot = -24.9202089094081 | etot = -23.7900391235751
73000  ekin = 0.383967041965797 |  erot = 0.755801095060375 | epot = -24.9298072605875 | etot = -23.7900391235614
74000  ekin = 0.373450857335558 |  erot = 0.775188063436637 | epot = -24.9386780443036 | etot = -23.7900391235314
75000  ekin = 0.36361939732429 |  erot = 0.793604063882154 | epot = -24.9472625846959 | etot = -23.7900391234894
76000  ekin = 0.354700233932135 |  erot = 0.811449854774289 | epot = -24.9561892121468 | etot = -23.7900391234403
77000  ekin = 0.34690176747984 |  erot = 0.829261652725267 | epot = -24.9662025435935 | etot = -23.7900391233884
78000  ekin = 0.340403780927925 |  erot = 0.847654135509365 | epot = -24.9780970397745 | etot = -23.7900391233372
79000  ekin = 0.335352113299819 |  erot = 0.867270831743736 | epot = -24.992662068333 | etot = -23.7900391232894
80000  ekin = 0.331857442289877 |  erot = 0.888745425739048 | epot = -25.0106419912753 | etot = -23.7900391232463
81000  ekin = 0.329997435605103 |  erot = 0.912674390232635 | epot = -25.0327109490467 | etot = -23.7900391232089
82000  ekin = 0.329821032092691 |  erot = 0.939598910275499 | epot = -25.0594590655456 | etot = -23.7900391231774
83000  ekin = 0.331353386964532 |  erot = 0.9699926592653 | epot = -25.0913851693818 | etot = -23.790039123152
84000  ekin = 0.334600036567279 |  erot = 1.00425166395641 | epot = -25.128890823657 | etot = -23.7900391231333
85000  ekin = 0.339549048572868 |  erot = 1.04268303368517 | epot = -25.1722712053803 | etot = -23.7900391231223
86000  ekin = 0.346170258706431 |  erot = 1.08549040935446 | epot = -25.2216997911812 | etot = -23.7900391231203
87000  ekin = 0.354411104821151 |  erot = 1.1327553039797 | epot = -25.2772055319301 | etot = -23.7900391231292
88000  ekin = 0.364189024979613 |  erot = 1.1844148356834 | epot = -25.3386429838142 | etot = -23.7900391231512
89000  ekin = 0.375380878507068 |  erot = 1.24023756892973 | epot = -25.4056575706257 | etot = -23.7900391231889
90000  ekin = 0.387810374247597 |  erot = 1.29980022163536 | epot = -25.4776497191273 | etot = -23.7900391232443
91000  ekin = 0.401235033621133 |  erot = 1.3624688250064 | epot = -25.5537429819463 | etot = -23.7900391233188
92000  ekin = 0.415334733579843 |  erot = 1.42738847093487 | epot = -25.6327623279278 | etot = -23.790039123413
93000  ekin = 0.429704281635892 |  erot = 1.49348592272276 | epot = -25.7132293278849 | etot = -23.7900391235262
94000  ekin = 0.443852648616084 |  erot = 1.55948892363158 | epot = -25.793380695903 | etot = -23.7900391236553
95000  ekin = 0.457211284290534 |  erot = 1.6239648416481 | epot = -25.8712152497339 | etot = -23.7900391237953
96000  ekin = 0.46915325074777 |  erot = 1.68537925723145 | epot = -25.9445716319184 | etot = -23.7900391239391
97000  ekin = 0.47902369226448 |  erot = 1.74217234547426 | epot = -26.0112351618174 | etot = -23.7900391240787
98000  ekin = 0.48618051281687 |  erot = 1.79284779586565 | epot = -26.0690674328872 | etot = -23.7900391242047
99000  ekin = 0.490042299871302 |  erot = 1.83606616404208 | epot = -26.1161475882215 | etot = -23.7900391243081
100000  ekin = 0.490138884467107 |  erot = 1.87073268508152 | epot = -26.1509106939295 | etot = -23.7900391243809
101000  ekin = 0.486158865295808 |  erot = 1.89606931292436 | epot = -26.1722673026377 | etot = -23.7900391244176
102000  ekin = 0.477988257618158 |  erot = 1.91166235706079 | epot = -26.1796897390943 | etot = -23.7900391244153
103000  ekin = 0.465735253827861 |  erot = 1.91748034819629 | epot = -26.1732547263985 | etot = -23.7900391243744
104000  ekin = 0.449737732389525 |  erot = 1.91386099726238 | epot = -26.15363785395 | etot = -23.7900391242981
105000  ekin = 0.430552234765613 |  erot = 1.90147036853731 | epot = -26.1220617274953 | etot = -23.7900391241924
106000  ekin = 0.408925166401233 |  erot = 1.88124074469851 | epot = -26.0802050351646 | etot = -23.7900391240648
107000  ekin = 0.385748570220699 |  erot = 1.85429548787333 | epot = -26.0300831820182 | etot = -23.7900391239241
108000  ekin = 0.362003788769751 |  erot = 1.82186930352665 | epot = -25.9739122160758 | etot = -23.7900391237794
109000  ekin = 0.338696755888341 |  erot = 1.78523093966421 | epot = -25.913966819192 | etot = -23.7900391236395
110000  ekin = 0.316788824963988 |  erot = 1.74561307457697 | epot = -25.8524410230534 | etot = -23.7900391235125
111000  ekin = 0.297127294593649 |  erot = 1.70415169303087 | epot = -25.7913181110305 | etot = -23.7900391234059
112000  ekin = 0.280380369075158 |  erot = 1.66183533925879 | epot = -25.7322548316601 | etot = -23.7900391233262
113000  ekin = 0.266982165909586 |  erot = 1.61946380743504 | epot = -25.6764850966226 | etot = -23.790039123278
114000  ekin = 0.257094200011914 |  erot = 1.57761631350381 | epot = -25.6247496367796 | etot = -23.7900391232639
115000  ekin = 0.250589901291433 |  erot = 1.53663078128544 | epot = -25.5772598058605 | etot = -23.7900391232836
116000  ekin = 0.247067448846966 |  erot = 1.49659787781305 | epot = -25.5337044499936 | etot = -23.7900391233336
117000  ekin = 0.245893071936982 |  erot = 1.45737474760978 | epot = -25.4933069429537 | etot = -23.790039123407
118000  ekin = 0.246272119734399 |  erot = 1.41862281720103 | epot = -25.4549340604288 | etot = -23.7900391234934
119000  ekin = 0.247339590546899 |  erot = 1.37987079241497 | epot = -25.4172495065425 | etot = -23.7900391235806
120000  ekin = 0.248257060538634 |  erot = 1.34059830616112 | epot = -25.3788944903561 | etot = -23.7900391236563
121000  ekin = 0.248300812609448 |  erot = 1.30032918787242 | epot = -25.3386691241919 | etot = -23.79003912371
122000  ekin = 0.246927529304658 |  erot = 1.2587185842567 | epot = -25.2956852372964 | etot = -23.7900391237351
123000  ekin = 0.24380898347041 |  erot = 1.21561759600722 | epot = -25.249465703207 | etot = -23.7900391237294
124000  ekin = 0.238834195593805 |  erot = 1.17110365530151 | epot = -25.1999769745906 | etot = -23.7900391236953
125000  ekin = 0.232084269192124 |  erot = 1.12547328854204 | epot = -25.1475966813729 | etot = -23.7900391236388
126000  ekin = 0.223789582638443 |  erot = 1.07920318160392 | epot = -25.0930318878099 | etot = -23.7900391235675
127000  ekin = 0.214280292236282 |  erot = 1.03289230633872 | epot = -25.0372117220643 | etot = -23.7900391234893
128000  ekin = 0.203939522339443 |  erot = 0.987200251937241 | epot = -24.9811788976871 | etot = -23.7900391234105
129000  ekin = 0.193165354488295 |  erot = 0.94279477515954 | epot = -24.9259992529833 | etot = -23.7900391233355
130000  ekin = 0.182344122900488 |  erot = 0.900316480227382 | epot = -24.8726997263945 | etot = -23.7900391232666
131000  ekin = 0.171834574850333 |  erot = 0.860362606155835 | epot = -24.8222363042103 | etot = -23.7900391232041
132000  ekin = 0.161960615877199 |  erot = 0.823486935347523 | epot = -24.7754866743724 | etot = -23.7900391231477
133000  ekin = 0.153009625889997 |  erot = 0.790209813584628 | epot = -24.7332585625706 | etot = -23.790039123096
134000  ekin = 0.145233439715787 |  erot = 0.761031335468509 | epot = -24.6963038982324 | etot = -23.7900391230481
135000  ekin = 0.138849699340531 |  erot = 0.736441500020287 | epot = -24.6653303223644 | etot = -23.7900391230036
136000  ekin = 0.134042109878096 |  erot = 0.716922947128376 | epot = -24.6410041799695 | etot = -23.790039122963
137000  ekin = 0.130958953605171 |  erot = 0.702944116910592 | epot = -24.623942193443 | etot = -23.7900391229272
138000  ekin = 0.129709904337486 |  erot = 0.694942825275358 | epot = -24.6146918525108 | etot = -23.790039122898
139000  ekin = 0.130361672459114 |  erot = 0.693301981330956 | epot = -24.6137027766674 | etot = -23.7900391228773
140000  ekin = 0.132933282812262 |  erot = 0.698320312604503 | epot = -24.6212927182841 | etot = -23.7900391228674
141000  ekin = 0.137391861810976 |  erot = 0.710181482234542 | epot = -24.6376124669157 | etot = -23.7900391228702
142000  ekin = 0.143649727013124 |  erot = 0.728924957733664 | epot = -24.6626138076339 | etot = -23.7900391228871
143000  ekin = 0.151563383068951 |  erot = 0.754421570862161 | epot = -24.6960240768504 | etot = -23.7900391229193
144000  ekin = 0.160934783983883 |  erot = 0.786356062944656 | epot = -24.7373299698955 | etot = -23.790039122967
145000  ekin = 0.171514966816529 |  erot = 0.824218191775829 | epot = -24.7857722816223 | etot = -23.7900391230299
146000  ekin = 0.183009927650336 |  erot = 0.867303290077162 | epot = -24.8403523408345 | etot = -23.790039123107
147000  ekin = 0.195088415387964 |  erot = 0.91472255896232 | epot = -24.8998500975468 | etot = -23.7900391231965
148000  ekin = 0.20739117216233 |  erot = 0.965422854527024 | epot = -24.9628531499856 | etot = -23.7900391232963
149000  ekin = 0.219541058854177 |  erot = 1.01821526490179 | epot = -25.0277954471594 | etot = -23.7900391234035
150000  ekin = 0.231153484475311 |  erot = 1.07181137806753 | epot = -25.0930039860579 | etot = -23.7900391235151
151000  ekin = 0.241846633287198 |  erot = 1.12486584489632 | epot = -25.1567516018112 | etot = -23.7900391236276
152000  ekin = 0.251251182614811 |  erot = 1.17602371582722 | epot = -25.2173140221796 | etot = -23.7900391237375
153000  ekin = 0.259019542845631 |  erot = 1.22397112594477 | epot = -25.2730297926315 | etot = -23.7900391238411
154000  ekin = 0.264835100038122 |  erot = 1.26748818177409 | epot = -25.3223624057463 | etot = -23.7900391239341
155000  ekin = 0.268422394710938 |  erot = 1.30550316374943 | epot = -25.3639646824725 | etot = -23.7900391240121
156000  ekin = 0.269559431645363 |  erot = 1.33714704733758 | epot = -25.3967456030534 | etot = -23.7900391240705
157000  ekin = 0.268093133906215 |  erot = 1.36180649123602 | epot = -25.4199387492466 | etot = -23.7900391241043
158000  ekin = 0.263958124365574 |  erot = 1.37917171195174 | epot = -25.4331689604267 | etot = -23.7900391241094
159000  ekin = 0.257197529315247 |  erot = 1.38927344078635 | epot = -25.4365100941842 | etot = -23.7900391240826
160000  ekin = 0.247982665307115 |  erot = 1.39250140986023 | epot = -25.4305231991902 | etot = -23.7900391240229
161000  ekin = 0.236626935275614 |  erot = 1.38959679598195 | epot = -25.4162628551898 | etot = -23.7900391239322
162000  ekin = 0.223588796485728 |  erot = 1.3816136641992 | epot = -25.3952415845006 | etot = -23.7900391238156
163000  ekin = 0.209459806320803 |  erot = 1.36984956442472 | epot = -25.3693484944267 | etot = -23.7900391236812
164000  ekin = 0.194936444915869 |  erot = 1.35575166092718 | epot = -25.3407272293819 | etot = -23.7900391235388
165000  ekin = 0.180777905261288 |  erot = 1.34080998660864 | epot = -25.3116270152689 | etot = -23.790039123399
166000  ekin = 0.167755163494268 |  erot = 1.32645174802581 | epot = -25.2842460347913 | etot = -23.7900391232712
167000  ekin = 0.156598338756608 |  erot = 1.31394936562674 | epot = -25.2605868275468 | etot = -23.7900391231634
168000  ekin = 0.147949155768866 |  erot = 1.30435082718075 | epot = -25.2423391060304 | etot = -23.7900391230807
169000  ekin = 0.142323507721405 |  erot = 1.29843558694072 | epot = -25.2307982176883 | etot = -23.7900391230262
170000  ekin = 0.140086479872888 |  erot = 1.29669437326562 | epot = -25.2268199761387 | etot = -23.7900391230002
171000  ekin = 0.141439649459137 |  erot = 1.29932802392293 | epot = -25.2308067963843 | etot = -23.7900391230022
172000  ekin = 0.14641870043457 |  erot = 1.30625922221957 | epot = -25.2427170456847 | etot = -23.7900391230305
173000  ekin = 0.154898660038908 |  erot = 1.31715150795526 | epot = -25.262089291077 | etot = -23.7900391230828
174000  ekin = 0.166604292930209 |  erot = 1.33143161796919 | epot = -25.2880750340564 | etot = -23.790039123157
175000  ekin = 0.181124064364709 |  erot = 1.34831344654764 | epot = -25.3194766341628 | etot = -23.7900391232504
176000  ekin = 0.197927206647085 |  erot = 1.36682415817831 | epot = -25.3547904881854 | etot = -23.79003912336
177000  ekin = 0.2163844057795 |  erot = 1.38583479542791 | epot = -25.3922583246892 | etot = -23.7900391234818
178000  ekin = 0.235793151836378 |  erot = 1.40409875797977 | epot = -25.4299310334268 | etot = -23.7900391236107
179000  ekin = 0.255408661800932 |  erot = 1.42030151977327 | epot = -25.4657493053149 | etot = -23.7900391237407
180000  ekin = 0.274480434296763 |  erot = 1.43312373467396 | epot = -25.4976432928349 | etot = -23.7900391238642
181000  ekin = 0.292293072354333 |  erot = 1.44131746044461 | epot = -25.5236496567719 | etot = -23.7900391239729
182000  ekin = 0.308208362204377 |  erot = 1.44379187946827 | epot = -25.5420393657312 | etot = -23.7900391240585
183000  ekin = 0.32170423036648 |  erot = 1.43970123836843 | epot = -25.5514445928486 | etot = -23.7900391241137
184000  ekin = 0.332405645261395 |  erot = 1.42852471841986 | epot = -25.5509694878145 | etot = -23.7900391241332
185000  ekin = 0.340103131049849 |  erot = 1.4101266481502 | epot = -25.5402689033147 | etot = -23.7900391241146
186000  ekin = 0.344756311739541 |  erot = 1.38478666941971 | epot = -25.5195821052186 | etot = -23.7900391240593
187000  ekin = 0.346482387227446 |  erot = 1.35319327887224 | epot = -25.4897147900714 | etot = -23.7900391239717
188000  ekin = 0.34553196864159 |  erot = 1.31639982637952 | epot = -25.4519709188802 | etot = -23.7900391238591
189000  ekin = 0.342256567912919 |  erot = 1.27574811952678 | epot = -25.4080438111702 | etot = -23.7900391237305
190000  ekin = 0.337072806563186 |  erot = 1.23276966605956 | epot = -25.3598815962177 | etot = -23.7900391235949
191000  ekin = 0.330428039782822 |  erot = 1.18907714501701 | epot = -25.3095443082616 | etot = -23.7900391234618
192000  ekin = 0.32277089194882 |  erot = 1.14625861328454 | epot = -25.2590686285713 | etot = -23.790039123338
193000  ekin = 0.314528645839354 |  erot = 1.10578470792624 | epot = -25.210352476995 | etot = -23.7900391232294
194000  ekin = 0.306091964475616 |  erot = 1.06893564335724 | epot = -25.1650667309727 | etot = -23.7900391231398
195000  ekin = 0.297806333129694 |  erot = 1.03675111907361 | epot = -25.1245965752739 | etot = -23.7900391230706
196000  ekin = 0.289968978466699 |  erot = 1.01000307931067 | epot = -25.0900111807997 | etot = -23.7900391230224
197000  ekin = 0.282829795067972 |  erot = 0.98918896106057 | epot = -25.0620578791225 | etot = -23.7900391229939
198000  ekin = 0.276594859051116 |  erot = 0.974541676668729 | epot = -25.0411756587031 | etot = -23.7900391229833
199000  ekin = 0.271431301024527 |  erot = 0.966051962909755 | epot = -25.0275223869226 | etot = -23.7900391229883
200000  ekin = 0.2674725456938 |  erot = 0.963498693283985 | epot = -25.0210103619844 | etot = -23.7900391230067
201000  ekin = 0.264823147040465 |  erot = 0.966483119683139 | epot = -25.0213453897594 | etot = -23.7900391230358
202000  ekin = 0.263562639265759 |  erot = 0.974463659689156 | epot = -25.0280654220285 | etot = -23.7900391230736
203000  ekin = 0.263747994269395 |  erot = 0.986788695601662 | epot = -25.0405758129889 | etot = -23.7900391231178
204000  ekin = 0.26541444883177 |  erot = 1.00272583818527 | epot = -25.0581794101845 | etot = -23.7900391231674
205000  ekin = 0.268574662647466 |  erot = 1.02148716252547 | epot = -25.0801009483941 | etot = -23.7900391232212
206000  ekin = 0.273216407679794 |  erot = 1.04225103447682 | epot = -25.1055065654352 | etot = -23.7900391232786
207000  ekin = 0.279299270849928 |  erot = 1.06418071380402 | epot = -25.133519107992 | etot = -23.790039123338
208000  ekin = 0.286751150207758 |  erot = 1.08644630916065 | epot = -25.1632365827671 | etot = -23.7900391233987
209000  ekin = 0.295465596087959 |  erot = 1.10824493902052 | epot = -25.1937496585672 | etot = -23.7900391234587
210000  ekin = 0.305301223651492 |  erot = 1.12882583070765 | epot = -25.2241661778751 | etot = -23.790039123516
211000  ekin = 0.316084381751181 |  erot = 1.14752055703158 | epot = -25.2536440623503 | etot = -23.7900391235675
212000  ekin = 0.327615956505451 |  erot = 1.16377617343737 | epot = -25.2814312535532 | etot = -23.7900391236104
213000  ekin = 0.339682557077567 |  erot = 1.17718888862474 | epot = -25.3069105693438 | etot = -23.7900391236415
214000  ekin = 0.352071436867229 |  erot = 1.18753365103809 | epot = -25.3296442115628 | etot = -23.7900391236575
215000  ekin = 0.364587520642923 |  erot = 1.19478417193764 | epot = -25.349410816238 | etot = -23.7900391236574
216000  ekin = 0.377070110778959 |  erot = 1.19911831552048 | epot = -25.3662275499402 | etot = -23.7900391236407
217000  ekin = 0.389406526636094 |  erot = 1.20090568788154 | epot = -25.3803513381267 | etot = -23.790039123609
218000  ekin = 0.401540279271912 |  erot = 1.20067731881448 | epot = -25.3922567216518 | etot = -23.7900391235654
219000  ekin = 0.413472375171039 |  erot = 1.19908072760666 | epot = -25.4025922262915 | etot = -23.7900391235138
220000  ekin = 0.42525571246567 |  erot = 1.19682634556944 | epot = -25.412121181494 | etot = -23.7900391234589
221000  ekin = 0.436983860690594 |  erot = 1.19463237969085 | epot = -25.4216553637866 | etot = -23.7900391234051
222000  ekin = 0.448776392406124 |  erot = 1.19317444569642 | epot = -25.4319899614589 | etot = -23.7900391233564
223000  ekin = 0.460763132212523 |  erot = 1.19304404539225 | epot = -25.4438463009207 | etot = -23.7900391233159
224000  ekin = 0.473069234374749 |  erot = 1.19471706868283 | epot = -25.4578254263434 | etot = -23.7900391232858
225000  ekin = 0.48580214441277 |  erot = 1.19853094591805 | epot = -25.4743722135988 | etot = -23.790039123268
226000  ekin = 0.49904059295145 |  erot = 1.20466761275427 | epot = -25.4937473289696 | etot = -23.7900391232639
227000  ekin = 0.512825125810864 |  erot = 1.21313939444276 | epot = -25.5160036435281 | etot = -23.7900391232745
228000  ekin = 0.527149475585125 |  erot = 1.22377613236929 | epot = -25.5409647312553 | etot = -23.7900391233009
229000  ekin = 0.541952348256228 |  erot = 1.23621388936865 | epot = -25.5682053609691 | etot = -23.7900391233442
230000  ekin = 0.55710981670067 |  erot = 1.24988774616344 | epot = -25.5970366862688 | etot = -23.7900391234047
231000  ekin = 0.572429275862079 |  erot = 1.26403290685099 | epot = -25.6265013061946 | etot = -23.7900391234816
232000  ekin = 0.58764658273514 |  erot = 1.27769906263899 | epot = -25.6553847689468 | etot = -23.7900391235727
233000  ekin = 0.602428353605078 |  erot = 1.28978242427577 | epot = -25.682249901555 | etot = -23.7900391236742
234000  ekin = 0.616381252616746 |  erot = 1.29907798057173 | epot = -25.7054983569686 | etot = -23.7900391237802
235000  ekin = 0.629069403960858 |  erot = 1.30435159430687 | epot = -25.7234601221514 | etot = -23.7900391238836
236000  ekin = 0.640039843231806 |  erot = 1.30442797904123 | epot = -25.7345069462494 | etot = -23.7900391239763
237000  ekin = 0.648854381445114 |  erot = 1.29828707879364 | epot = -25.7371805842887 | etot = -23.79003912405
238000  ekin = 0.655124705835027 |  erot = 1.28515865856383 | epot = -25.7303224884957 | etot = -23.7900391240969
239000  ekin = 0.658546375295381 |  erot = 1.26460370751784 | epot = -25.7131892069249 | etot = -23.7900391241117
240000  ekin = 0.658926948377151 |  erot = 1.23657201246246 | epot = -25.6855380849311 | etot = -23.7900391240915
241000  ekin = 0.656204023758692 |  erot = 1.20142801898151 | epot = -25.6476711667768 | etot = -23.7900391240366
242000  ekin = 0.650450448393896 |  erot = 1.15994141287614 | epot = -25.6004309852203 | etot = -23.7900391239502
243000  ekin = 0.641866059438711 |  erot = 1.11324385359686 | epot = -25.545149036874 | etot = -23.7900391238384
244000  ekin = 0.630757578491608 |  erot = 1.06275789952372 | epot = -25.4835546017241 | etot = -23.7900391237087
245000  ekin = 0.61751013172074 |  erot = 1.01010741528713 | epot = -25.4176566705774 | etot = -23.7900391235695
246000  ekin = 0.602554914545435 |  erot = 0.95702006887546 | epot = -25.3496141068501 | etot = -23.7900391234292
247000  ekin = 0.586337588687547 |  erot = 0.905231872078387 | epot = -25.2816085840607 | etot = -23.7900391232948
248000  ekin = 0.569291197141307 |  erot = 0.856401541803407 | epot = -25.2157318621169 | etot = -23.7900391231721
249000  ekin = 0.551816014193498 |  erot = 0.81203950032311 | epot = -25.1538946375822 | etot = -23.7900391230656
250000  ekin = 0.534267197862831 |  erot = 0.773453361018202 | epot = -25.0977596818589 | etot = -23.7900391229778
251000  ekin = 0.516949727306317 |  erot = 0.741709359084243 | epot = -25.0486982093008 | etot = -23.7900391229102
252000  ekin = 0.500119119378787 |  erot = 0.717607701399751 | epot = -25.007765943642 | etot = -23.7900391228634
253000  ekin = 0.483985919767025 |  erot = 0.70166926515454 | epot = -24.9756943077589 | etot = -23.7900391228373
254000  ekin = 0.468721927423558 |  erot = 0.694131299425354 | epot = -24.9528923496801 | etot = -23.7900391228312
255000  ekin = 0.454466427568865 |  erot = 0.694950489462738 | epot = -24.9394560398757 | etot = -23.7900391228441
256000  ekin = 0.441331232285044 |  erot = 0.703812614650014 | epot = -24.9351829698099 | etot = -23.7900391228749
257000  ekin = 0.429403913942174 |  erot = 0.720148796735781 | epot = -24.9395918335999 | etot = -23.790039122922
258000  ekin = 0.418749149566723 |  erot = 0.74315881480997 | epot = -24.95194708736 | etot = -23.7900391229833
259000  ekin = 0.409408501250837 |  erot = 0.771842085968846 | epot = -24.9712897102762 | etot = -23.7900391230565
260000  ekin = 0.401399210391266 |  erot = 0.805036699529957 | epot = -24.9964750330599 | etot = -23.7900391231387
261000  ekin = 0.394712687667979 |  erot = 0.841466429538192 | epot = -25.0262182404325 | etot = -23.7900391232264
262000  ekin = 0.389313361174277 |  erot = 0.879795028193634 | epot = -25.0591475126836 | etot = -23.7900391233157
263000  ekin = 0.385138433126911 |  erot = 0.918686392880194 | epot = -25.0938639494096 | etot = -23.7900391234025
264000  ekin = 0.382098921952183 |  erot = 0.956868445720881 | epot = -25.1290064911553 | etot = -23.7900391234823
265000  ekin = 0.380082161738765 |  erot = 0.993197806841678 | epot = -25.1633190921313 | etot = -23.7900391235509
266000  ekin = 0.37895572693269 |  erot = 1.02672164963513 | epot = -25.1957165001723 | etot = -23.7900391236045
267000  ekin = 0.378572577748888 |  erot = 1.05673261342721 | epot = -25.225344314816 | etot = -23.7900391236399
268000  ekin = 0.378777102784135 |  erot = 1.08281245968661 | epot = -25.2516286861257 | etot = -23.790039123655
269000  ekin = 0.379411671284047 |  erot = 1.10486041355874 | epot = -25.2743112084915 | etot = -23.7900391236487
270000  ekin = 0.380323275274649 |  erot = 1.12310287383077 | epot = -25.293465272727 | etot = -23.7900391236216
271000  ekin = 0.381369802689355 |  erot = 1.13808233180385 | epot = -25.3094912580685 | etot = -23.7900391235753
272000  ekin = 0.382425405634126 |  erot = 1.15062475447055 | epot = -25.3230892836179 | etot = -23.7900391235132
273000  ekin = 0.383384316152016 |  erot = 1.16178617877972 | epot = -25.3352096183715 | etot = -23.7900391234397
274000  ekin = 0.384162366914312 |  erot = 1.17278070285995 | epot = -25.3469821931351 | etot = -23.7900391233608
275000  ekin = 0.384695486188801 |  erot = 1.1848934096126 | epot = -25.3596280190842 | etot = -23.7900391232828
276000  ekin = 0.384934648939187 |  erot = 1.19938305047826 | epot = -25.3743568226301 | etot = -23.7900391232127
277000  ekin = 0.384837230958146 |  erot = 1.21738058230921 | epot = -25.3922569364247 | etot = -23.7900391231573
278000  ekin = 0.384355404941984 |  erot = 1.23979083315962 | epot = -25.4141853612247 | etot = -23.7900391231231
279000  ekin = 0.383423023560782 |  erot = 1.26720548730629 | epot = -25.4406676339821 | etot = -23.790039123115
280000  ekin = 0.381943175835666 |  erot = 1.29983592577792 | epot = -25.4718182247496 | etot = -23.790039123136
281000  ekin = 0.379779078093958 |  erot = 1.3374738998256 | epot = -25.5072921011063 | etot = -23.7900391231867
282000  ekin = 0.376750997558898 |  erot = 1.37948629087414 | epot = -25.5462764116977 | etot = -23.7900391232647
283000  ekin = 0.372641408503055 |  erot = 1.42484724818258 | epot = -25.5875277800502 | etot = -23.7900391233646
284000  ekin = 0.367209555686254 |  erot = 1.47220698563778 | epot = -25.6294556648026 | etot = -23.7900391234786
285000  ekin = 0.360215168270586 |  erot = 1.51999193780257 | epot = -25.6702462296701 | etot = -23.7900391235969
286000  ekin = 0.351449448911904 |  erot = 1.5665265338932 | epot = -25.7080151065143 | etot = -23.7900391237092
287000  ekin = 0.340769939293926 |  erot = 1.61016337177273 | epot = -25.7409724348719 | etot = -23.7900391238052
288000  ekin = 0.32813472717357 |  erot = 1.64940682406589 | epot = -25.7675806751159 | etot = -23.7900391238765
289000  ekin = 0.313630954399232 |  erot = 1.68301559086533 | epot = -25.7866856691819 | etot = -23.7900391239174
290000  ekin = 0.297492853330441 |  erot = 1.71007252459955 | epot = -25.7976045018556 | etot = -23.7900391239256
291000  ekin = 0.280105591931066 |  erot = 1.73001481756536 | epot = -25.8001595333991 | etot = -23.7900391239027
292000  ekin = 0.261992920435473 |  erot = 1.74262357031631 | epot = -25.7946556146051 | etot = -23.7900391238533
293000  ekin = 0.243788743228674 |  erot = 1.74797780161639 | epot = -25.7818056686299 | etot = -23.7900391237848
294000  ekin = 0.226194967369774 |  erot = 1.74638303246546 | epot = -25.7626171235412 | etot = -23.7900391237059
295000  ekin = 0.209929951341123 |  erot = 1.738287778036 | epot = -25.7382568530026 | etot = -23.7900391236255
296000  ekin = 0.195673264593836 |  erot = 1.72420207828648 | epot = -25.7099144664315 | etot = -23.7900391235512
297000  ekin = 0.184013022516407 |  erot = 1.70463052696523 | epot = -25.6786826729704 | etot = -23.7900391234888
298000  ekin = 0.17540167116883 |  erot = 1.68002853741698 | epot = -25.6454693320272 | etot = -23.7900391234414
299000  ekin = 0.170124822358145 |  erot = 1.65078562185354 | epot = -25.6109495676212 | etot = -23.7900391234095
300000  ekin = 0.168285815823444 |  erot = 1.61723428065597 | epot = -25.5755592198707 | etot = -23.7900391233913
301000  ekin = 0.169806472692592 |  erot = 1.57967869814649 | epot = -25.5395242942221 | etot = -23.790039123383
302000  ekin = 0.174442408760788 |  erot = 1.53843456354521 | epot = -25.5029160956865 | etot = -23.7900391233805
303000  ekin = 0.181809650325233 |  erot = 1.49387031139289 | epot = -25.4657190850975 | etot = -23.7900391233794
304000  ekin = 0.191418360436989 |  erot = 1.44644079886096 | epot = -25.427898282674 | etot = -23.7900391233761
305000  ekin = 0.202709295789017 |  erot = 1.39670647698181 | epot = -25.3894548961392 | etot = -23.7900391233683
306000  ekin = 0.215089083994344 |  erot = 1.34533390570552 | epot = -25.3504621130549 | etot = -23.790039123355
307000  ekin = 0.227961354602505 |  erot = 1.29307649820135 | epot = -25.3110769761411 | etot = -23.7900391233373
308000  ekin = 0.240751957720812 |  erot = 1.24073729734183 | epot = -25.2715283783795 | etot = -23.7900391233169
309000  ekin = 0.252927752102939 |  erot = 1.18911816340476 | epot = -25.2320850388047 | etot = -23.790039123297
310000  ekin = 0.264009557316166 |  erot = 1.13896181979428 | epot = -25.1930105003909 | etot = -23.7900391232804
311000  ekin = 0.273580692736361 |  erot = 1.0908945776732 | epot = -25.1545143936797 | etot = -23.7900391232702
312000  ekin = 0.281292961262834 |  erot = 1.04537802373238 | epot = -25.1167101082632 | etot = -23.790039123268
313000  ekin = 0.286871923979715 |  erot = 1.0026773142746 | epot = -25.0795883615283 | etot = -23.7900391232739
314000  ekin = 0.290122868440694 |  erot = 0.962851891876377 | epot = -25.0430138836036 | etot = -23.7900391232866
315000  ekin = 0.290938086966511 |  erot = 0.925771534376965 | epot = -25.0067487446465 | etot = -23.790039123303
316000  ekin = 0.289305106940963 |  erot = 0.891156985807609 | epot = -24.9705012160676 | etot = -23.790039123319
317000  ekin = 0.285314550400111 |  erot = 0.858640531050267 | epot = -24.9339942047796 | etot = -23.7900391233292
318000  ekin = 0.279165554755399 |  erot = 0.827838419242786 | epot = -24.8970430973274 | etot = -23.7900391233292
319000  ekin = 0.271167299679745 |  erot = 0.798767160419336 | epot = -24.8599735833665 | etot = -23.7900391232674
320000  ekin = 0.261734416198374 |  erot = 0.771739613071481 | epot = -24.8235131525179 | etot = -23.7900391232481
321000  ekin = 0.25136688181447 |  erot = 0.746567544453642 | epot = -24.7879735494834 | etot = -23.7900391232153
322000  ekin = 0.24062547812231 |  erot = 0.723205436330096 | epot = -24.7538700376236 | etot = -23.7900391231712
323000  ekin = 0.230101142848969 |  erot = 0.701766027386569 | epot = -24.7219062933555 | etot = -23.79003912312
324000  ekin = 0.220379291992364 |  erot = 0.682490609327142 | epot = -24.6929090243864 | etot = -23.7900391230669
325000  ekin = 0.212002448247148 |  erot = 0.665705394968436 | epot = -24.6677469662276 | etot = -23.7900391230121
326000  ekin = 0.205434980477305 |  erot = 0.651788219624445 | epot = -24.6472623230749 | etot = -23.7900391229732
327000  ekin = 0.201033477493029 |  erot = 0.641055314088797 | epot = -24.6321279145284 | etot = -23.7900391229466
328000  ekin = 0.199025526740404 |  erot = 0.633748338704518 | epot = -24.6228129883797 | etot = -23.7900391229348
329000  ekin = 0.199498890231031 |  erot = 0.630020217076749 | epot = -24.6195582302459 | etot = -23.7900391229381
330000  ekin = 0.202401776280756 |  erot = 0.629925591548329 | epot = -24.6223664907843 | etot = -23.7900391229552
331000  ekin = 0.207553925241468 |  erot = 0.633428809794356 | epot = -24.6310218580193 | etot = -23.7900391229834
332000  ekin = 0.214667413576327 |  erot = 0.640426842269995 | epot = -24.645133378865 | etot = -23.7900391230187
333000  ekin = 0.221025564536796 |  erot = 0.650147979757248 | epot = -24.6612126704769 | etot = -23.7900391261828
334000  ekin = 0.202071338108665 |  erot = 0.657481425386553 | epot = -24.6495918873993 | etot = -23.7900391239041
335000  ekin = 0.172750850731824 |  erot = 0.671237743177597 | epot = -24.6340277149282 | etot = -23.7900391210188
336000  ekin = 0.164149919015593 |  erot = 0.701815447792181 | epot = -24.6560044876572 | etot = -23.7900391208495
337000  ekin = 0.182010329417078 |  erot = 0.745928212400937 | epot = -24.7179776654246 | etot = -23.7900391236065
338000  ekin = 0.202626803551836 |  erot = 0.78767647135161 | epot = -24.7803424010585 | etot = -23.7900391261551
339000  ekin = 0.205786253261828 |  erot = 0.816201073011436 | epot = -24.8120264508071 | etot = -23.7900391245338
340000  ekin = 0.206713944499701 |  erot = 0.844071346975516 | epot = -24.8408244159786 | etot = -23.7900391245034
341000  ekin = 0.208686345415482 |  erot = 0.874145384076371 | epot = -24.8728708539633 | etot = -23.7900391244715
342000  ekin = 0.211784318804668 |  erot = 0.906857565454113 | epot = -24.9086810087024 | etot = -23.7900391244436
343000  ekin = 0.216090868928179 |  erot = 0.94256799647928 | epot = -24.9486979898323 | etot = -23.7900391244248
344000  ekin = 0.221672935699032 |  erot = 0.981509614468067 | epot = -24.993221674585 | etot = -23.7900391244179
345000  ekin = 0.228567026261405 |  erot = 1.02375788521118 | epot = -25.0423640358962 | etot = -23.7900391244236
346000  ekin = 0.236770147998952 |  erot = 1.06922491197943 | epot = -25.0960341844199 | etot = -23.7900391244415
347000  ekin = 0.246236167851985 |  erot = 1.11767493881659 | epot = -25.153950231138 | etot = -23.7900391244694
348000  ekin = 0.256876719975238 |  erot = 1.16875469797133 | epot = -25.2156705424514 | etot = -23.7900391245049
349000  ekin = 0.268565262468932 |  erot = 1.22203041510355 | epot = -25.2806348021177 | etot = -23.7900391245453
350000  ekin = 0.281142828073968 |  erot = 1.27702360959187 | epot = -25.3482055622542 | etot = -23.7900391245883
351000  ekin = 0.294424302225642 |  erot = 1.3332397460301 | epot = -25.4177031728885 | etot = -23.7900391246327
352000  ekin = 0.308204528735686 |  erot = 1.39018665970996 | epot = -25.4884303131233 | etot = -23.7900391246776
353000  ekin = 0.322263990929826 |  erot = 1.44717373731095 | epot = -25.5594768530436 | etot = -23.7900391248028
354000  ekin = 0.336375789481406 |  erot = 1.50301081571769 | epot = -25.6294257300559 | etot = -23.7900391248568
355000  ekin = 0.350312786494774 |  erot = 1.55700867036031 | epot = -25.6973605817653 | etot = -23.7900391249102
356000  ekin = 0.363851829188622 |  erot = 1.60855323000831 | epot = -25.7624441841594 | etot = -23.7900391249625
357000  ekin = 0.376779291144327 |  erot = 1.65703708042375 | epot = -25.8238554965809 | etot = -23.7900391250129
358000  ekin = 0.388896574739057 |  erot = 1.70186439900406 | epot = -25.8808000988035 | etot = -23.7900391250604
359000  ekin = 0.400025271376765 |  erot = 1.74245972158213 | epot = -25.9325241180631 | etot = -23.7900391251042
360000  ekin = 0.410011919074085 |  erot = 1.77827935715184 | epot = -25.978330401369 | etot = -23.790039125143
361000  ekin = 0.418732521579849 |  erot = 1.80882422373266 | epot = -26.0175958704883 | etot = -23.7900391251758
362000  ekin = 0.426097173905396 |  erot = 1.83365339587253 | epot = -26.0497896949794 | etot = -23.7900391252015
363000  ekin = 0.432055117819731 |  erot = 1.8523982415809 | epot = -26.0744924846195 | etot = -23.7900391252189
364000  ekin = 0.436600230693625 |  erot = 1.86477716508814 | epot = -26.0914165210085 | etot = -23.7900391252267
365000  ekin = 0.439776356784695 |  erot = 1.870610368513 | epot = -26.1004258505218 | etot = -23.7900391252241
366000  ekin = 0.441681178025394 |  erot = 1.86983278966284 | epot = -26.1015530928988 | etot = -23.7900391252105
367000  ekin = 0.442466734963116 |  erot = 1.86250193136994 | epot = -26.0950077915195 | etot = -23.7900391251864
368000  ekin = 0.442334500251512 |  erot = 1.84879635360535 | epot = -26.0811699790102 | etot = -23.7900391251533
369000  ekin = 0.441523260326566 |  erot = 1.82900080664578 | epot = -26.0605631920866 | etot = -23.7900391251143
370000  ekin = 0.440289034533088 |  erot = 1.80347572015441 | epot = -26.0338038797614 | etot = -23.7900391250739
371000  ekin = 0.438814235580454 |  erot = 1.77260137115738 | epot = -26.0014547327518 | etot = -23.790039126014
372000  ekin = 0.429030652200452 |  erot = 1.73587783292888 | epot = -25.9549476103509 | etot = -23.7900391252215
373000  ekin = 0.412528196470656 |  erot = 1.696275953794 | epot = -25.898843274285 | etot = -23.7900391240204
374000  ekin = 0.402565712951316 |  erot = 1.65777334398468 | epot = -25.8503781807129 | etot = -23.7900391237769
375000  ekin = 0.403971135417974 |  erot = 1.61903084060605 | epot = -25.8130411008025 | etot = -23.7900391247785
376000  ekin = 0.409090687870887 |  erot = 1.57332499522022 | epot = -25.7724548089936 | etot = -23.7900391259025
377000  ekin = 0.40943362694909 |  erot = 1.51589009589552 | epot = -25.7153628466684 | etot = -23.7900391238238
378000  ekin = 0.408625581213756 |  erot = 1.45218725583197 | epot = -25.650851960905 | etot = -23.7900391238593
379000  ekin = 0.406951125456551 |  erot = 1.38305703177982 | epot = -25.5800472811152 | etot = -23.7900391238788
380000  ekin = 0.403959870956681 |  erot = 1.308656482972 | epot = -25.502655477801 | etot = -23.7900391238724
381000  ekin = 0.399325880308189 |  erot = 1.22942325575377 | epot = -25.4187882598945 | etot = -23.7900391238325
382000  ekin = 0.392898097128688 |  erot = 1.14614275793552 | epot = -25.3290799788198 | etot = -23.7900391237556
383000  ekin = 0.38473250381917 |  erot = 1.0599731625296 | epot = -25.2347447899912 | etot = -23.7900391236424
384000  ekin = 0.375101511126639 |  erot = 0.972419288775988 | epot = -25.1375599234019 | etot = -23.7900391234993
385000  ekin = 0.364479395147549 |  erot = 0.885255828975635 | epot = -25.0397743474591 | etot = -23.7900391233359
386000  ekin = 0.353505837777303 |  erot = 0.800409682623871 | epot = -24.9439546435658 | etot = -23.7900391231646
387000  ekin = 0.342932229452248 |  erot = 0.7198181652124 | epot = -24.8527895176638 | etot = -23.7900391229991
388000  ekin = 0.333557067862073 |  erot = 0.645283235694707 | epot = -24.7688794264086 | etot = -23.7900391228519
389000  ekin = 0.326157514209626 |  erot = 0.578341394968626 | epot = -24.6945380319116 | etot = -23.7900391227334
390000  ekin = 0.321424085456651 |  erot = 0.520165242965146 | epot = -24.6316284510724 | etot = -23.7900391226506
391000  ekin = 0.31990472016495 |  erot = 0.471507023929867 | epot = -24.5814508667018 | etot = -23.790039122607
392000  ekin = 0.32196315892607 |  erot = 0.432688047279184 | epot = -24.5446903288072 | etot = -23.7900391226019
393000  ekin = 0.327754805540231 |  erot = 0.403631616290282 | epot = -24.5214255444618 | etot = -23.7900391226313
394000  ekin = 0.337221115447451 |  erot = 0.3839317163468 | epot = -24.5111919544829 | etot = -23.7900391226886
395000  ekin = 0.350101341716543 |  erot = 0.372945694180964 | epot = -24.5130861586631 | etot = -23.7900391227656
396000  ekin = 0.365958504677532 |  erot = 0.369896868414706 | epot = -24.5258944959461 | etot = -23.7900391228538
397000  ekin = 0.38421509792891 |  erot = 0.373972708974981 | epot = -24.5482269298491 | etot = -23.7900391229452
398000  ekin = 0.404193549060274 |  erot = 0.38440597987936 | epot = -24.5786386519736 | etot = -23.790039123034
399000  ekin = 0.425156862458297 |  erot = 0.400529831232201 | epot = -24.6157258168063 | etot = -23.7900391231158
400000  ekin = 0.446346003574358 |  erot = 0.421802675592048 | epot = -24.6581878023556 | etot = -23.7900391231892
401000  ekin = 0.467012092523706 |  erot = 0.447803927074056 | epot = -24.7048551428518 | etot = -23.790039123254
402000  ekin = 0.486442959859688 |  erot = 0.478206353715104 | epot = -24.7546884368866 | etot = -23.7900391233118
403000  ekin = 0.503984745435518 |  erot = 0.512734074273913 | epot = -24.8067579430737 | etot = -23.7900391233643
404000  ekin = 0.519059808785595 |  erot = 0.551116645655674 | epot = -24.8602155778542 | etot = -23.7900391234129
405000  ekin = 0.531182254413652 |  erot = 0.59304918666007 | epot = -24.9142705645321 | etot = -23.7900391234584
406000  ekin = 0.539971981641789 |  erot = 0.638166381115822 | epot = -24.968177486258 | etot = -23.7900391235004
407000  ekin = 0.545167538285381 |  erot = 0.686035028069528 | epot = -25.0212416898924 | etot = -23.7900391235375
408000  ekin = 0.546637383428196 |  erot = 0.736166150922287 | epot = -25.0728426579179 | etot = -23.7900391235674
409000  ekin = 0.5443885983366 |  erot = 0.788044096216043 | epot = -25.1224718181399 | etot = -23.7900391235872
410000  ekin = 0.53857172382573 |  erot = 0.841167025521644 | epot = -25.1697778729416 | etot = -23.7900391235943
411000  ekin = 0.529480300562108 |  erot = 0.895091127481336 | epot = -25.2146105516299 | etot = -23.7900391235865
412000  ekin = 0.517543868400564 |  erot = 0.949470050045892 | epot = -25.2570530420097 | etot = -23.7900391235632
413000  ekin = 0.503313638092292 |  erot = 1.00408163093733 | epot = -25.2974343925551 | etot = -23.7900391235255
414000  ekin = 0.487440745893922 |  erot = 1.05883594024681 | epot = -25.3363158096168 | etot = -23.7900391234761
415000  ekin = 0.470647855429748 |  erot = 1.11376165413099 | epot = -25.3744486329802 | etot = -23.7900391234194
416000  ekin = 0.45369574933059 |  erot = 1.16897134078945 | epot = -25.4127062134812 | etot = -23.7900391233611
417000  ekin = 0.437347289988679 |  erot = 1.22460971396875 | epot = -25.451996127265 | etot = -23.7900391233076
418000  ekin = 0.422331561439019 |  erot = 1.28079166166703 | epot = -25.4931623463706 | etot = -23.7900391232646
419000  ekin = 0.409311021638088 |  erot = 1.3375384252574 | epot = -25.5368885701329 | etot = -23.7900391232374
420000  ekin = 0.398854080178519 |  erot = 1.39472051273445 | epot = -25.5836137161431 | etot = -23.7900391232302
421000  ekin = 0.391414768067813 |  erot = 1.45201492742589 | epot = -25.6334688187384 | etot = -23.7900391232447
422000  ekin = 0.387320271870791 |  erot = 1.50888247558338 | epot = -25.6862418707355 | etot = -23.7900391232814
423000  ekin = 0.386766280282915 |  erot = 1.5645687564617 | epot = -25.7413741600827 | etot = -23.790039123338
424000  ekin = 0.389819497991408 |  erot = 1.618130287583 | epot = -25.7979889089853 | etot = -23.7900391234109
425000  ekin = 0.396426360456781 |  erot = 1.6684851629781 | epot = -25.8549506469294 | etot = -23.7900391234946
426000  ekin = 0.406426844539363 |  erot = 1.71448551146892 | epot = -25.9109514795905 | etot = -23.7900391235822
427000  ekin = 0.419572150254858 |  erot = 1.7550065579614 | epot = -25.9646178318825 | etot = -23.7900391236662
428000  ekin = 0.435544790769686 |  erot = 1.78904422265176 | epot = -26.0146281371608 | etot = -23.7900391237393
429000  ekin = 0.453979252402893 |  erot = 1.81581026927041 | epot = -26.0598286454689 | etot = -23.7900391237956
430000  ekin = 0.474481010653074 |  erot = 1.83481184887006 | epot = -26.0993319833535 | etot = -23.7900391238304
431000  ekin = 0.496641560639004 |  erot = 1.84590195414268 | epot = -26.1325826386245 | etot = -23.7900391238429
432000  ekin = 0.520047491245448 |  erot = 1.84928971534465 | epot = -26.1593763304251 | etot = -23.790039123835
433000  ekin = 0.544282622118243 |  erot = 1.84550491219318 | epot = -26.1798266581234 | etot = -23.790039123812
434000  ekin = 0.568923725361057 |  erot = 1.83531886925209 | epot = -26.1942817183949 | etot = -23.7900391237818
435000  ekin = 0.593532025543066 |  erot = 1.81963242556851 | epot = -26.2032035748646 | etot = -23.790039123753
436000  ekin = 0.617644025578515 |  erot = 1.79934877179399 | epot = -26.2070319211064 | etot = -23.7900391237339
437000  ekin = 0.640765786678198 |  erot = 1.77525263660177 | epot = -26.2060575470102 | etot = -23.7900391237302
438000  ekin = 0.662374356118628 |  erot = 1.74791643805541 | epot = -26.2003299179189 | etot = -23.7900391237448
439000  ekin = 0.681928662334803 |  erot = 1.71764870791565 | epot = -26.1896164940269 | etot = -23.7900391237764
440000  ekin = 0.698890246615497 |  erot = 1.68449165835756 | epot = -26.1734210287933 | etot = -23.7900391238202
441000  ekin = 0.712752182582017 |  erot = 1.64826523958341 | epot = -26.1510565460345 | etot = -23.7900391238691
442000  ekin = 0.723072918026522 |  erot = 1.60864658477922 | epot = -26.1217586267202 | etot = -23.7900391239145
443000  ekin = 0.729510854227968 |  erot = 1.565268055753 | epot = -26.0848180339292 | etot = -23.7900391239482
444000  ekin = 0.731855335130384 |  erot = 1.51781511262486 | epot = -26.0397095717188 | etot = -23.7900391239635
445000  ekin = 0.730050252489126 |  erot = 1.46610700124126 | epot = -25.9861963776867 | etot = -23.7900391239563
446000  ekin = 0.724207472496474 |  erot = 1.41014809093099 | epot = -25.9243946873528 | etot = -23.7900391239253
447000  ekin = 0.714608499465699 |  erot = 1.35014436621825 | epot = -25.8547919895561 | etot = -23.7900391238721
448000  ekin = 0.701693969323245 |  erot = 1.28648658717601 | epot = -25.7782196803001 | etot = -23.7900391238008
449000  ekin = 0.686041532206698 |  erot = 1.21970756365665 | epot = -25.6957882195805 | etot = -23.7900391237172
450000  ekin = 0.66833338022654 |  erot = 1.15042479176315 | epot = -25.6087972956171 | etot = -23.7900391236274
451000  ekin = 0.649315189961686 |  erot = 1.07928090466527 | epot = -25.5186352181648 | etot = -23.7900391235378
452000  ekin = 0.629748777054451 |  erot = 1.00689313953388 | epot = -25.4266810400421 | etot = -23.7900391234538
453000  ekin = 0.610361496770194 |  erot = 0.93381995377783 | epot = -25.3342205739274 | etot = -23.7900391233794
454000  ekin = 0.591796400128268 |  erot = 0.8605489151255 | epot = -25.2423844385708 | etot = -23.790039123317
455000  ekin = 0.574568118368816 |  erot = 0.787505888042453 | epot = -25.1521131296785 | etot = -23.7900391232672
456000  ekin = 0.559029893823473 |  erot = 0.715081968671636 | epot = -25.0641509857238 | etot = -23.7900391232287
457000  ekin = 0.545356563384768 |  erot = 0.643688119509765 | epot = -24.9790838060916 | etot = -23.7900391231971
458000  ekin = 0.533546408247225 |  erot = 0.573878550238611 | epot = -24.8974640816643 | etot = -23.7900391231785
459000  ekin = 0.523441798411278 |  erot = 0.506121718460676 | epot = -24.8196026400316 | etot = -23.7900391231597
460000  ekin = 0.514765238970169 |  erot = 0.440970221463017 | epot = -24.7457745835703 | etot = -23.7900391231371
461000  ekin = 0.507165125354466 |  erot = 0.379128613022901 | epot = -24.6763328614819 | etot = -23.7900391231045
462000  ekin = 0.500264327653449 |  erot = 0.321422210107782 | epot = -24.6117256608307 | etot = -23.7900391230695
463000  ekin = 0.493704956576522 |  erot = 0.268747105543209 | epot = -24.5524911851461 | etot = -23.7900391230264
464000  ekin = 0.48718429427766 |  erot = 0.22207408132992 | epot = -24.4992974985839 | etot = -23.7900391229763
465000  ekin = 0.480478816630528 |  erot = 0.182405793595644 | epot = -24.4529237331478 | etot = -23.7900391229216
466000  ekin = 0.473454983516246 |  erot = 0.150732877228208 | epot = -24.4142269836094 | etot = -23.7900391228649
467000  ekin = 0.466066830508207 |  erot = 0.127993615466404 | epot = -24.3840995687839 | etot = -23.7900391228093
468000  ekin = 0.458341357034643 |  erot = 0.115038851861382 | epot = -24.3634193316544 | etot = -23.7900391227584
469000  ekin = 0.450353542283587 |  erot = 0.112601591028585 | epot = -24.3529942560283 | etot = -23.7900391227161
470000  ekin = 0.442193787091791 |  erot = 0.121269396345741 | epot = -24.3535023061239 | etot = -23.7900391226863
471000  ekin = 0.433931745419571 |  erot = 0.141455903388386 | epot = -24.3654267714878 | etot = -23.7900391226798
472000  ekin = 0.425581694076141 |  erot = 0.173329957225263 | epot = -24.3889507739903 | etot = -23.7900391226889
473000  ekin = 0.417075409621926 |  erot = 0.216829100610659 | epot = -24.4239436329532 | etot = -23.7900391227206
474000  ekin = 0.408248406105185 |  erot = 0.271624585582117 | epot = -24.469912114467 | etot = -23.7900391227797
475000  ekin = 0.398844690551145 |  erot = 0.337001390238978 | epot = -24.5258852036501 | etot = -23.79003912286
476000  ekin = 0.388541387440065 |  erot = 0.41204775062491 | epot = -24.590628261023 | etot = -23.790039122958
477000  ekin = 0.376992219346424 |  erot = 0.495612358630526 | epot = -24.6626437010448 | etot = -23.7900391230679
478000  ekin = 0.363886117149507 |  erot = 0.586323440303617 | epot = -24.7402486806354 | etot = -23.7900391231822
479000  ekin = 0.349012521550539 |  erot = 0.682637329205833 | epot = -24.8216889740496 | etot = -23.7900391232933
480000  ekin = 0.33232262224045 |  erot = 0.782898240868094 | epot = -24.9052599865023 | etot = -23.7900391233937
481000  ekin = 0.313974820539497 |  erot = 0.885402626663033 | epot = -24.989416570681 | etot = -23.7900391234785
482000  ekin = 0.294353975566515 |  erot = 0.988460780587463 | epot = -25.0728538796991 | etot = -23.7900391235451
483000  ekin = 0.274057726789426 |  erot = 1.09044934275559 | epot = -25.1545461931394 | etot = -23.7900391235944
484000  ekin = 0.253848952448342 |  erot = 1.18985074279415 | epot = -25.2337388188722 | etot = -23.7900391236297
485000  ekin = 0.234580081763633 |  erot = 1.28527874407936 | epot = -25.3098979494993 | etot = -23.7900391236563
486000  ekin = 0.217100886779293 |  erot = 1.37549215222147 | epot = -25.3826321626805 | etot = -23.7900391236797
487000  ekin = 0.202164901419172 |  erot = 1.45940061670528 | epot = -25.4516046418296 | etot = -23.7900391237051
488000  ekin = 0.190349725485119 |  erot = 1.53606685416425 | epot = -25.5164557033848 | etot = -23.7900391237355
489000  ekin = 0.182003170024517 |  erot = 1.60470864173903 | epot = -25.5767509355353 | etot = -23.7900391237717
490000  ekin = 0.177221526042254 |  erot = 1.66470211099375 | epot = -25.6319627608484 | etot = -23.7900391238124
491000  ekin = 0.175859864152228 |  erot = 1.71558600333731 | epot = -25.6814849913442 | etot = -23.7900391238546
492000  ekin = 0.17756888013246 |  erot = 1.75706535843949 | epot = -25.7246733624665 | etot = -23.7900391238945
493000  ekin = 0.181849517480556 |  erot = 1.78901298023829 | epot = -25.7609016216469 | etot = -23.7900391239281
494000  ekin = 0.188115722865094 |  erot = 1.81146783025368 | epot = -25.7896226770705 | etot = -23.7900391239517
495000  ekin = 0.195756779572818 |  erot = 1.82463065943277 | epot = -25.8104265629681 | etot = -23.7900391239625
496000  ekin = 0.204192864032313 |  erot = 1.82885797952483 | epot = -25.8230899675154 | etot = -23.7900391239583
497000  ekin = 0.212919912450409 |  erot = 1.82465538438849 | epot = -25.8276144207767 | etot = -23.7900391239378
498000  ekin = 0.22153580792293 |  erot = 1.8124296106641 | epot = -25.8240045427237 | etot = -23.7900391241367
499000  ekin = 0.229838031271981 |  erot = 1.79213821709606 | epot = -25.8120153722923 | etot = -23.7900391239243
500000  ekin = 0.238205063456603 |  erot = 1.76615188711315 | epot = -25.7943960743561 | etot = -23.7900391237863
501000  ekin = 0.246700471161642 |  erot = 1.73641850530532 | epot = -25.7731581002736 | etot = -23.7900391238066
502000  ekin = 0.254429324031226 |  erot = 1.70357696037542 | epot = -25.7480454082822 | etot = -23.7900391238756
503000  ekin = 0.260846437445235 |  erot = 1.66766014403252 | epot = -25.7185457051778 | etot = -23.7900391237
504000  ekin = 0.267308233863425 |  erot = 1.62952903003555 | epot = -25.686876387516 | etot = -23.7900391236171
505000  ekin = 0.274267810032225 |  erot = 1.59014016994314 | epot = -25.6544471035192 | etot = -23.7900391235438
506000  ekin = 0.28204760105894 |  erot = 1.55028191200634 | epot = -25.6223686365512 | etot = -23.7900391234859
507000  ekin = 0.290936753573466 |  erot = 1.5105400874359 | epot = -25.591515964457 | etot = -23.7900391234476
508000  ekin = 0.301164126933064 |  erot = 1.47125754891002 | epot = -25.5624607992745 | etot = -23.7900391234314
509000  ekin = 0.312877400010703 |  erot = 1.43251621396271 | epot = -25.5354327374106 | etot = -23.7900391234372
510000  ekin = 0.326129909199499 |  erot = 1.39414580917365 | epot = -25.5103148418365 | etot = -23.7900391234634
511000  ekin = 0.340876307415718 |  erot = 1.35576042759457 | epot = -25.4866758585156 | etot = -23.7900391235054
512000  ekin = 0.356977505194763 |  erot = 1.31682082221476 | epot = -25.4638374509666 | etot = -23.7900391235571
513000  ekin = 0.37421459994146 |  erot = 1.27671733032932 | epot = -25.4409710538818 | etot = -23.790039123611
514000  ekin = 0.392310589312946 |  erot = 1.23486558951061 | epot = -25.4172153024826 | etot = -23.7900391236591
515000  ekin = 0.410957629737857 |  erot = 1.19080490061529 | epot = -25.3918016540473 | etot = -23.7900391236941
516000  ekin = 0.429846572846461 |  erot = 1.14428750395065 | epot = -25.3641732005062 | etot = -23.7900391237091
517000  ekin = 0.448694724285704 |  erot = 1.09534663859385 | epot = -25.3340804865804 | etot = -23.7900391237009
518000  ekin = 0.467267498774114 |  erot = 1.04433258000965 | epot = -25.3016392024525 | etot = -23.7900391236687
519000  ekin = 0.485390115596907 |  erot = 0.991909201038432 | epot = -25.267338440251 | etot = -23.7900391236157
520000  ekin = 0.502946759358017 |  erot = 0.939008786075693 | epot = -25.2319946689816 | etot = -23.7900391235479
521000  ekin = 0.519866584601532 |  erot = 0.886749067420706 | epot = -25.1966547754964 | etot = -23.7900391234741
522000  ekin = 0.536098247366028 |  erot = 0.836322535776221 | epot = -25.1624599065467 | etot = -23.7900391234045
523000  ekin = 0.551576878182631 |  erot = 0.788872724669816 | epot = -25.1304887262013 | etot = -23.7900391233488
524000  ekin = 0.566189153696806 |  erot = 0.745374431364392 | epot = -25.1016027083767 | etot = -23.7900391233155
525000  ekin = 0.579743060303047 |  erot = 0.706534351654119 | epot = -25.076316535267 | etot = -23.7900391233098
526000  ekin = 0.591948898172794 |  erot = 0.672725622451463 | epot = -25.054713643958 | etot = -23.7900391233337
527000  ekin = 0.602417013844082 |  erot = 0.643964967638409 | epot = -25.0364211048671 | etot = -23.7900391233846
528000  ekin = 0.610675750611466 |  erot = 0.619935374414571 | epot = -25.0206502484816 | etot = -23.7900391234556
529000  ekin = 0.61621032626554 |  erot = 0.600051263210217 | epot = -25.0063007130126 | etot = -23.7900391235368
530000  ekin = 0.61852002676726 |  erot = 0.583557557062206 | epot = -24.9921167074457 | etot = -23.7900391236162
531000  ekin = 0.617187601789494 |  erot = 0.569649390731314 | epot = -24.9768761162017 | etot = -23.7900391236809
532000  ekin = 0.611951594545624 |  erot = 0.557595926797644 | epot = -24.9595866450632 | etot = -23.7900391237199
533000  ekin = 0.602770235729724 |  erot = 0.546850464005115 | epot = -24.9396598234599 | etot = -23.7900391237251
534000  ekin = 0.589865228715384 |  erot = 0.537130326700711 | epot = -24.9170346791089 | etot = -23.7900391236928
535000  ekin = 0.573735780859267 |  erot = 0.528454202072907 | epot = -24.8922291065575 | etot = -23.7900391236254
536000  ekin = 0.555137586886106 |  erot = 0.521131278342664 | epot = -24.8663079887587 | etot = -23.79003912353
537000  ekin = 0.535027411618439 |  erot = 0.515704574076909 | epot = -24.8407711091133 | etot = -23.790039123418
538000  ekin = 0.5144801022477 |  erot = 0.512858536059061 | epot = -24.8173777616097 | etot = -23.7900391233029
539000  ekin = 0.494589749482473 |  erot = 0.513306645721113 | epot = -24.797935518402 | etot = -23.7900391231985
540000  ekin = 0.476369147555189 |  erot = 0.517677346606535 | epot = -24.7840856172784 | etot = -23.7900391231167
541000  ekin = 0.460661280521655 |  erot = 0.526415912669774 | epot = -24.7771163162575 | etot = -23.7900391230661
542000  ekin = 0.448073707862957 |  erot = 0.539716503549202 | epot = -24.7778293344628 | etot = -23.7900391230506
543000  ekin = 0.438942388200813 |  erot = 0.5574935508017 | epot = -24.7864750620719 | etot = -23.7900391230694
544000  ekin = 0.433326731217319 |  erot = 0.579395725264762 | epot = -24.8027615795999 | etot = -23.7900391231178
545000  ekin = 0.431033355684616 |  erot = 0.604859779924285 | epot = -24.8259322587959 | etot = -23.790039123187
546000  ekin = 0.431662668036648 |  erot = 0.633196087332938 | epot = -24.8548978786364 | etot = -23.7900391232668
547000  ekin = 0.434670184958365 |  erot = 0.663693175545215 | epot = -24.8884024838494 | etot = -23.7900391233458
548000  ekin = 0.439433560806863 |  erot = 0.695725525385403 | epot = -24.9251982096063 | etot = -23.7900391234141
549000  ekin = 0.445316525176308 |  erot = 0.728847856776031 | epot = -24.9642035054164 | etot = -23.790039123464
550000  ekin = 0.451722308545276 |  erot = 0.762860518642527 | epot = -25.0046219506795 | etot = -23.7900391234917
551000  ekin = 0.45813146069963 |  erot = 0.797834509141528 | epot = -25.0460050933383 | etot = -23.7900391234971
552000  ekin = 0.464121933138339 |  erot = 0.834090717540596 | epot = -25.0882517741633 | etot = -23.7900391234843
553000  ekin = 0.469372441642628 |  erot = 0.872135301496208 | epot = -25.1315468665994 | etot = -23.7900391234606
554000  ekin = 0.473652896660671 |  erot = 0.912560399248666 | epot = -25.1762524193434 | etot = -23.7900391234341
555000  ekin = 0.476807556839182 |  erot = 0.955925202647994 | epot = -25.222771882901 | etot = -23.7900391234138
556000  ekin = 0.478737152110372 |  erot = 1.00263558112999 | epot = -25.2714118566479 | etot = -23.7900391234076
557000  ekin = 0.47938543589885 |  erot = 1.05284028739097 | epot = -25.3222648467098 | etot = -23.79003912342
558000  ekin = 0.47873368147888 |  erot = 1.10635837130684 | epot = -25.3751311762385 | etot = -23.7900391234528
559000  ekin = 0.476804038514239 |  erot = 1.16264661206116 | epot = -25.4294897740801 | etot = -23.7900391235047
560000  ekin = 0.473670073521008 |  erot = 1.22080894584475 | epot = -25.4845181429373 | etot = -23.7900391235716
561000  ekin = 0.46947087096585 |  erot = 1.279643613727 | epot = -25.5391536083404 | etot = -23.7900391236476
562000  ekin = 0.464424203241423 |  erot = 1.33771941796354 | epot = -25.5921827449312 | etot = -23.7900391237262
563000  ekin = 0.458834591769922 |  erot = 1.39347071165564 | epot = -25.6423444272267 | etot = -23.7900391238011
564000  ekin = 0.453093333635813 |  erot = 1.44530131099981 | epot = -25.6884337685019 | etot = -23.7900391238663
565000  ekin = 0.447669264672399 |  erot = 1.49168936920586 | epot = -25.729397757795 | etot = -23.7900391239167
566000  ekin = 0.443090613239236 |  erot = 1.53128699564309 | epot = -25.7644167328307 | etot = -23.7900391239483
567000  ekin = 0.439919353580492 |  erot = 1.56300895124109 | epot = -25.7929674287803 | etot = -23.7900391239587
568000  ekin = 0.438719867990785 |  erot = 1.58610388303208 | epot = -25.8148628749699 | etot = -23.790039123947
569000  ekin = 0.440023665065788 |  erot = 1.60020013698003 | epot = -25.8302629259606 | etot = -23.7900391239148
570000  ekin = 0.444291776094773 |  erot = 1.60531781907025 | epot = -25.8396487190314 | etot = -23.7900391238663
571000  ekin = 0.451876657409732 |  erot = 1.60184103715953 | epot = -25.8437568183773 | etot = -23.7900391238081
572000  ekin = 0.462986128804099 |  erot = 1.59044979181301 | epot = -25.8434750443656 | etot = -23.7900391237485
573000  ekin = 0.47765288754731 |  erot = 1.57201893730766 | epot = -25.8397109485514 | etot = -23.7900391236964
574000  ekin = 0.495713959036417 |  erot = 1.54749977540058 | epot = -25.8332528580966 | etot = -23.7900391236596
575000  ekin = 0.516804498113743 |  erot = 1.51780539414757 | epot = -25.8246490159044 | etot = -23.7900391236431
576000  ekin = 0.540369262101908 |  erot = 1.48372163623926 | epot = -25.8141300219891 | etot = -23.7900391236479
577000  ekin = 0.56569287046983 |  erot = 1.44586089481106 | epot = -25.8015928889518 | etot = -23.7900391236709
578000  ekin = 0.591947103877853 |  erot = 1.40466686370321 | epot = -25.7866530912858 | etot = -23.7900391237047
579000  ekin = 0.618250677554905 |  erot = 1.36046728111559 | epot = -25.7687570824105 | etot = -23.79003912374
580000  ekin = 0.643734823179876 |  erot = 1.31356138642768 | epot = -25.7473353333736 | etot = -23.790039123766
581000  ekin = 0.66760705405522 |  erot = 1.26432160530221 | epot = -25.721967783131 | etot = -23.7900391237736
582000  ekin = 0.689205765384492 |  erot = 1.21328625551728 | epot = -25.6925311446581 | etot = -23.7900391237563
583000  ekin = 0.708039656628094 |  erot = 1.16122207017952 | epot = -25.6593008505193 | etot = -23.7900391237116
584000  ekin = 0.723808030426679 |  erot = 1.10914133913742 | epot = -25.622988493206 | etot = -23.7900391236419
585000  ekin = 0.736400469170309 |  erot = 1.05826707931756 | epot = -25.5847066720417 | etot = -23.7900391235538
586000  ekin = 0.745876907590456 |  erot = 1.00994915498384 | epot = -25.5458651860313 | etot = -23.790039123457
587000  ekin = 0.752431465086691 |  erot = 0.965543008127968 | epot = -25.5080135965783 | etot = -23.7900391233636
588000  ekin = 0.756345382382651 |  erot = 0.926269268273415 | epot = -25.4726537739413 | etot = -23.7900391232852
589000  ekin = 0.757935848626587 |  erot = 0.893076102567141 | epot = -25.4410510744259 | etot = -23.7900391232321
590000  ekin = 0.757508220891931 |  erot = 0.866526349132341 | epot = -25.4140736932351 | etot = -23.7900391232108
591000  ekin = 0.755318928873821 |  erot = 0.846728285740508 | epot = -25.3920863378379 | etot = -23.7900391232236
592000  ekin = 0.751555056200336 |  erot = 0.833322715096659 | epot = -25.3749168945642 | etot = -23.7900391232672
593000  ekin = 0.746334151427763 |  erot = 0.825530633239909 | epot = -25.3619039080017 | etot = -23.790039123334
594000  ekin = 0.739724426964318 |  erot = 0.822256196572739 | epot = -25.3520197469495 | etot = -23.7900391234124
595000  ekin = 0.731781618504818 |  erot = 0.82223047954806 | epot = -25.344051221542 | etot = -23.7900391234891
596000  ekin = 0.722595119505632 |  erot = 0.82417427884581 | epot = -25.3368085219024 | etot = -23.7900391235509
597000  ekin = 0.712333408670581 |  erot = 0.826954499487982 | epot = -25.3293270317465 | etot = -23.7900391235879
598000  ekin = 0.701277994161095 |  erot = 0.829709443521126 | epot = -25.3210265612765 | etot = -23.7900391235943
599000  ekin = 0.689836536788383 |  erot = 0.831923731615938 | epot = -25.3117993919744 | etot = -23.7900391235701
600000  ekin = 0.678529440970312 |  erot = 0.833442746988177 | epot = -25.3020113114793 | etot = -23.7900391235209
601000  ekin = 0.66794942739428 |  erot = 0.834427658661855 | epot = -25.2924162095128 | etot = -23.7900391234566
602000  ekin = 0.658699349826662 |  erot = 0.835262990720813 | epot = -25.2840014639374 | etot = -23.7900391233899
603000  ekin = 0.65131843915301 |  erot = 0.836437039278605 | epot = -25.2777946017651 | etot = -23.7900391233335
604000  ekin = 0.646209975140923 |  erot = 0.838419365885024 | epot = -25.2746684643236 | etot = -23.7900391232976
605000  ekin = 0.643583310927911 |  erot = 0.841558256711795 | epot = -25.2751806909284 | etot = -23.7900391232887
606000  ekin = 0.64342021198997 |  erot = 0.846014862300525 | epot = -25.2794741975989 | etot = -23.7900391233084
607000  ekin = 0.645470465446793 |  erot = 0.851741428999993 | epot = -25.2872510178005 | etot = -23.7900391233537
608000  ekin = 0.64927607353124 |  erot = 0.858501152015224 | epot = -25.2978163489647 | etot = -23.7900391234183
609000  ekin = 0.639085943201295 |  erot = 0.861004157197065 | epot = -25.2901292268924 | etot = -23.790039126494
610000  ekin = 0.566786533143767 |  erot = 0.842435945142895 | epot = -25.1992615971291 | etot = -23.7900391188425
611000  ekin = 0.506381410193273 |  erot = 0.827095312630419 | epot = -25.1235158352475 | etot = -23.7900391124238
612000  ekin = 0.526365735219948 |  erot = 0.838579492352567 | epot = -25.1549843422019 | etot = -23.7900391146293
613000  ekin = 0.604139106484263 |  erot = 0.867772350515915 | epot = -25.2619505799791 | etot = -23.790039122979
614000  ekin = 0.651408189218262 |  erot = 0.883042442817913 | epot = -25.3244897599989 | etot = -23.7900391279627
615000  ekin = 0.644369488546842 |  erot = 0.879042214565084 | epot = -25.3134508156842 | etot = -23.7900391125722
616000  ekin = 0.632240395977201 |  erot = 0.87556877423098 | epot = -25.2978482827438 | etot = -23.7900391125357
617000  ekin = 0.61579774137583 |  erot = 0.873438367734591 | epot = -25.2792752216003 | etot = -23.7900391124899
618000  ekin = 0.595248804242663 |  erot = 0.873129534809572 | epot = -25.2584174514915 | etot = -23.7900391124393
619000  ekin = 0.570978980522295 |  erot = 0.875014502892788 | epot = -25.2360325958031 | etot = -23.790039112388
620000  ekin = 0.543529465529418 |  erot = 0.879321233060006 | epot = -25.2128898109286 | etot = -23.7900391123392
621000  ekin = 0.513572132294004 |  erot = 0.886111694545694 | epot = -25.1897229391345 | etot = -23.7900391122948
622000  ekin = 0.481883048014074 |  erot = 0.895277423745063 | epot = -25.1671995840152 | etot = -23.7900391122561
623000  ekin = 0.449315329900908 |  erot = 0.906551618688138 | epot = -25.1459060608121 | etot = -23.7900391122231
624000  ekin = 0.416771394296749 |  erot = 0.919535383982238 | epot = -25.1263458904745 | etot = -23.7900391121955
625000  ekin = 0.38517421001726 |  erot = 0.933734301759989 | epot = -25.1089476239497 | etot = -23.7900391121724
626000  ekin = 0.355437017130848 |  erot = 0.948600445126307 | epot = -25.09407657441 | etot = -23.7900391121529
627000  ekin = 0.328431180327665 |  erot = 0.963574604890119 | epot = -25.0820448973543 | etot = -23.7900391121365
628000  ekin = 0.304952444906873 |  erot = 0.978124209169728 | epot = -25.0731157662 | etot = -23.7900391121234
629000  ekin = 0.285686830728461 |  erot = 0.991774291384171 | epot = -25.0675002342265 | etot = -23.7900391121138
630000  ekin = 0.271178608087808 |  erot = 1.00413155804238 | epot = -25.0653492782384 | etot = -23.7900391121082
631000  ekin = 0.26180396125679 |  erot = 1.01490422919235 | epot = -25.0667473025555 | etot = -23.7900391121063
632000  ekin = 0.257754601341913 |  erot = 1.02392161534331 | epot = -25.0717153287921 | etot = -23.7900391121069
633000  ekin = 0.259035216452942 |  erot = 1.03115624043242 | epot = -25.080230568993 | etot = -23.7900391121076
634000  ekin = 0.265476899484575 |  erot = 1.03674743002454 | epot = -25.0922634416147 | etot = -23.7900391121056
635000  ekin = 0.276765696141653 |  erot = 1.04101970278344 | epot = -25.1078245110233 | etot = -23.7900391120982
636000  ekin = 0.292481904133789 |  erot = 1.04448434202768 | epot = -25.1270053582461 | etot = -23.7900391120846
637000  ekin = 0.312142906747775 |  erot = 1.04781092553429 | epot = -25.1499929443487 | etot = -23.7900391120667
638000  ekin = 0.335241287486437 |  erot = 1.05175922901716 | epot = -25.1770396285533 | etot = -23.7900391120497
639000  ekin = 0.361271317959144 |  erot = 1.057070718995 | epot = -25.2083811489959 | etot = -23.7900391120418
640000  ekin = 0.389740330867522 |  erot = 1.06433060961993 | epot = -25.2441100525399 | etot = -23.7900391120524
641000  ekin = 0.420165917474288 |  erot = 1.07382269737507 | epot = -25.2840277269398 | etot = -23.7900391120905
642000  ekin = 0.452063954630318 |  erot = 1.08540653729709 | epot = -25.3275096040888 | etot = -23.7900391121614
643000  ekin = 0.484935004920855 |  erot = 1.09844779696033 | epot = -25.3734219141464 | etot = -23.7900391122652
644000  ekin = 0.518256985132848 |  erot = 1.11182707126445 | epot = -25.4201231687929 | etot = -23.7900391123956
645000  ekin = 0.551490046755713 |  erot = 1.12404039138254 | epot = -25.4655695506775 | etot = -23.7900391125392
646000  ekin = 0.584095705070248 |  erot = 1.13338725423385 | epot = -25.5075220719823 | etot = -23.7900391126782
647000  ekin = 0.615567184075745 |  erot = 1.1382215518731 | epot = -25.5438278487418 | etot = -23.790039112793
648000  ekin = 0.645463008032582 |  erot = 1.13722152685788 | epot = -25.5727236477572 | etot = -23.7900391128668
649000  ekin = 0.673432777131499 |  erot = 1.12962297093108 | epot = -25.5930948609525 | etot = -23.7900391128899
650000  ekin = 0.699224452379218 |  erot = 1.11536155188688 | epot = -25.6046251171282 | etot = -23.7900391128621
651000  ekin = 0.722667042512658 |  erot = 1.09508824553328 | epot = -25.6077944008395 | etot = -23.7900391127936
652000  ekin = 0.743630344716332 |  erot = 1.0700528286484 | epot = -25.6037222860665 | etot = -23.7900391127018
653000  ekin = 0.761971715492505 |  erot = 1.04188449340372 | epot = -25.5938953215034 | etot = -23.7900391126072
654000  ekin = 0.777485564704204 |  erot = 1.01232401979137 | epot = -25.5798486970237 | etot = -23.7900391125281
655000  ekin = 0.789872180076642 |  erot = 0.982970358370309 | epot = -25.5628816509233 | etot = -23.7900391124763
656000  ekin = 0.798738326220495 |  erot = 0.955094787163506 | epot = -25.5438722258388 | etot = -23.7900391124548
657000  ekin = 0.803634271662426 |  erot = 0.929553214398207 | epot = -25.5232265985188 | etot = -23.7900391124582
658000  ekin = 0.799844282745493 |  erot = 0.905883398732205 | epot = -25.4957668013539 | etot = -23.7900391198762
659000  ekin = 0.751812055366253 |  erot = 0.879530725591658 | epot = -25.4213818967653 | etot = -23.7900391158074
660000  ekin = 0.690233151777253 |  erot = 0.865183581017762 | epot = -25.3454558445195 | etot = -23.7900391117245
661000  ekin = 0.662085497150017 |  erot = 0.874561944640121 | epot = -25.326686554097 | etot = -23.7900391123069
[...]
837000  ekin = 0.293147051358647 |  erot = 1.60487582152742 | epot = -25.6880619840027 | etot = -23.7900391111166
838000  ekin = 0.277443239345736 |  erot = 1.5787935895071 | epot = -25.6462759400828 | etot = -23.7900391112299
839000  ekin = 0.264459172083071 |  erot = 1.54987312332464 | epot = -25.6043714067541 | etot = -23.7900391113464
840000  ekin = 0.254108063948756 |  erot = 1.5163397071516 | epot = -25.5604868825423 | etot = -23.7900391114419
841000  ekin = 0.246246189664275 |  erot = 1.47680056512643 | epot = -25.5130858662901 | etot = -23.7900391114993
842000  ekin = 0.240730257239004 |  erot = 1.43045823868685 | epot = -25.4612276074368 | etot = -23.790039111511
843000  ekin = 0.237449205908415 |  erot = 1.37719948212687 | epot = -25.4046877995146 | etot = -23.7900391114793
844000  ekin = 0.236327032137109 |  erot = 1.31755577923042 | epot = -25.3439219227823 | etot = -23.7900391114148
845000  ekin = 0.237300976507076 |  erot = 1.2525598746484 | epot = -25.2798999624885 | etot = -23.790039111333
846000  ekin = 0.240285740932766 |  erot = 1.18354377303134 | epot = -25.2138686252135 | etot = -23.7900391112494
847000  ekin = 0.245137454563145 |  erot = 1.11193172313438 | epot = -25.1471082888734 | etot = -23.7900391111759
848000  ekin = 0.251630021515566 |  erot = 1.03907518229772 | epot = -25.0807443149317 | etot = -23.7900391111185
849000  ekin = 0.259451744451912 |  erot = 0.966158575640462 | epot = -25.0156494311694 | etot = -23.790039111077
850000  ekin = 0.268223346397976 |  erot = 0.89418096664806 | epot = -24.9524434240926 | etot = -23.7900391110466
851000  ekin = 0.27753192762863 |  erot = 0.823996751240293 | epot = -24.891567789889 | etot = -23.7900391110201
852000  ekin = 0.286971086132417 |  erot = 0.756384291038583 | epot = -24.8333944881625 | etot = -23.7900391109915
853000  ekin = 0.296176670267464 |  erot = 0.692108391620858 | epot = -24.7783241728454 | etot = -23.7900391109571
854000  ekin = 0.30485043234569 |  erot = 0.631950513087714 | epot = -24.726840056351 | etot = -23.7900391109176
855000  ekin = 0.312768959661154 |  erot = 0.57669597644519 | epot = -24.6795040469831 | etot = -23.7900391108767
856000  ekin = 0.319780638872123 |  erot = 0.527084448992916 | epot = -24.6369041987048 | etot = -23.7900391108397
857000  ekin = 0.32579704731839 |  erot = 0.483742786077734 | epot = -24.5995789442072 | etot = -23.7900391108111
858000  ekin = 0.330785862133285 |  erot = 0.447123983871969 | epot = -24.5679489567982 | etot = -23.7900391107929
859000  ekin = 0.334770167635927 |  erot = 0.417471911343943 | epot = -24.5422811897645 | etot = -23.7900391107846
860000  ekin = 0.337835054673003 |  erot = 0.394821142009489 | epot = -24.5226953074658 | etot = -23.7900391107833
861000  ekin = 0.340138301607166 |  erot = 0.379028944184115 | epot = -24.509206356576 | etot = -23.7900391107847
862000  ekin = 0.341919199629762 |  erot = 0.369826694043588 | epot = -24.5017850044585 | etot = -23.7900391107852
863000  ekin = 0.343499064344306 |  erot = 0.3668735605582 | epot = -24.5004117356853 | etot = -23.7900391107828
864000  ekin = 0.345268672252968 |  erot = 0.36979700948955 | epot = -24.5051047925207 | etot = -23.7900391107782
865000  ekin = 0.347661117898378 |  erot = 0.378211183152359 | epot = -24.5159114118252 | etot = -23.7900391107745
866000  ekin = 0.351112383708342 |  erot = 0.391712925838007 | epot = -24.532864420322 | etot = -23.7900391107757
867000  ekin = 0.356015181361981 |  erot = 0.409863189289636 | epot = -24.555917481438 | etot = -23.7900391107864
868000  ekin = 0.362673504662358 |  erot = 0.432166361218122 | epot = -24.5848789766902 | etot = -23.7900391108098
869000  ekin = 0.371265375911155 |  erot = 0.458060479763315 | epot = -24.619364966521 | etot = -23.7900391108465
870000  ekin = 0.381819528940149 |  erot = 0.486927538646206 | epot = -24.6587861784814 | etot = -23.790039110895
871000  ekin = 0.394208813123851 |  erot = 0.518126663769897 | epot = -24.7023745878449 | etot = -23.7900391109512
872000  ekin = 0.408159821188496 |  erot = 0.551046120320814 | epot = -24.7492450525189 | etot = -23.7900391110096
873000  ekin = 0.423275572242233 |  erot = 0.585165092963383 | epot = -24.7984797762699 | etot = -23.7900391110643
874000  ekin = 0.439066660900691 |  erot = 0.620114296397571 | epot = -24.8492200684082 | etot = -23.79003911111
875000  ekin = 0.454986254005133 |  erot = 0.655725713234966 | epot = -24.9007510783826 | etot = -23.7900391111425
876000  ekin = 0.470465322404712 |  erot = 0.69206490538372 | epot = -24.9525693389475 | etot = -23.7900391111591
877000  ekin = 0.484945886778654 |  erot = 0.729442629131323 | epot = -25.0044276270687 | etot = -23.7900391111587
878000  ekin = 0.49791118679129 |  erot = 0.768404444988335 | epot = -25.0563547429214 | etot = -23.7900391111418
879000  ekin = 0.508912172570928 |  erot = 0.80969721562787 | epot = -25.1086484993096 | etot = -23.7900391111108
880000  ekin = 0.517589584417245 |  erot = 0.854210629111778 | epot = -25.1618393245991 | etot = -23.7900391110701
881000  ekin = 0.52369048962976 |  erot = 0.90289179644694 | epot = -25.2166213971027 | etot = -23.790039111026
882000  ekin = 0.527077957469289 |  erot = 0.956633104192496 | epot = -25.2737501726486 | etot = -23.7900391109869
883000  ekin = 0.527732870378219 |  erot = 1.01613835289158 | epot = -25.3339103342319 | etot = -23.7900391109621
884000  ekin = 0.525747633185836 |  erot = 1.08177874162146 | epot = -25.3975654857683 | etot = -23.790039110961
885000  ekin = 0.521312423036063 |  erot = 1.15345630093725 | epot = -25.4648078349645 | etot = -23.7900391109912
886000  ekin = 0.514695335128424 |  erot = 1.23049578717147 | epot = -25.5352302333578 | etot = -23.7900391110579
887000  ekin = 0.506218372920712 |  erot = 1.31158585093567 | epot = -25.6078433350184 | etot = -23.790039111162
888000  ekin = 0.496232060890888 |  erot = 1.39478692945393 | epot = -25.681058101644 | etot = -23.7900391112992
889000  ekin = 0.485092752692218 |  erot = 1.47761779091388 | epot = -25.7527496550657 | etot = -23.7900391114596
890000  ekin = 0.473148043656896 |  erot = 1.55722524107251 | epot = -25.8204123963571 | etot = -23.7900391116277
891000  ekin = 0.460735882285161 |  erot = 1.6306312105692 | epot = -25.8814062046377 | etot = -23.7900391117834
892000  ekin = 0.448200662958017 |  erot = 1.69503716106382 | epot = -25.9332769359258 | etot = -23.790039111904
893000  ekin = 0.435924368195936 |  erot = 1.74814844059483 | epot = -25.9741119207595 | etot = -23.7900391119687
894000  ekin = 0.424364074402041 |  erot = 1.78846549456164 | epot = -26.0028686809268 | etot = -23.7900391119631
895000  ekin = 0.414081715915431 |  erot = 1.81548203163326 | epot = -26.019602859432 | etot = -23.7900391118833
896000  ekin = 0.405750873404007 |  erot = 1.82973871650548 | epot = -26.0255287016483 | etot = -23.7900391117388
897000  ekin = 0.400129774352823 |  erot = 1.83270580628674 | epot = -26.0228746921912 | etot = -23.7900391115517
898000  ekin = 0.397998387125042 |  erot = 1.82650354260895 | epot = -26.0145410410871 | etot = -23.7900391113531
899000  ekin = 0.400067372206893 |  erot = 1.81350490838578 | epot = -26.003611391771 | etot = -23.7900391111783
900000  ekin = 0.406874573087485 |  erot = 1.79589210691879 | epot = -25.9928057910655 | etot = -23.7900391110592
901000  ekin = 0.418688889324328 |  erot = 1.77525077988028 | epot = -25.9839787802235 | etot = -23.7900391110189
902000  ekin = 0.435441527191815 |  erot = 1.75228389631302 | epot = -25.9777645345701 | etot = -23.7900391110653
903000  ekin = 0.456701216911459 |  erot = 1.72671135004876 | epot = -25.9734516781493 | etot = -23.790039111189
904000  ekin = 0.481703285766198 |  erot = 1.69739178164317 | epot = -25.9691341787728 | etot = -23.7900391113634
905000  ekin = 0.509432572888432 |  erot = 1.66266027940246 | epot = -25.9621319638394 | etot = -23.7900391115485
906000  ekin = 0.538747933478286 |  erot = 1.62082373484493 | epot = -25.9496107800229 | etot = -23.7900391116997
907000  ekin = 0.568524182201805 |  erot = 1.57070675264463 | epot = -25.9292700466251 | etot = -23.7900391117787
908000  ekin = 0.597780085134509 |  erot = 1.51211352918719 | epot = -25.8999327260852 | etot = -23.7900391117635
909000  ekin = 0.625762448274904 |  erot = 1.44608130515416 | epot = -25.8618828650836 | etot = -23.7900391116546
910000  ekin = 0.651967443228207 |  erot = 1.37485162685629 | epot = -25.8168581815591 | etot = -23.7900391114746
911000  ekin = 0.676097612541289 |  erot = 1.301560690543 | epot = -25.7676974143468 | etot = -23.7900391112625
912000  ekin = 0.697970180889101 |  erot = 1.22972183467548 | epot = -25.7177311266292 | etot = -23.7900391110646
913000  ekin = 0.717403696279242 |  erot = 1.16261799049217 | epot = -25.6700607976952 | etot = -23.7900391109237
914000  ekin = 0.734113405371612 |  erot = 1.1027315487699 | epot = -25.6268840650127 | etot = -23.7900391108711
915000  ekin = 0.747642336786213 |  erot = 1.05132103472245 | epot = -25.5890024824291 | etot = -23.7900391109204
916000  ekin = 0.757347284893515 |  erot = 1.00822100777878 | epot = -25.5556074037371 | etot = -23.7900391110648
917000  ekin = 0.76244836640534 |  erot = 0.971902048677947 | epot = -25.5243895263608 | etot = -23.7900391112776
918000  ekin = 0.76213807502931 |  erot = 0.939783325655507 | epot = -25.4919605122015 | etot = -23.7900391115167
919000  ekin = 0.755731684810345 |  erot = 0.908741957223648 | epot = -25.4545127537672 | etot = -23.7900391117332
920000  ekin = 0.742828320945364 |  erot = 0.875718467131593 | epot = -25.4085858999584 | etot = -23.7900391118815
921000  ekin = 0.7234456898947 |  erot = 0.838290840761909 | epot = -25.3517756425866 | etot = -23.79003911193
922000  ekin = 0.698095327944889 |  erot = 0.795095710411427 | epot = -25.2832301502235 | etot = -23.7900391118672
923000  ekin = 0.667779462367825 |  erot = 0.746017168842435 | epot = -25.2038357429127 | etot = -23.7900391117024
924000  ekin = 0.633910428314772 |  erot = 0.692127886840001 | epot = -25.1160774266168 | etot = -23.7900391114621
925000  ekin = 0.598171628312852 |  erot = 0.635429303717004 | epot = -25.0236400432109 | etot = -23.7900391111811
926000  ekin = 0.562349256298728 |  erot = 0.578476456855837 | epot = -24.9308648240503 | etot = -23.7900391108957
927000  ekin = 0.528164671330808 |  erot = 0.523980655520509 | epot = -24.8421844374881 | etot = -23.7900391106367
928000  ekin = 0.497130718640389 |  erot = 0.474465587858236 | epot = -24.7616354169251 | etot = -23.7900391104265
929000  ekin = 0.470445579472258 |  erot = 0.432022185944425 | epot = -24.6925068756934 | etot = -23.7900391102767
930000  ekin = 0.448928461809353 |  erot = 0.398176350617972 | epot = -24.6371439226182 | etot = -23.7900391101908
931000  ekin = 0.432994567810418 |  erot = 0.373858610894519 | epot = -24.5968922888702 | etot = -23.7900391101652
932000  ekin = 0.422662765392157 |  erot = 0.359448909924841 | epot = -24.5721507855089 | etot = -23.7900391101919
933000  ekin = 0.417587919996278 |  erot = 0.35486347053748 | epot = -24.5624905007956 | etot = -23.7900391102619
934000  ekin = 0.417110310299758 |  erot = 0.3596532881693 | epot = -24.5668027088346 | etot = -23.7900391103655
935000  ekin = 0.420316301387707 |  erot = 0.373093230711955 | epot = -24.583448642594 | etot = -23.7900391104943
936000  ekin = 0.426106767838631 |  erot = 0.394253702647699 | epot = -24.6103995811258 | etot = -23.7900391106395
937000  ekin = 0.433150994650765 |  erot = 0.421962222098681 | epot = -24.6451523293559 | etot = -23.7900391126064
938000  ekin = 0.433930113253702 |  erot = 0.449977060172046 | epot = -24.6739462851241 | etot = -23.7900391116983
939000  ekin = 0.431890457655785 |  erot = 0.480043077418677 | epot = -24.7019726455257 | etot = -23.7900391104512
940000  ekin = 0.43719042260915 |  erot = 0.519760953751984 | epot = -24.7469904868027 | etot = -23.7900391104415
941000  ekin = 0.448307990000165 |  erot = 0.570651886034209 | epot = -24.8089989878373 | etot = -23.7900391118029
942000  ekin = 0.451991341684723 |  erot = 0.626303259817202 | epot = -24.8683337145616 | etot = -23.7900391130597
943000  ekin = 0.441533357316584 |  erot = 0.680397846027619 | epot = -24.9119703141778 | etot = -23.7900391108336
944000  ekin = 0.42665156341222 |  erot = 0.735344108943835 | epot = -24.9520347831266 | etot = -23.7900391107705
945000  ekin = 0.408960497862769 |  erot = 0.791508462359137 | epot = -24.9905080708924 | etot = -23.7900391106705
946000  ekin = 0.389666490267631 |  erot = 0.849247726394342 | epot = -25.0289533272154 | etot = -23.7900391105534
947000  ekin = 0.370138305207528 |  erot = 0.909024721771383 | epot = -25.0692021374217 | etot = -23.7900391104427
948000  ekin = 0.351761607081698 |  erot = 0.9711871481479 | epot = -25.1129878655912 | etot = -23.7900391103616
949000  ekin = 0.335792225635156 |  erot = 1.03575422468172 | epot = -25.1615855606453 | etot = -23.7900391103284
950000  ekin = 0.323228278098276 |  erot = 1.10225525890399 | epot = -25.2155226473564 | etot = -23.7900391103542
951000  ekin = 0.314716432818484 |  erot = 1.16965148720781 | epot = -25.2744070304671 | etot = -23.7900391104408
952000  ekin = 0.310501085748663 |  erot = 1.23635583970568 | epot = -25.3368960360354 | etot = -23.7900391105811
953000  ekin = 0.310419635611159 |  erot = 1.30035111715968 | epot = -25.4008098635302 | etot = -23.7900391107593
954000  ekin = 0.313943547309825 |  erot = 1.35939755729443 | epot = -25.4633802155568 | etot = -23.7900391109525
955000  ekin = 0.320262421582921 |  erot = 1.41131278079306 | epot = -25.5216143135084 | etot = -23.7900391111324
956000  ekin = 0.32840455527335 |  erot = 1.45429552055022 | epot = -25.5727391870927 | etot = -23.7900391112692
957000  ekin = 0.337381094347184 |  erot = 1.48724772662323 | epot = -25.6146679323067 | etot = -23.7900391113363
958000  ekin = 0.34633304766838 |  erot = 1.51003305558571 | epot = -25.6464052145713 | etot = -23.7900391113172
959000  ekin = 0.354654778133022 |  erot = 1.52360423445752 | epot = -25.6682981238008 | etot = -23.7900391112103
960000  ekin = 0.362068124105807 |  erot = 1.5299468869765 | epot = -25.6820541221137 | etot = -23.7900391110314
961000  ekin = 0.36862981989556 |  erot = 1.53182414084452 | epot = -25.6904930715514 | etot = -23.7900391108113
962000  ekin = 0.374669691453909 |  erot = 1.53235483375417 | epot = -25.6970636357985 | etot = -23.7900391105904
963000  ekin = 0.380673833095345 |  erot = 1.53450217551559 | epot = -25.7052151190212 | etot = -23.7900391104102
964000  ekin = 0.387140587886263 |  erot = 1.54057476147658 | epot = -25.717754459667 | etot = -23.7900391103042
965000  ekin = 0.394443756825061 |  erot = 1.55184098480004 | epot = -25.7363238519163 | etot = -23.7900391102912
966000  ekin = 0.402735175696582 |  erot = 1.56833283529933 | epot = -25.7611071213678 | etot = -23.7900391103718
967000  ekin = 0.41190805330961 |  erot = 1.58887328090028 | epot = -25.790820444739 | etot = -23.7900391105291
968000  ekin = 0.421626041519252 |  erot = 1.6113131031179 | epot = -25.8229782553699 | etot = -23.7900391107327
969000  ekin = 0.431405640612745 |  erot = 1.63291930324115 | epot = -25.8543640548004 | etot = -23.7900391109465
970000  ekin = 0.44072660835025 |  erot = 1.65082850595313 | epot = -25.8815942254397 | etot = -23.7900391111363
971000  ekin = 0.4491404856656 |  erot = 1.66247245183558 | epot = -25.9016520487778 | etot = -23.7900391112766
972000  ekin = 0.456351951292614 |  erot = 1.66589969829461 | epot = -25.9122907609411 | etot = -23.7900391113539
973000  ekin = 0.462258825196218 |  erot = 1.65995158872078 | epot = -25.912249525284 | etot = -23.790039111367
974000  ekin = 0.466949540869572 |  erot = 1.64428979322752 | epot = -25.9012784454213 | etot = -23.7900391113242
975000  ekin = 0.470667376419649 |  erot = 1.61930521384373 | epot = -25.8800117015029 | etot = -23.7900391112395
976000  ekin = 0.473756039581101 |  erot = 1.58595565035384 | epot = -25.8497508010635 | etot = -23.7900391111285
977000  ekin = 0.476600954657754 |  erot = 1.54558021135001 | epot = -25.8122202770132 | etot = -23.7900391110055
978000  ekin = 0.479576254469885 |  erot = 1.49972559459982 | epot = -25.7693409599517 | etot = -23.790039110882
979000  ekin = 0.483001580489291 |  erot = 1.45000046822557 | epot = -25.7230411594823 | etot = -23.7900391107675
980000  ekin = 0.487108097547807 |  erot = 1.39795778859058 | epot = -25.6751049968081 | etot = -23.7900391106697
981000  ekin = 0.492011630457874 |  erot = 1.34499744343224 | epot = -25.6270481844852 | etot = -23.7900391105951
982000  ekin = 0.497692855892937 |  erot = 1.29228475055522 | epot = -25.5800167169966 | etot = -23.7900391105485
983000  ekin = 0.503988357479827 |  erot = 1.24069005817064 | epot = -25.5347175261817 | etot = -23.7900391105312
984000  ekin = 0.510599087038247 |  erot = 1.1907633157693 | epot = -25.4914015133476 | etot = -23.79003911054
985000  ekin = 0.51712167820714 |  erot = 1.14275789322859 | epot = -25.4499186820022 | etot = -23.7900391105665
986000  ekin = 0.523102407775362 |  erot = 1.09670763113182 | epot = -25.409849149506 | etot = -23.7900391105988
987000  ekin = 0.528105301573009 |  erot = 1.05254373758129 | epot = -25.3706881497785 | etot = -23.7900391106242
988000  ekin = 0.531778629907991 |  erot = 1.01022151221156 | epot = -25.3320392527525 | etot = -23.790039110633
989000  ekin = 0.533901479354818 |  erot = 0.969829835158699 | epot = -25.2937704251151 | etot = -23.7900391106015
990000  ekin = 0.534396639674212 |  erot = 0.931748128114767 | epot = -25.2561838783684 | etot = -23.7900391105795
991000  ekin = 0.53330325607338 |  erot = 0.896315149179908 | epot = -25.2196575158063 | etot = -23.790039110553
992000  ekin = 0.530717041813116 |  erot = 0.86381894011696 | epot = -25.1845750924656 | etot = -23.7900391105355
993000  ekin = 0.52671982889625 |  erot = 0.83442655210089 | epot = -25.1511854915357 | etot = -23.7900391105386
994000  ekin = 0.52132111138722 |  erot = 0.808070682748534 | epot = -25.1194309046961 | etot = -23.7900391105603
995000  ekin = 0.51443457017456 |  erot = 0.784430271135996 | epot = -25.0889039519233 | etot = -23.7900391106128
996000  ekin = 0.505903745186681 |  erot = 0.762896617397243 | epot = -25.0588394732553 | etot = -23.7900391106714
997000  ekin = 0.495576018899842 |  erot = 0.742760899829131 | epot = -25.0283760294422 | etot = -23.7900391107132
998000  ekin = 0.483407668088211 |  erot = 0.723479016220994 | epot = -24.9969257950282 | etot = -23.790039110719
999000  ekin = 0.469569357804028 |  erot = 0.704872142347434 | epot = -24.9644806108212 | etot = -23.7900391106697
1000000  ekin = 0.454517046945647 |  erot = 0.687310411003187 | epot = -24.9318665685112 | etot = -23.7900391105624
 1000000  0.020200758   -1.5837886  0.025546901   -1.5298343 -0.00019632922 
Loop time of 74.0516 on 8 procs for 1000000 steps with 16 atoms

Performance: 11667.532 tau/day, 13504.088 timesteps/s
99.8% CPU use with 8 MPI tasks x 1 OpenMP threads

MPI task timing breakdown:
Section |  min time  |  avg time  |  max time  |%varavg| %total
---------------------------------------------------------------
Pair    | 0.94271    | 14.81      | 59.863     | 625.1 | 20.00
Bond    | 0.11919    | 0.45745    | 1.4866     |  85.6 |  0.62
Neigh   | 0          | 0          | 0          |  -nan |  0.00
Comm    | 3.7652     | 4.5213     | 5.0436     |  20.8 |  6.11
Output  | 0.26415    | 0.27119    | 0.29263    |   1.6 |  0.37
Modify  | 0.30745    | 1.3638     | 4.9647     | 156.5 |  1.84
Other   |            | 52.63      |            |       | 71.07

Nlocal:    2 ave 9 max 0 min
Histogram: 6 0 0 0 0 0 0 1 0 1
Nghost:    12 ave 16 max 7 min
Histogram: 1 0 1 0 0 4 0 0 0 2
Neighs:    17.625 ave 75 max 0 min
Histogram: 6 0 0 0 0 0 0 0 1 1

Total # of neighbors = 141
Ave neighs/atom = 8.8125
Ave special neighs/atom = 3.75
Neighbor list builds = 0
Dangerous builds = 0

#write_restart config.${number}.*
Total wall time: 0:01:14
