LAMMPS data file in real units via oxdna lj2real.py, date 2024-05-19

10 atoms
4 atom types
8 bonds
1 bond types
10 ellipsoids

-170 170 xlo xhi
-170 170 ylo yhi
-170 170 zlo zhi

Masses

1 100.0278
2 100.0278
3 100.0278
4 100.0278

Atoms # hybrid

1 1 -0.9600635673395586 -6.697372578532395 11.214288461530149 1 1 0.016231479325760585 0 0 0
2 2 -1.371418484333729 -8.644426415489871 15.09830243650489 1 1 0.016231479325760585 0 0 0
3 3 -0.6216529396853785 -10.27130427566052 18.871948109873205 1 1 0.016231479325760585 0 0 0
4 4 1.779062937600471 -10.807909849707325 23.24831121047697 1 1 0.016231479325760585 0 0 0
5 1 4.239477379859167 -10.116984578731293 26.59145222824391 1 1 0.016231479325760585 0 0 0
6 4 -1.9327071764636017 -1.6150385295751968 26.477847842079502 2 1 0.016231479325760585 0 0 0
7 1 -0.2983880618807194 -0.9579116659377174 23.010952595199885 2 1 0.016231479325760585 0 0 0
8 2 2.1503419307040095 -0.31467499729662424 19.779605638337472 2 1 0.016231479325760585 0 0 0
9 3 5.687077844288683 -1.6585607691903788 17.32600745817322 2 1 0.016231479325760585 0 0 0
10 4 7.960942109870774 -4.424349635235229 15.853866095654556 2 1 0.016231479325760585 0 0 0

Velocities

1 0.003670260004547261 -0.001065537256202598 0.00019820771627082902 2.190783710921869 -2.4582417153465035 1.7715963770507672
2 0.002291113608335764 0.0007728773438117204 0.002296672286413572 -0.40551125639613556 -0.12256940476096484 0.7114827747471555
3 -0.0004997750377219465 -0.0006770677373491773 -0.0006775964298166731 2.179995735254803 3.7414175740175044 -1.7280709663891953
4 -0.00015182185791796758 -4.553427726427798e-05 0.001445301171404135 -0.9443175316300753 1.9770932892489974 -0.3048781148297085
5 0.00010888231798112065 -0.0017696699496284707 0.002217080679988605 -0.08456353584305179 0.035965271955914695 -0.7051030632137099
6 0.0002936592731756661 -0.0011965505946877099 0.0004708407813130548 -0.7164699339101465 -1.1698888787077064 2.094408810880699
7 -2.1364103955982793e-05 5.577692626680783e-05 -0.0005335687118188998 1.5034116933686936 -2.4596844236201743 0.7286296966602159
8 -0.002835367576168593 -0.00028136761767332186 -0.0006160127733736687 -0.26771671594599533 -2.360332797207871 -1.6798429613010255
9 0.00037413027551487407 0.001890740851504142 0.0005563994572100851 -1.512871512517161 -1.4691678195901636 -2.245351079807635
10 -0.0024375187569690418 -0.000550577454043892 0.000971907386756427 0.4399243786321997 1.6207637079017971 1.0900899238856114

Bonds

1 1 1 2
2 1 2 3
3 1 3 4
4 1 4 5
5 1 6 7
6 1 7 8
7 1 8 9
8 1 9 10

Ellipsoids

1 26.93628110931426 26.93628110931426 26.93628110931426 0.9824438652148015 -0.023183015026523597 -0.18238525095550406 0.031657854475291056
2 26.93628110931426 26.93628110931426 26.93628110931426 0.9303156820429525 0.02962373336578937 -0.07607439157272995 0.3575581814380256
3 26.93628110931426 26.93628110931426 26.93628110931426 0.7912072782182723 -0.043679545103099016 -0.05996218100443608 0.6070318583758278
4 26.93628110931426 26.93628110931426 26.93628110931426 0.6531869542452552 -0.03659000162837596 0.004181596561545229 0.7563005281201641
5 26.93628110931426 26.93628110931426 26.93628110931426 0.3249781771672557 0.06207197535108856 0.03689277251937633 0.9429608568635791
6 26.93628110931426 26.93628110931426 26.93628110931426 0.08029535222204207 0.8726095530830543 -0.46831094470633033 -0.11309325067392484
7 26.93628110931426 26.93628110931426 26.93628110931426 -0.1303991484205687 0.7764383491760718 -0.6081660772848121 0.10135864274905797
8 26.93628110931426 26.93628110931426 26.93628110931426 -0.14971034142173664 0.5769499085020084 -0.7973230447846137 0.09482393688465168
9 26.93628110931426 26.93628110931426 26.93628110931426 0.21130729744233523 -0.37917864508185584 0.8946270178621702 -0.10590221939385809
10 26.93628110931426 26.93628110931426 26.93628110931426 0.34278400171414436 0.15185237372800306 0.9252984668160771 0.05712032974191834
