LAMMPS (17 Apr 2024 - Development - patch_17Apr2024-174-g749e259294-modified)
# LAMMPS input file in real units via oxdna lj2real.py, date 2024-05-19
variable number	equal 3
variable ofreq	equal 1000
variable efreq	equal 1000
variable T      equal 300.0
variable rhos   equal 0.2

units real

dimension 3

newton on

boundary  p p p

atom_style hybrid bond ellipsoid oxdna
WARNING: Atom style hybrid defines both, per-type and per-atom masses; both must be set, but only per-atom masses will be used (../atom_vec_hybrid.cpp:132)
atom_modify sort 0 8.518

# Pair interactions require lists of neighbours to be calculated
neighbor 17.036 bin
neigh_modify every 1 delay 0 check yes

read_data data.duplex3
Reading data file ...
  orthogonal box = (-170 -170 -170) to (170 170 170)
  1 by 2 by 2 MPI processor grid
  reading atoms ...
  10 atoms
  reading velocities ...
  10 velocities
  scanning bonds ...
  1 = max bonds/atom
  10 ellipsoids
  orthogonal box = (-170 -170 -170) to (170 170 170)
  1 by 2 by 2 MPI processor grid
  reading bonds ...
  8 bonds
Finding 1-2 1-3 1-4 neighbors ...
  special bond factors lj:    0        0        0       
  special bond factors coul:  0        0        0       
     2 = max # of 1-2 neighbors
     2 = max # of 1-3 neighbors
     2 = max # of 1-4 neighbors
     4 = max # of special neighbors
  special bonds CPU = 0.001 seconds
  read_data CPU = 0.011 seconds

set atom * mass 100.0278
Setting atom values ...
  10 settings made for mass

group all type 1 4
10 atoms in group all

# oxDNA2 bond interactions - FENE backbone
bond_style oxdna2/fene
bond_coeff * 11.92337812042065 2.1295 6.4430152
special_bonds lj 0 1 1
Finding 1-2 1-3 1-4 neighbors ...
  special bond factors lj:    0        1        1       
  special bond factors coul:  0        0        0       
     2 = max # of 1-2 neighbors
     2 = max # of 1-3 neighbors
     2 = max # of 1-4 neighbors
     4 = max # of special neighbors
  special bonds CPU = 0.000 seconds

# oxDNA2 pair interactions
pair_style hybrid/overlay oxdna2/excv oxdna2/stk oxdna2/hbond oxdna2/xstk oxdna2/coaxstk oxdna2/dh
pair_coeff * * oxdna2/excv 11.92337812042065 5.9626 5.74965 11.92337812042065 4.38677 4.259 11.92337812042065 2.81094 2.72576
pair_coeff * * oxdna2/stk seqdep ${T} 8.06199211612242 0.005309213 0.70439070204273 3.4072 7.6662 2.72576 6.3885 1.3 0.0 0.8 0.9 0.0 0.95 0.9 0.0 0.95 2.0 0.65 2.0 0.65
pair_coeff * * oxdna2/stk seqdep 300 8.06199211612242 0.005309213 0.70439070204273 3.4072 7.6662 2.72576 6.3885 1.3 0.0 0.8 0.9 0.0 0.95 0.9 0.0 0.95 2.0 0.65 2.0 0.65
pair_coeff * * oxdna2/hbond seqdep 0.0 0.93918760272364 3.4072 6.3885 2.89612 5.9626 1.5 0.0 0.7 1.5 0 0.7 1.5 0 0.7 0.46 3.141592654 0.7 4.0 1.570796327 0.45 4.0 1.570796327 0.45
pair_coeff 1 4 oxdna2/hbond seqdep 6.36589157849259 0.93918760272364 3.4072 6.3885 2.89612 5.9626 1.5 0 0.7 1.5 0.0 0.7 1.5 0 0.7 0.46 3.141592654 0.7 4.0 1.570796327 0.45 4.0 1.570796327 0.45
pair_coeff 2 3 oxdna2/hbond seqdep 6.36589157849259 0.93918760272364 3.4072 6.3885 2.89612 5.9626 1.5 0 0.7 1.5 0.0 0.7 1.5 0 0.7 0.46 3.141592654 0.7 4.0 1.570796327 0.45 4.0 1.570796327 0.45
pair_coeff * * oxdna2/xstk 3.9029021145006 4.89785 5.74965 4.21641 5.57929 2.25 0.791592654 0.58 1.7 1.0 0.68 1.7 1.0 0.68 1.5 0 0.65 1.7 0.875 0.68 1.7 0.875 0.68
pair_coeff * * oxdna2/coaxstk 4.80673207785863 3.4072 5.1108 1.87396 4.94044 2.0 2.891592653589793 0.65 1.3 0 0.8 0.9 0 0.95 0.9 0 0.95 40.0 3.116592653589793
pair_coeff * * oxdna2/dh ${T} ${rhos} 0.815
pair_coeff * * oxdna2/dh 300 ${rhos} 0.815
pair_coeff * * oxdna2/dh 300 0.2 0.815

# NVE ensemble
fix 1 all nve/asphere
#fix 2 all langevin ${T} ${T} 4265.0 457145 angmom 10

timestep 0.01706

#comm_style tiled
fix 3 all balance 1000 1.03 shift xyz 10 1.03
comm_modify cutoff 32.4

compute quat all property/atom quatw quati quatj quatk

compute erot all erotate/asphere
compute ekin all ke
compute epot all pe
variable erot equal c_erot
variable ekin equal c_ekin
variable epot equal c_epot
variable etot equal c_erot+c_ekin+c_epot
fix 5 all print ${efreq} "$(step)  ekin = ${ekin} |  erot = ${erot} | epot = ${epot} | etot = ${etot}" screen yes
fix 5 all print 1000 "$(step)  ekin = ${ekin} |  erot = ${erot} | epot = ${epot} | etot = ${etot}" screen yes

dump out all custom ${ofreq} out.${number}.lammpstrj id mol type x y z ix iy iz vx vy vz c_quat[1] c_quat[2] c_quat[3] c_quat[4] angmomx angmomy angmomz
dump out all custom 1000 out.${number}.lammpstrj id mol type x y z ix iy iz vx vy vz c_quat[1] c_quat[2] c_quat[3] c_quat[4] angmomx angmomy angmomz
dump out all custom 1000 out.3.lammpstrj id mol type x y z ix iy iz vx vy vz c_quat[1] c_quat[2] c_quat[3] c_quat[4] angmomx angmomy angmomz
dump_modify out sort id
dump_modify out format line "%d %d %d  %22.15le %22.15le %22.15le  %d %d %d  %22.15le %22.15le %22.15le  %22.15le %22.15le %22.15le %22.15le  %22.15le %22.15le %22.15le"

run 1000000
Generated 0 of 6 mixed pair_coeff terms from geometric mixing rule
Neighbor list info ...
  update: every = 1 steps, delay = 0 steps, check = yes
  max neighbors/atom: 2000, page size: 100000
  master list distance cutoff = 48.032697
  ghost atom cutoff = 48.032697
  binsize = 24.016348, bins = 15 15 15
  5 neighbor lists, perpetual/occasional/extra = 5 0 0
  (1) pair oxdna2/excv, perpetual
      attributes: half, newton on
      pair build: half/bin/newton
      stencil: half/bin/3d
      bin: standard
  (2) pair oxdna2/hbond, perpetual, copy from (1)
      attributes: half, newton on
      pair build: copy
      stencil: none
      bin: none
  (3) pair oxdna2/xstk, perpetual, copy from (1)
      attributes: half, newton on
      pair build: copy
      stencil: none
      bin: none
  (4) pair oxdna2/coaxstk, perpetual, copy from (1)
      attributes: half, newton on
      pair build: copy
      stencil: none
      bin: none
  (5) pair oxdna2/dh, perpetual, copy from (1)
      attributes: half, newton on
      pair build: copy
      stencil: none
      bin: none
WARNING: Communication cutoff adjusted to 48.03269686950012 (../comm.cpp:739)
0  ekin = 7.03429942525144 |  erot = 12.9873344362494 | epot = -68.5183064451292 | etot = -48.4966725836283
Per MPI rank memory allocation (min/avg/max) = 7.443 | 7.444 | 7.445 Mbytes
   Step          Temp          E_pair         E_mol          TotEng         Press          Volume    
         0   262.20685     -73.084271      4.565965      -61.484007     -0.0051810598   39304000     
1000  ekin = 6.47818551117441 |  erot = 13.3026700489858 | epot = -68.2775281400721 | etot = -48.496672579912
2000  ekin = 6.03525112997234 |  erot = 13.6564943363021 | epot = -68.188418043353 | etot = -48.4966725770786
3000  ekin = 5.75105017872917 |  erot = 14.0429985067123 | epot = -68.2907212623775 | etot = -48.496672576936
4000  ekin = 5.63745048823597 |  erot = 14.4525304497378 | epot = -68.5866535170593 | etot = -48.4966725790856
5000  ekin = 5.67539108471601 |  erot = 14.8714892268938 | epot = -69.0435528945018 | etot = -48.4966725828919
6000  ekin = 5.8225592408171 |  erot = 15.2845343223522 | epot = -69.6037661502108 | etot = -48.4966725870414
7000  ekin = 6.02949131445188 |  erot = 15.6780321266847 | epot = -70.2041960313094 | etot = -48.4966725901728
8000  ekin = 6.25690013504894 |  erot = 16.0432406183867 | epot = -70.796813344898 | etot = -48.4966725914624
9000  ekin = 6.48760823849336 |  erot = 16.3777166841148 | epot = -71.3619975139176 | etot = -48.4966725913094
10000  ekin = 6.72254611001785 |  erot = 16.6826306715322 | epot = -71.9018493718511 | etot = -48.496672590301
11000  ekin = 6.97475226170405 |  erot = 16.9603738277431 | epot = -72.4317986787938 | etot = -48.4966725893467
12000  ekin = 7.25960713990553 |  erot = 17.2117069445192 | epot = -72.9679866735632 | etot = -48.4966725891385
13000  ekin = 7.5861600155147 |  erot = 17.4338437184064 | epot = -73.516676323912 | etot = -48.4966725899909
14000  ekin = 7.95221337497286 |  erot = 17.6199690400551 | epot = -74.0688550069349 | etot = -48.4966725919069
15000  ekin = 8.34290179280029 |  erot = 17.759930875729 | epot = -74.5995052633029 | etot = -48.4966725947736
16000  ekin = 8.7308834779805 |  erot = 17.8412839163866 | epot = -75.0688399931312 | etot = -48.4966725987642
17000  ekin = 9.06872001929412 |  erot = 17.8482053032197 | epot = -75.4135979249309 | etot = -48.4966726024171
18000  ekin = 9.30863890671833 |  erot = 17.7686584779306 | epot = -75.5739699900196 | etot = -48.4966726053707
19000  ekin = 9.4112478564752 |  erot = 17.5960512017225 | epot = -75.5039716652994 | etot = -48.4966726071017
20000  ekin = 9.34910582886853 |  erot = 17.3292516593877 | epot = -75.1750300954674 | etot = -48.4966726072111
21000  ekin = 9.11266896891016 |  erot = 16.9731252869536 | epot = -74.5824668613651 | etot = -48.4966726055014
22000  ekin = 8.71397032422844 |  erot = 16.5385032889637 | epot = -73.7491462151202 | etot = -48.496672601928
23000  ekin = 8.18690962778313 |  erot = 16.0421750929968 | epot = -72.725757317897 | etot = -48.496672597117
24000  ekin = 7.58361736117564 |  erot = 15.5032978232032 | epot = -71.5835877759392 | etot = -48.4966725915604
25000  ekin = 6.9674099167493 |  erot = 14.9419969554433 | epot = -70.4060794581733 | etot = -48.4966725859807
26000  ekin = 6.40397973480545 |  erot = 14.3775943404744 | epot = -69.2782466563088 | etot = -48.4966725810289
27000  ekin = 5.95300264518483 |  erot = 13.8269533988879 | epot = -68.2766286212081 | etot = -48.4966725771354
28000  ekin = 5.66210674320084 |  erot = 13.3035488276536 | epot = -67.462328145308 | etot = -48.4966725744535
29000  ekin = 5.56416292853322 |  erot = 12.8173046943283 | epot = -66.8781401957625 | etot = -48.496672572901
30000  ekin = 5.67757091398745 |  erot = 12.3750254271168 | epot = -66.5492689133851 | etot = -48.4966725722808
31000  ekin = 6.0082318042294 |  erot = 11.9813634428798 | epot = -66.4862678195157 | etot = -48.4966725724065
32000  ekin = 6.55166468997952 |  erot = 11.6395080908375 | epot = -66.6878453540153 | etot = -48.4966725731983
33000  ekin = 7.29417473532557 |  erot = 11.3509752571398 | epot = -67.1418225671851 | etot = -48.4966725747197
34000  ekin = 8.21244588218725 |  erot = 11.1161143134268 | epot = -67.8252327728433 | etot = -48.4966725772293
35000  ekin = 9.27066798182032 |  erot = 10.93382726426 | epot = -68.70116782734 | etot = -48.4966725812597
36000  ekin = 10.4137127998441 |  erot = 10.8011032352061 | epot = -69.711488622778 | etot = -48.4966725877277
37000  ekin = 11.5574113355614 |  erot = 10.7118774334058 | epot = -70.7659613658537 | etot = -48.4966725968865
38000  ekin = 12.5862131120552 |  erot = 10.6570487006394 | epot = -71.7399344196423 | etot = -48.4966726069477
39000  ekin = 13.3756277697448 |  erot = 10.6266661696594 | epot = -72.4989665531952 | etot = -48.496672613791
40000  ekin = 13.8400144974726 |  erot = 10.6149441040859 | epot = -72.9516312154831 | etot = -48.4966726139245
41000  ekin = 13.9716515751527 |  erot = 10.6251303228018 | epot = -73.0934545058123 | etot = -48.4966726078579
42000  ekin = 13.8349966624045 |  erot = 10.6693591526023 | epot = -73.0010284144746 | etot = -48.4966725994678
43000  ekin = 13.4863179745805 |  erot = 10.7627501491632 | epot = -72.7457409172272 | etot = -48.4966727934835
44000  ekin = 12.8657064139247 |  erot = 11.0065042177546 | epot = -72.3688833251111 | etot = -48.4966726934318
45000  ekin = 12.4513480708381 |  erot = 11.2623687140009 | epot = -72.2103894466183 | etot = -48.4966726617792
46000  ekin = 11.8973058918019 |  erot = 11.5369637549566 | epot = -71.9309423094144 | etot = -48.4966726626559
47000  ekin = 11.3048691716615 |  erot = 11.8534105202767 | epot = -71.6549523562343 | etot = -48.4966726642961
48000  ekin = 10.6681247163132 |  erot = 12.1927455857895 | epot = -71.3575429678095 | etot = -48.4966726657067
49000  ekin = 9.98781452095656 |  erot = 12.5337626830789 | epot = -71.0182498702018 | etot = -48.4966726661663
50000  ekin = 9.27805060546915 |  erot = 12.8568502175182 | epot = -70.6315734882951 | etot = -48.4966726653077
51000  ekin = 8.56816305052028 |  erot = 13.1473275670357 | epot = -70.212163280745 | etot = -48.496672663189
52000  ekin = 7.89968625326438 |  erot = 13.3972664509227 | epot = -69.793625364465 | etot = -48.4966726602779
53000  ekin = 7.31936805861704 |  erot = 13.6052883011235 | epot = -69.4213290170347 | etot = -48.4966726572941
54000  ekin = 6.87026435043475 |  erot = 13.7746656104186 | epot = -69.1416026158051 | etot = -48.4966726549518
55000  ekin = 6.58358833130218 |  erot = 13.9106626376473 | epot = -68.9909236227061 | etot = -48.4966726537567
56000  ekin = 6.47340776924363 |  erot = 14.0180895137408 | epot = -68.9881699369064 | etot = -48.496672653922
57000  ekin = 6.5349018939822 |  erot = 14.0996443244831 | epot = -69.1312188738681 | etot = -48.4966726554028
58000  ekin = 6.74582948881821 |  erot = 14.1551416501596 | epot = -69.3976437968824 | etot = -48.4966726579046
59000  ekin = 7.07026744299479 |  erot = 14.1814435236754 | epot = -69.7483836278278 | etot = -48.4966726611576
60000  ekin = 7.46321119956124 |  erot = 14.1729605115931 | epot = -70.1328443758889 | etot = -48.4966726647345
61000  ekin = 7.87615620947672 |  erot = 14.1225980724399 | epot = -70.4954269501755 | etot = -48.4966726682588
62000  ekin = 8.26246819545997 |  erot = 14.0231891838103 | epot = -70.7823300503894 | etot = -48.4966726711191
63000  ekin = 8.58419585421983 |  erot = 13.8690469944675 | epot = -70.9499155215206 | etot = -48.4966726728333
64000  ekin = 8.81822702695991 |  erot = 13.6575496044141 | epot = -70.9724493044953 | etot = -48.4966726731213
65000  ekin = 8.95905321200092 |  erot = 13.3902699399855 | epot = -70.8459958240507 | etot = -48.4966726720642
66000  ekin = 9.01708021240235 |  erot = 13.073150449433 | epot = -70.5869033319405 | etot = -48.4966726701052
67000  ekin = 9.01264024181533 |  erot = 12.7157756705991 | epot = -70.2250885803061 | etot = -48.4966726678916
68000  ekin = 8.96786592552677 |  erot = 12.3300108275772 | epot = -69.7945494191638 | etot = -48.4966726660598
69000  ekin = 8.89809230228937 |  erot = 11.9282539830634 | epot = -69.3230189502575 | etot = -48.4966726649048
70000  ekin = 8.80855518919879 |  erot = 11.5224663142646 | epot = -68.8276941678881 | etot = -48.4966726644248
71000  ekin = 8.69498380037548 |  erot = 11.1237231983041 | epot = -68.3153796630104 | etot = -48.4966726643308
72000  ekin = 8.54784464636869 |  erot = 10.74237943467 | epot = -67.7868967452231 | etot = -48.4966726641844
73000  ekin = 8.35855300081186 |  erot = 10.3885820115981 | epot = -67.2438076759784 | etot = -48.4966726635684
74000  ekin = 8.12576446604128 |  erot = 10.0727225309052 | epot = -66.6951596591059 | etot = -48.4966726621593
75000  ekin = 7.85890437579262 |  erot = 9.80548509842791 | epot = -66.1610621343386 | etot = -48.4966726601181
76000  ekin = 7.57852165402649 |  erot = 9.597270815368 | epot = -65.6724651268096 | etot = -48.4966726574151
77000  ekin = 7.31582042129685 |  erot = 9.45739858079208 | epot = -65.2698916571085 | etot = -48.4966726550196
78000  ekin = 7.10323229833916 |  erot = 9.3917307433686 | epot = -64.9916356947845 | etot = -48.4966726530768
79000  ekin = 6.9693721805436 |  erot = 9.40218099613615 | epot = -64.8682258285396 | etot = -48.4966726518598
80000  ekin = 6.93674566763362 |  erot = 9.48623430706729 | epot = -64.9196526261965 | etot = -48.4966726514956
81000  ekin = 7.01925680666671 |  erot = 9.63726327568322 | epot = -65.1531927343328 | etot = -48.4966726519829
82000  ekin = 7.22081712459685 |  erot = 9.84564997752258 | epot = -65.5631397554092 | etot = -48.4966726532898
83000  ekin = 7.53417765386279 |  erot = 10.1003599019663 | epot = -66.1312102111943 | etot = -48.4966726553652
84000  ekin = 7.940290589344 |  erot = 10.3905229584646 | epot = -66.8274862058405 | etot = -48.4966726580318
85000  ekin = 8.40988507522461 |  erot = 10.7066512628598 | epot = -67.6132089989631 | etot = -48.4966726608787
86000  ekin = 8.90877838664784 |  erot = 11.0413122902599 | epot = -68.4467633402374 | etot = -48.4966726633297
87000  ekin = 9.40446727184843 |  erot = 11.389212342317 | epot = -69.2903522795771 | etot = -48.4966726654117
88000  ekin = 9.8664138653362 |  erot = 11.7464698262625 | epot = -70.109556357925 | etot = -48.4966726663263
89000  ekin = 10.2794449749729 |  erot = 12.1093351833934 | epot = -70.8854528250632 | etot = -48.496672666697
90000  ekin = 10.644881863298 |  erot = 12.4712192860778 | epot = -71.6127738155153 | etot = -48.4966726661396
91000  ekin = 10.959237823698 |  erot = 12.8213713070339 | epot = -72.2772817984363 | etot = -48.4966726677043
92000  ekin = 11.1805024607923 |  erot = 13.1782323505892 | epot = -72.8554074847635 | etot = -48.4966726733821
93000  ekin = 11.3486717558855 |  erot = 13.488666272359 | epot = -73.3340106985069 | etot = -48.4966726702624
94000  ekin = 11.4194570018441 |  erot = 13.7677249757344 | epot = -73.6838546479548 | etot = -48.4966726703763
95000  ekin = 11.3899765892415 |  erot = 14.0119097397859 | epot = -73.8985589999749 | etot = -48.4966726709475
96000  ekin = 11.2605951113246 |  erot = 14.2148286413578 | epot = -73.972096422542 | etot = -48.4966726698596
97000  ekin = 11.0445904714311 |  erot = 14.3764700204589 | epot = -73.9177331597961 | etot = -48.496672667906
98000  ekin = 10.7660933774849 |  erot = 14.4993108341515 | epot = -73.7620768770615 | etot = -48.4966726654252
99000  ekin = 10.4555155361554 |  erot = 14.5876138558175 | epot = -73.5398020548143 | etot = -48.4966726628415
100000  ekin = 10.0974774598987 |  erot = 14.6249949423906 | epot = -73.2191455720071 | etot = -48.4966731697177
101000  ekin = 10.0415631096137 |  erot = 14.0961872066541 | epot = -72.6344231724507 | etot = -48.4966728561828
102000  ekin = 10.2892855713202 |  erot = 14.012187510498 | epot = -72.7981457142972 | etot = -48.4966726324791
103000  ekin = 10.030926337016 |  erot = 14.0335683972792 | epot = -72.5611673660203 | etot = -48.4966726317251
104000  ekin = 9.79194699005209 |  erot = 14.0507619049247 | epot = -72.3393815271541 | etot = -48.4966726321773
105000  ekin = 9.56928640949136 |  erot = 14.0644676494027 | epot = -72.1304266917122 | etot = -48.4966726328182
106000  ekin = 9.35843270941694 |  erot = 14.0738948863194 | epot = -71.9290002289413 | etot = -48.4966726332049
107000  ekin = 9.15960205394257 |  erot = 14.0781570096048 | epot = -71.7344316966933 | etot = -48.496672633146
108000  ekin = 8.98058598862051 |  erot = 14.0757573495376 | epot = -71.5530159707945 | etot = -48.4966726326364
109000  ekin = 8.83500010163843 |  erot = 14.0641942059689 | epot = -71.3958669399389 | etot = -48.4966726323315
110000  ekin = 8.73407156167122 |  erot = 14.0396159238041 | epot = -71.2703601184354 | etot = -48.49667263296
111000  ekin = 8.67544983167207 |  erot = 13.9967358275336 | epot = -71.1688582943783 | etot = -48.4966726351726
112000  ekin = 8.6350044076198 |  erot = 13.9293053313403 | epot = -71.0609823775569 | etot = -48.4966726385968
113000  ekin = 8.5704259257829 |  erot = 13.8317248404421 | epot = -70.898823408096 | etot = -48.496672641871
114000  ekin = 8.43989096913563 |  erot = 13.7008372464532 | epot = -70.6374008585741 | etot = -48.4966726429852
115000  ekin = 8.22527688481172 |  erot = 13.5374589941368 | epot = -70.259408517006 | etot = -48.4966726380575
116000  ekin = 7.96055882645664 |  erot = 13.3455331437012 | epot = -69.8027646054373 | etot = -48.4966726352795
117000  ekin = 7.68480617458401 |  erot = 13.1328848481121 | epot = -69.3143636549154 | etot = -48.4966726322193
118000  ekin = 7.42978537710071 |  erot = 12.9094282247797 | epot = -68.8358862320104 | etot = -48.4966726301299
119000  ekin = 7.2137363939324 |  erot = 12.6851208042373 | epot = -68.3955298273834 | etot = -48.4966726292136
120000  ekin = 7.03803293636671 |  erot = 12.4697797263412 | epot = -68.0044852916952 | etot = -48.4966726289873
121000  ekin = 6.8936709264401 |  erot = 12.272894951256 | epot = -67.6632385066892 | etot = -48.4966726289932
122000  ekin = 6.76879687257042 |  erot = 12.1027214693544 | epot = -67.3681909710515 | etot = -48.4966726291267
123000  ekin = 6.6521040717835 |  erot = 11.9648592015111 | epot = -67.1136359029295 | etot = -48.4966726296349
124000  ekin = 6.53115267708844 |  erot = 11.8616861164462 | epot = -66.8895114237899 | etot = -48.4966726302553
125000  ekin = 6.39605544212482 |  erot = 11.7907254418549 | epot = -66.6834535155165 | etot = -48.4966726315368
126000  ekin = 6.23766494395132 |  erot = 11.7440508510366 | epot = -66.4783884275686 | etot = -48.4966726325807
127000  ekin = 6.04911470795132 |  erot = 11.711163525569 | epot = -66.2569508666246 | etot = -48.4966726331043
128000  ekin = 5.83208869215098 |  erot = 11.682213880146 | epot = -66.0109752050972 | etot = -48.4966726328002
129000  ekin = 5.59955533756658 |  erot = 11.6485505375886 | epot = -65.7447785065467 | etot = -48.4966726313915
130000  ekin = 5.37616547346342 |  erot = 11.6055192857393 | epot = -65.4783573884614 | etot = -48.4966726292587
131000  ekin = 5.19621347260189 |  erot = 11.5523382042858 | epot = -65.2452243036203 | etot = -48.4966726267326
132000  ekin = 5.09512855427621 |  erot = 11.4915853273382 | epot = -65.0833865066928 | etot = -48.4966726250784
133000  ekin = 5.09593793196195 |  erot = 11.4254654000436 | epot = -65.0180759559376 | etot = -48.4966726239321
134000  ekin = 5.21315400669044 |  erot = 11.3572216289393 | epot = -65.0670482589978 | etot = -48.4966726233681
135000  ekin = 5.45274887458444 |  erot = 11.2905481952009 | epot = -65.2399696930873 | etot = -48.4966726233019
136000  ekin = 5.81359277202082 |  erot = 11.2291159416501 | epot = -65.5393813373533 | etot = -48.4966726236824
137000  ekin = 6.28595091476304 |  erot = 11.1752215008227 | epot = -65.9578450445987 | etot = -48.496672629013
138000  ekin = 6.83489595318816 |  erot = 11.123880412668 | epot = -66.4554489962854 | etot = -48.4966726304292
139000  ekin = 7.43298982213957 |  erot = 11.0759557714594 | epot = -67.0056182256037 | etot = -48.4966726320047
140000  ekin = 8.05423567523354 |  erot = 11.0338915539243 | epot = -67.584799863096 | etot = -48.4966726339382
141000  ekin = 8.66814450976643 |  erot = 10.9995435661271 | epot = -68.1643607123582 | etot = -48.4966726364646
142000  ekin = 9.23299211625417 |  erot = 10.9739956101673 | epot = -68.7036603674048 | etot = -48.4966726409833
143000  ekin = 9.69542810759758 |  erot = 10.9568256540412 | epot = -69.148926406631 | etot = -48.4966726449922
144000  ekin = 10.0035712730501 |  erot = 10.9455251640244 | epot = -69.4457690858196 | etot = -48.4966726487451
145000  ekin = 10.1140173167571 |  erot = 10.9367967497628 | epot = -69.5474867174164 | etot = -48.4966726508964
146000  ekin = 10.010255193474 |  erot = 10.9282120719387 | epot = -69.4351399151878 | etot = -48.4966726497751
147000  ekin = 9.72372844852437 |  erot = 10.9204908015157 | epot = -69.1408918942985 | etot = -48.4966726442584
148000  ekin = 9.34553092121529 |  erot = 10.9194622742203 | epot = -68.7616658304598 | etot = -48.4966726350242
149000  ekin = 9.01308307721587 |  erot = 10.9361646162974 | epot = -68.4459203187324 | etot = -48.4966726252192
150000  ekin = 8.865564916199 |  erot = 10.9838242848979 | epot = -68.3460618203819 | etot = -48.496672619285
151000  ekin = 8.98562593113232 |  erot = 11.0721207188499 | epot = -68.5544192701777 | etot = -48.4966726201955
152000  ekin = 9.36317382414728 |  erot = 11.2013283048009 | epot = -69.0611747563319 | etot = -48.4966726273838
153000  ekin = 9.90592399926709 |  erot = 11.3597169983851 | epot = -69.762313634926 | etot = -48.4966726372738
154000  ekin = 10.4876718007884 |  erot = 11.5259908274829 | epot = -70.5103352740072 | etot = -48.4966726457359
155000  ekin = 11.0014546611185 |  erot = 11.6755859722271 | epot = -71.1737132837587 | etot = -48.4966726504131
156000  ekin = 11.3882148349958 |  erot = 11.7874454844493 | epot = -71.6723329709515 | etot = -48.4966726515063
157000  ekin = 11.6329719121599 |  erot = 11.8481298115872 | epot = -71.9777743743921 | etot = -48.496672650645
158000  ekin = 11.743699781619 |  erot = 11.852602482575 | epot = -72.0929749132267 | etot = -48.4966726490327
159000  ekin = 11.7357219121817 |  erot = 11.8034015633403 | epot = -72.035796122213 | etot = -48.4966726466911
160000  ekin = 11.6305552644523 |  erot = 11.7096700273735 | epot = -71.8368979351533 | etot = -48.4966726433274
161000  ekin = 11.4596686193139 |  erot = 11.5857134121787 | epot = -71.5420546707695 | etot = -48.496672639277
162000  ekin = 11.2620233891936 |  erot = 11.448373844929 | epot = -71.2070698695242 | etot = -48.4966726354016
163000  ekin = 11.0755659765656 |  erot = 11.3138001976418 | epot = -70.8860388066474 | etot = -48.49667263244
164000  ekin = 10.9292960811459 |  erot = 11.1949564931563 | epot = -70.6209252049759 | etot = -48.4966726306737
165000  ekin = 10.8401906864875 |  erot = 11.1006151382457 | epot = -70.4374784546595 | etot = -48.4966726299263
166000  ekin = 10.8146651780986 |  erot = 11.035675846272 | epot = -70.3470136542456 | etot = -48.496672629875
167000  ekin = 10.8520567567864 |  erot = 11.0022539306528 | epot = -70.3509833175924 | etot = -48.4966726301532
168000  ekin = 10.9484894336274 |  erot = 11.0010183041617 | epot = -70.4461803682569 | etot = -48.4966726304677
169000  ekin = 11.0998937027386 |  erot = 11.0324366339792 | epot = -70.6290029673671 | etot = -48.4966726306493
170000  ekin = 11.303483973301 |  erot = 11.0977053912599 | epot = -70.8978619952531 | etot = -48.4966726306922
171000  ekin = 11.5572307267885 |  erot = 11.1992212781623 | epot = -71.2531246357255 | etot = -48.4966726307747
172000  ekin = 11.8571464638408 |  erot = 11.340530780689 | epot = -71.6943498757676 | etot = -48.4966726312377
173000  ekin = 12.1927097200976 |  erot = 11.5257889190942 | epot = -72.2151712717163 | etot = -48.4966726325245
174000  ekin = 12.5417902291443 |  erot = 11.758840169329 | epot = -72.7973030335596 | etot = -48.4966726350863
175000  ekin = 12.8647095032793 |  erot = 12.0421936377307 | epot = -73.4035757801782 | etot = -48.4966726391682
176000  ekin = 13.1024197132925 |  erot = 12.3759769580596 | epot = -73.9750693159967 | etot = -48.4966726446446
177000  ekin = 13.190718096856 |  erot = 12.7566551418151 | epot = -74.4440458869535 | etot = -48.4966726482824
178000  ekin = 13.05264922196 |  erot = 13.1773711164485 | epot = -74.7266929933934 | etot = -48.4966726549849
179000  ekin = 12.2089794588745 |  erot = 13.5830164197223 | epot = -74.2886682061569 | etot = -48.4966723275601
180000  ekin = 11.9004068675239 |  erot = 14.0870661177297 | epot = -74.4841455891972 | etot = -48.4966726039435
181000  ekin = 10.8654768903692 |  erot = 14.5861339869459 | epot = -73.9482834733432 | etot = -48.4966725960281
182000  ekin = 9.66028270695138 |  erot = 15.1104289206579 | epot = -73.2673842110059 | etot = -48.4966725833966
183000  ekin = 8.48066280387605 |  erot = 15.6673690821393 | epot = -72.6447044561308 | etot = -48.4966725701155
184000  ekin = 7.52630413851929 |  erot = 16.2665624203507 | epot = -72.2895391199349 | etot = -48.4966725610649
185000  ekin = 6.93646433276123 |  erot = 16.9124293952412 | epot = -72.3455662872057 | etot = -48.4966725592033
186000  ekin = 6.75402182356136 |  erot = 17.5959531882619 | epot = -72.8466475760996 | etot = -48.4966725642764
187000  ekin = 6.93176584306106 |  erot = 18.2901076459546 | epot = -73.7185460628698 | etot = -48.4966725738541
188000  ekin = 7.36496175936816 |  erot = 18.9517169220489 | epot = -74.8133512665733 | etot = -48.4966725851563
189000  ekin = 7.92587452891987 |  erot = 19.5289159490217 | epot = -75.9514630739328 | etot = -48.4966725959912
190000  ekin = 8.48887345555899 |  erot = 19.9711008208249 | epot = -76.9566468811629 | etot = -48.4966726047791
191000  ekin = 8.94279744307637 |  erot = 20.2387056809853 | epot = -77.6781757356946 | etot = -48.4966726116329
192000  ekin = 9.20220030816187 |  erot = 20.3101038067633 | epot = -78.0089767286117 | etot = -48.4966726136866
193000  ekin = 9.22639739330518 |  erot = 20.1841068563623 | epot = -77.9071768610927 | etot = -48.4966726114252
194000  ekin = 9.02106352746558 |  erot = 19.879840012452 | epot = -77.3975761450875 | etot = -48.4966726051699
195000  ekin = 8.63698690390024 |  erot = 19.4322506720419 | epot = -76.5659101722172 | etot = -48.4966725962751
196000  ekin = 8.15745599944877 |  erot = 18.8847381250292 | epot = -75.5388667111713 | etot = -48.4966725866933
197000  ekin = 7.6777584189192 |  erot = 18.2815207246711 | epot = -74.4559517216657 | etot = -48.4966725780754
198000  ekin = 7.28589102711843 |  erot = 17.6623826120232 | epot = -73.4449462104515 | etot = -48.4966725713098
199000  ekin = 7.05017610428617 |  erot = 17.0606063919737 | epot = -72.6074550629725 | etot = -48.4966725667126
200000  ekin = 7.01285264528771 |  erot = 16.5030180881871 | epot = -72.0125432979054 | etot = -48.4966725644306
201000  ekin = 7.18628302948149 |  erot = 16.0106066265263 | epot = -71.6935622206016 | etot = -48.4966725645938
202000  ekin = 7.55028085659507 |  erot = 15.5985035867492 | epot = -71.6454570106341 | etot = -48.4966725672899
203000  ekin = 8.05261783917546 |  erot = 15.2753610695144 | epot = -71.8246514807947 | etot = -48.4966725721048
204000  ekin = 8.61587119719168 |  erot = 15.0430481939185 | epot = -72.1555919691966 | etot = -48.4966725780864
205000  ekin = 9.15150139881355 |  erot = 14.8972623538548 | epot = -72.5454363365197 | etot = -48.4966725838514
206000  ekin = 9.57853091802685 |  erot = 14.8296218061963 | epot = -72.904825312253 | etot = -48.4966725880299
207000  ekin = 9.84110469117133 |  erot = 14.8306579376118 | epot = -73.1684352185348 | etot = -48.4966725897516
208000  ekin = 9.91915380070236 |  erot = 14.8924578832506 | epot = -73.3082842728947 | etot = -48.4966725889417
209000  ekin = 9.82907930165538 |  erot = 15.009695181568 | epot = -73.335447069535 | etot = -48.4966725863117
210000  ekin = 9.61485280029918 |  erot = 15.1785174137095 | epot = -73.2900427971273 | etot = -48.4966725831186
211000  ekin = 9.33255453637681 |  erot = 15.3937274488317 | epot = -73.2229545659769 | etot = -48.4966725807684
212000  ekin = 9.03298062727245 |  erot = 15.645385712317 | epot = -73.1750389199433 | etot = -48.4966725803539
213000  ekin = 8.74801774645706 |  erot = 15.9162328155355 | epot = -73.160923144197 | etot = -48.4966725822045
214000  ekin = 8.48645509186844 |  erot = 16.181037260622 | epot = -73.1641649379154 | etot = -48.4966725854249
215000  ekin = 8.24361394372388 |  erot = 16.4085443498284 | epot = -73.1488308822362 | etot = -48.4966725886839
216000  ekin = 8.01644140640109 |  erot = 16.567190486037 | epot = -73.080304482111 | etot = -48.4966725896729
217000  ekin = 7.82443857147227 |  erot = 16.6321169295439 | epot = -72.9532280885845 | etot = -48.4966725875684
218000  ekin = 7.71607328585115 |  erot = 16.5899557796661 | epot = -72.8027016494467 | etot = -48.4966725839295
219000  ekin = 7.75310717264871 |  erot = 16.4350572743126 | epot = -72.6848370278581 | etot = -48.4966725808969
220000  ekin = 7.98143888037879 |  erot = 16.1675107350278 | epot = -72.6456221958543 | etot = -48.4966725804477
221000  ekin = 8.40773648375345 |  erot = 15.7897008204062 | epot = -72.6941098869361 | etot = -48.4966725827765
222000  ekin = 8.99748090378716 |  erot = 15.3051579237926 | epot = -72.7993114139564 | etot = -48.4966725863767
223000  ekin = 9.69291742679692 |  erot = 14.7208372414052 | epot = -72.9104272575021 | etot = -48.4966725893
224000  ekin = 10.4359945859782 |  erot = 14.0505863380194 | epot = -72.9832535144518 | etot = -48.4966725904542
225000  ekin = 11.1813440324308 |  erot = 13.3180094413787 | epot = -72.996026064094 | etot = -48.4966725902845
226000  ekin = 11.8899174093651 |  erot = 12.5555741904319 | epot = -72.9421641905593 | etot = -48.4966725907622
227000  ekin = 12.5083401208548 |  erot = 11.7991557925081 | epot = -72.8041685069196 | etot = -48.4966725935567
228000  ekin = 12.9540489024056 |  erot = 11.0813711809714 | epot = -72.5320926818165 | etot = -48.4966725984396
229000  ekin = 13.1250482768505 |  erot = 10.4265507754497 | epot = -72.0482716553169 | etot = -48.4966726030167
230000  ekin = 12.9354776786789 |  erot = 9.84937329189316 | epot = -71.2815235748201 | etot = -48.496672604248
231000  ekin = 12.3571979238697 |  erot = 9.35664487116824 | epot = -70.2105153953948 | etot = -48.4966726003569
232000  ekin = 11.441378635533 |  erot = 8.95013763084956 | epot = -68.8881888585135 | etot = -48.4966725921309
233000  ekin = 10.306860836762 |  erot = 8.62874527756515 | epot = -67.4322786963308 | etot = -48.4966725820036
234000  ekin = 9.10484994367511 |  erot = 8.38947611811251 | epot = -65.9909986342493 | etot = -48.4966725724617
235000  ekin = 7.97762335600863 |  erot = 8.2279605743492 | epot = -64.7022564960577 | etot = -48.4966725656998
236000  ekin = 7.0304183366733 |  erot = 8.14060898682625 | epot = -63.6676998849092 | etot = -48.4966725614097
237000  ekin = 6.3323277859341 |  erot = 8.12400287134693 | epot = -62.9530032163567 | etot = -48.4966725590757
238000  ekin = 5.92140822285225 |  erot = 8.17513077744184 | epot = -62.5932115585199 | etot = -48.4966725582258
239000  ekin = 5.81123122340632 |  erot = 8.29054157425132 | epot = -62.5984453565715 | etot = -48.4966725589139
240000  ekin = 5.99217826069117 |  erot = 8.4648979936537 | epot = -62.9537488157034 | etot = -48.4966725613585
241000  ekin = 6.43109156575349 |  erot = 8.68961368249095 | epot = -63.6173778141204 | etot = -48.4966725658759
242000  ekin = 7.06756407119338 |  erot = 8.95153614482818 | epot = -64.5157727888128 | etot = -48.4966725727912
243000  ekin = 7.81639319361071 |  erot = 9.23207829014713 | epot = -65.5451440641925 | etot = -48.4966725804347
244000  ekin = 8.58044212002104 |  erot = 9.50948701565513 | epot = -66.5866017229663 | etot = -48.4966725872901
245000  ekin = 9.26871916861867 |  erot = 9.75990826682941 | epot = -67.5253000301858 | etot = -48.4966725947377
246000  ekin = 9.78946573666749 |  erot = 9.96525866121197 | epot = -68.2513969980116 | etot = -48.4966726001321
247000  ekin = 10.0743388396476 |  erot = 10.1147521472294 | epot = -68.6857635892695 | etot = -48.4966726023925
248000  ekin = 10.0941079494609 |  erot = 10.2065328815033 | epot = -68.7973134320029 | etot = -48.4966726010388
249000  ekin = 9.86393967731197 |  erot = 10.2475258665404 | epot = -68.6081381410575 | etot = -48.4966725972051
250000  ekin = 9.43636984426512 |  erot = 10.2506637078824 | epot = -68.1837061428591 | etot = -48.4966725907116
251000  ekin = 8.89229868578636 |  erot = 10.232334609138 | epot = -67.6213058787997 | etot = -48.4966725838753
252000  ekin = 8.31943898663656 |  erot = 10.2075884963066 | epot = -67.0237000610926 | etot = -48.4966725781494
253000  ekin = 7.79276077495193 |  erot = 10.1873587545281 | epot = -66.4767921038599 | etot = -48.4966725743798
254000  ekin = 7.36152147186344 |  erot = 10.1778229232089 | epot = -66.0360169681652 | etot = -48.4966725730929
255000  ekin = 7.04416809512428 |  erot = 10.181248194185 | epot = -65.7220888627672 | etot = -48.4966725734579
256000  ekin = 6.83530017399278 |  erot = 10.1962922388045 | epot = -65.5282649876823 | etot = -48.496672574885
257000  ekin = 6.71442148099541 |  erot = 10.2200504443756 | epot = -65.4311445018447 | etot = -48.4966725764737
258000  ekin = 6.65781764563524 |  erot = 10.2492124175324 | epot = -65.4037026408317 | etot = -48.4966725776641
259000  ekin = 6.64642051201687 |  erot = 10.2806008774797 | epot = -65.4236939679375 | etot = -48.4966725784409
260000  ekin = 6.66675395816299 |  erot = 10.3110375472883 | epot = -65.4744640845755 | etot = -48.4966725791242
261000  ekin = 6.70841492604686 |  erot = 10.337872125544 | epot = -65.5429596307914 | etot = -48.4966725792006
262000  ekin = 6.7627561946648 |  erot = 10.3595239082592 | epot = -65.618952682721 | etot = -48.496672579797
263000  ekin = 6.82191301036426 |  erot = 10.3716898912795 | epot = -65.690275481472 | etot = -48.4966725798283
264000  ekin = 6.88504914962626 |  erot = 10.3708999773069 | epot = -65.7526217059619 | etot = -48.4966725790287
265000  ekin = 6.960898286708 |  erot = 10.3558192629975 | epot = -65.8133901272671 | etot = -48.4966725775615
266000  ekin = 7.06529185645044 |  erot = 10.3276065183191 | epot = -65.8895709506868 | etot = -48.4966725759173
267000  ekin = 7.21505088334997 |  erot = 10.2893497391616 | epot = -66.0010731971453 | etot = -48.4966725746338
268000  ekin = 7.42137725346334 |  erot = 10.2450818723159 | epot = -66.1631316998746 | etot = -48.4966725740954
269000  ekin = 7.68524329715843 |  erot = 10.1988935008372 | epot = -66.3808093724379 | etot = -48.4966725744423
270000  ekin = 7.99580948969528 |  erot = 10.154449265304 | epot = -66.6469313305823 | etot = -48.496672575583
271000  ekin = 8.3319048512179 |  erot = 10.1151435011367 | epot = -66.9437209293965 | etot = -48.4966725770419
272000  ekin = 8.66610587594003 |  erot = 10.0856409418549 | epot = -67.2484193966209 | etot = -48.4966725788259
273000  ekin = 8.97042145762764 |  erot = 10.0690324252393 | epot = -67.536126463092 | etot = -48.4966725802251
274000  ekin = 9.22287683295388 |  erot = 10.0690361391239 | epot = -67.788585552836 | etot = -48.4966725807582
275000  ekin = 9.41389302944299 |  erot = 10.0906946031174 | epot = -68.0012602127847 | etot = -48.4966725802242
276000  ekin = 9.54942761495552 |  erot = 10.1400083113636 | epot = -68.1861085051145 | etot = -48.4966725787954
277000  ekin = 9.64913594524363 |  erot = 10.2229042121193 | epot = -68.3687127344001 | etot = -48.4966725770371
278000  ekin = 9.73935192458056 |  erot = 10.3435700154574 | epot = -68.5795945157817 | etot = -48.4966725757437
279000  ekin = 9.84298152732214 |  erot = 10.5026140404983 | epot = -68.8422681434335 | etot = -48.496672575613
280000  ekin = 9.97046187703876 |  erot = 10.6957212898499 | epot = -69.1628557437704 | etot = -48.4966725768818
281000  ekin = 10.1137684706567 |  erot = 10.9135096018649 | epot = -69.5239506554729 | etot = -48.4966725829514
282000  ekin = 10.2288689015359 |  erot = 11.142271992086 | epot = -69.8678134801518 | etot = -48.4966725865298
283000  ekin = 10.2769463821851 |  erot = 11.3646568092211 | epot = -70.1382757810248 | etot = -48.4966725896187
284000  ekin = 10.2298350175167 |  erot = 11.5634949517874 | epot = -70.290002560938 | etot = -48.496672591634
285000  ekin = 10.0723248849016 |  erot = 11.7243250964783 | epot = -70.2933225737757 | etot = -48.4966725923958
286000  ekin = 9.80394054069748 |  erot = 11.8369977519972 | epot = -70.137610884751 | etot = -48.4966725920563
287000  ekin = 9.43655233181395 |  erot = 11.8964493797703 | epot = -69.8296743025074 | etot = -48.4966725909231
288000  ekin = 8.99013271753932 |  erot = 11.9027405791585 | epot = -69.3895458860148 | etot = -48.4966725893169
289000  ekin = 8.48857673810637 |  erot = 11.860522637167 | epot = -68.8457719627796 | etot = -48.4966725875062
290000  ekin = 7.95651311705559 |  erot = 11.7780720781063 | epot = -68.2312577808377 | etot = -48.4966725856758
291000  ekin = 7.41785902588673 |  erot = 11.6660397038494 | epot = -67.5805713135416 | etot = -48.4966725838055
292000  ekin = 6.89736764547106 |  erot = 11.5361414718397 | epot = -66.9301816989046 | etot = -48.4966725815939
293000  ekin = 6.42572947191051 |  erot = 11.4000701849624 | epot = -66.322472235463 | etot = -48.4966725785901
294000  ekin = 6.04578762670029 |  erot = 11.268773141137 | epot = -65.811233342478 | etot = -48.4966725746408
295000  ekin = 5.81372000921063 |  erot = 11.1519540391863 | epot = -65.4623466187971 | etot = -48.4966725704001
296000  ekin = 5.78868895653423 |  erot = 11.0574288852487 | epot = -65.3427904091971 | etot = -48.4966725674142
297000  ekin = 6.01086247217247 |  erot = 10.9900621222574 | epot = -65.4975971618444 | etot = -48.4966725674145
298000  ekin = 6.47793511118133 |  erot = 10.9505151838958 | epot = -65.9251228662866 | etot = -48.4966725712095
299000  ekin = 7.13485226401429 |  erot = 10.9343849130194 | epot = -66.5659097551344 | etot = -48.4966725781007
300000  ekin = 7.88433986357019 |  erot = 10.9323127586099 | epot = -67.3133252084237 | etot = -48.4966725862436
301000  ekin = 8.61282845355444 |  erot = 10.9313732714822 | epot = -68.0408743185901 | etot = -48.4966725935534
302000  ekin = 9.219084402774 |  erot = 10.9175582659957 | epot = -68.6333152672212 | etot = -48.4966725984515
303000  ekin = 9.63516616614934 |  erot = 10.8787665670547 | epot = -69.0106053334088 | etot = -48.4966726002047
304000  ekin = 9.83543476976498 |  erot = 10.8074962358075 | epot = -69.1396036043513 | etot = -48.4966725987789
305000  ekin = 9.83532020705529 |  erot = 10.7023193346032 | epot = -69.034312136557 | etot = -48.4966725948985
306000  ekin = 9.6814509355921 |  erot = 10.5677982811905 | epot = -68.7459218064291 | etot = -48.4966725896465
307000  ekin = 9.43697927068364 |  erot = 10.412994542271 | epot = -68.3466463972002 | etot = -48.4966725842456
308000  ekin = 9.1661724436502 |  erot = 10.249162357816 | epot = -67.9120073811322 | etot = -48.496672579666
309000  ekin = 8.92159986059768 |  erot = 10.0874162912603 | epot = -67.5056887285244 | etot = -48.4966725766665
310000  ekin = 8.73563094101779 |  erot = 9.93715103612976 | epot = -67.169454552413 | etot = -48.4966725752654
311000  ekin = 8.61913259831869 |  erot = 9.80527711010105 | epot = -66.9210822837978 | etot = -48.496672575378
312000  ekin = 8.56355763431388 |  erot = 9.69617071427367 | epot = -66.7564009251145 | etot = -48.496672576527
313000  ekin = 8.54744454671114 |  erot = 9.61223302156675 | epot = -66.656350146386 | etot = -48.4966725781081
314000  ekin = 8.54471031362155 |  erot = 9.55468856182909 | epot = -66.5960714549809 | etot = -48.4966725795302
315000  ekin = 8.53582675046024 |  erot = 9.52360081783917 | epot = -66.5561001483586 | etot = -48.4966725800592
316000  ekin = 8.50947902804238 |  erot = 9.51910773889645 | epot = -66.5252593469976 | etot = -48.4966725800588
317000  ekin = 8.46528361606335 |  erot = 9.54310287691632 | epot = -66.5050590717948 | etot = -48.4966725788152
318000  ekin = 8.42148334759255 |  erot = 9.59812356340114 | epot = -66.516279487557 | etot = -48.4966725765634
319000  ekin = 8.41172051683949 |  erot = 9.68666529073887 | epot = -66.5950583815213 | etot = -48.4966725739429
320000  ekin = 8.47631024947879 |  erot = 9.81010411287476 | epot = -66.783086934221 | etot = -48.4966725718674
321000  ekin = 8.64981485684306 |  erot = 9.9675001491197 | epot = -67.1139875771924 | etot = -48.4966725712296
322000  ekin = 8.94886501910658 |  erot = 10.1545796242746 | epot = -67.600117215931 | etot = -48.4966725725498
323000  ekin = 9.36436094196047 |  erot = 10.3629464345309 | epot = -68.2239799526371 | etot = -48.4966725761457
324000  ekin = 9.85762299120414 |  erot = 10.5807030497715 | epot = -68.9349986230914 | etot = -48.4966725821158
325000  ekin = 10.3675336373 |  erot = 10.7915336066581 | epot = -69.6557398309782 | etot = -48.4966725870201
326000  ekin = 10.8169039904013 |  erot = 10.978074903065 | epot = -70.2916514882432 | etot = -48.4966725947768
327000  ekin = 11.1080827251222 |  erot = 11.1278633890798 | epot = -70.7326187146627 | etot = -48.4966726004607
328000  ekin = 11.1668072002134 |  erot = 11.235581979125 | epot = -70.8990617814974 | etot = -48.496672602159
329000  ekin = 10.967403256575 |  erot = 11.3047655940369 | epot = -70.768841449533 | etot = -48.4966725989211
330000  ekin = 10.5471219087206 |  erot = 11.3459152750598 | epot = -70.3897097753988 | etot = -48.4966725916185
331000  ekin = 9.99817977282685 |  erot = 11.3709343469158 | epot = -69.8657867027404 | etot = -48.4966725829977
332000  ekin = 9.43640210775953 |  erot = 11.3868472546905 | epot = -69.319921938477 | etot = -48.496672576027
333000  ekin = 8.96275314870339 |  erot = 11.3930028323391 | epot = -68.8524285534048 | etot = -48.4966725723623
334000  ekin = 8.63845657349899 |  erot = 11.382764726995 | epot = -68.5178938722069 | etot = -48.4966725717129
335000  ekin = 8.47696736446511 |  erot = 11.3460820194054 | epot = -68.319721959873 | etot = -48.4966725760025
336000  ekin = 8.45129453002892 |  erot = 11.2716956100397 | epot = -68.2196627183618 | etot = -48.4966725782932
337000  ekin = 8.52855094859156 |  erot = 11.1567863477114 | epot = -68.1820098764486 | etot = -48.4966725801456
338000  ekin = 8.67667036350068 |  erot = 11.0029242666523 | epot = -68.1762672115904 | etot = -48.4966725814374
339000  ekin = 8.86840718542409 |  erot = 10.8141117179581 | epot = -68.1791914857634 | etot = -48.4966725823812
340000  ekin = 9.08074049345216 |  erot = 10.5949858590956 | epot = -68.17239893578 | etot = -48.4966725832323
341000  ekin = 9.29280025523327 |  erot = 10.3497144840385 | epot = -68.1391873233698 | etot = -48.4966725840981
342000  ekin = 9.48478364390527 |  erot = 10.0817821314149 | epot = -68.0632383602007 | etot = -48.4966725848805
343000  ekin = 9.6388959972346 |  erot = 9.79448397039704 | epot = -67.9300525529737 | etot = -48.4966725853421
344000  ekin = 9.74179750087265 |  erot = 9.49171920192241 | epot = -67.7301892880477 | etot = -48.4966725852527
345000  ekin = 9.78689625540344 |  erot = 9.17855510439542 | epot = -67.462123944412 | etot = -48.4966725846132
346000  ekin = 9.77487619975293 |  erot = 8.86098115600662 | epot = -67.132529939332 | etot = -48.4966725835724
347000  ekin = 9.71190434737071 |  erot = 8.54542801625908 | epot = -66.7540049460671 | etot = -48.4966725824373
348000  ekin = 9.60626623884699 |  erot = 8.23797752711893 | epot = -66.3409163474607 | etot = -48.4966725814948
349000  ekin = 9.46512205486322 |  erot = 7.94382241625456 | epot = -65.9056170520253 | etot = -48.4966725809075
350000  ekin = 9.29263921345323 |  erot = 7.66718775568181 | epot = -65.4564995497893 | etot = -48.4966725806542
351000  ekin = 9.0903070404026 |  erot = 7.41172558152282 | epot = -64.998705202447 | etot = -48.4966725805216
352000  ekin = 8.85964507192677 |  erot = 7.18116708497219 | epot = -64.5374847370494 | etot = -48.4966725801504
353000  ekin = 8.60706719314483 |  erot = 6.97993996547515 | epot = -64.0836797376537 | etot = -48.4966725790337
354000  ekin = 8.35365998681131 |  erot = 6.81451510367391 | epot = -63.6648476658683 | etot = -48.4966725753831
355000  ekin = 8.13817060770625 |  erot = 6.6931662282831 | epot = -63.3280094087312 | etot = -48.4966725727419
356000  ekin = 8.00303344820868 |  erot = 6.62071403033337 | epot = -63.1204200476389 | etot = -48.4966725690968
357000  ekin = 8.00329594806041 |  erot = 6.60119920908672 | epot = -63.1011677226111 | etot = -48.496672565464
358000  ekin = 8.19390069545826 |  erot = 6.63655005195628 | epot = -63.3271233108348 | etot = -48.4966725634203
359000  ekin = 8.60851483671878 |  erot = 6.72479591292301 | epot = -63.8299833140608 | etot = -48.496672564419
360000  ekin = 9.24022555647312 |  erot = 6.85875874178493 | epot = -64.5956568672227 | etot = -48.4966725689646
361000  ekin = 10.0343517665785 |  erot = 7.02601171009903 | epot = -65.5570360531846 | etot = -48.4966725765071
362000  ekin = 10.8949623485542 |  erot = 7.21007448014018 | epot = -66.6017094133803 | etot = -48.496672584686
363000  ekin = 11.7154060072145 |  erot = 7.39407842263496 | epot = -67.6061570205514 | etot = -48.496672590702
364000  ekin = 12.4057223336305 |  erot = 7.56453665261263 | epot = -68.4669315836164 | etot = -48.4966725973732
365000  ekin = 12.8900700952475 |  erot = 7.71262358050216 | epot = -69.0993662750096 | etot = -48.4966725992599
366000  ekin = 13.1382701917133 |  erot = 7.83636021669752 | epot = -69.4713030060874 | etot = -48.4966725976766
367000  ekin = 13.1662433494503 |  erot = 7.94108342049927 | epot = -69.6039993640878 | etot = -48.4966725941383
368000  ekin = 13.0216257321896 |  erot = 8.03746300617804 | epot = -69.5557613270778 | etot = -48.4966725887102
369000  ekin = 12.769963920499 |  erot = 8.13884083903498 | epot = -69.405477342997 | etot = -48.496672583463
370000  ekin = 12.4763633940696 |  erot = 8.2585280704997 | epot = -69.2315640444229 | etot = -48.4966725798536
371000  ekin = 12.1883522141413 |  erot = 8.40712894600212 | epot = -69.0921537379891 | etot = -48.4966725778457
372000  ekin = 11.9337668266525 |  erot = 8.59209712213029 | epot = -69.0225365257159 | etot = -48.4966725769331
373000  ekin = 11.7268114357317 |  erot = 8.81820188225653 | epot = -69.0416858943681 | etot = -48.4966725763799
374000  ekin = 11.5751062922188 |  erot = 9.08799140196232 | epot = -69.1597702703438 | etot = -48.4966725761626
375000  ekin = 11.4816771194436 |  erot = 9.40179119698527 | epot = -69.38014089299 | etot = -48.4966725765611
376000  ekin = 11.4415244462805 |  erot = 9.75725267435965 | epot = -69.6954496986156 | etot = -48.4966725779755
377000  ekin = 11.4364317357126 |  erot = 10.1487019288331 | epot = -70.0818062452646 | etot = -48.496672580719
378000  ekin = 11.4326847178842 |  erot = 10.5666289070383 | epot = -70.495986208938 | etot = -48.4966725840156
379000  ekin = 11.3879261245754 |  erot = 10.9960382478821 | epot = -70.8806369610855 | etot = -48.496672588628
380000  ekin = 11.2500883027076 |  erot = 11.4211944009824 | epot = -71.1679552964707 | etot = -48.4966725927807
381000  ekin = 10.9726921230238 |  erot = 11.8269291033838 | epot = -71.2962938221308 | etot = -48.4966725957232
382000  ekin = 10.5281602154609 |  erot = 12.1993149200657 | epot = -71.2241477322819 | etot = -48.4966725967553
383000  ekin = 9.91669157186262 |  erot = 12.5275908716705 | epot = -70.9409550387754 | etot = -48.4966725952423
384000  ekin = 9.17301492866742 |  erot = 12.8043890136623 | epot = -70.4740765341201 | etot = -48.4966725917904
385000  ekin = 8.36601181966867 |  erot = 13.0251847436305 | epot = -69.88786914869 | etot = -48.4966725853908
386000  ekin = 7.59336935507729 |  erot = 13.1937587055513 | epot = -69.2838006385062 | etot = -48.4966725778776
387000  ekin = 6.96355937774547 |  erot = 13.3174316291699 | epot = -68.7776635784017 | etot = -48.4966725714863
388000  ekin = 6.56667711256593 |  erot = 13.4028350179065 | epot = -68.4661846988466 | etot = -48.4966725683742
389000  ekin = 6.44526911466385 |  erot = 13.452341630637 | epot = -68.3942833608618 | etot = -48.4966726155609
390000  ekin = 6.40022004919714 |  erot = 13.5413190039884 | epot = -68.4382116193256 | etot = -48.49667256614
391000  ekin = 6.74670657780069 |  erot = 13.6308036789756 | epot = -68.8741828738666 | etot = -48.4966726170903
392000  ekin = 7.27053910735973 |  erot = 13.5318497226336 | epot = -69.299061444391 | etot = -48.4966726143977
393000  ekin = 7.84211066747953 |  erot = 13.3471669898581 | epot = -69.6859502752907 | etot = -48.496672617953
394000  ekin = 8.41137168864405 |  erot = 13.0851416289724 | epot = -69.9931859369742 | etot = -48.4966726193577
395000  ekin = 8.94777378650342 |  erot = 12.7509585841179 | epot = -70.1954049895143 | etot = -48.4966726188929
396000  ekin = 9.44412388897363 |  erot = 12.3562529221338 | epot = -70.2970494281978 | etot = -48.4966726170903
397000  ekin = 9.91050995598383 |  erot = 11.9175382863925 | epot = -70.3247208568974 | etot = -48.4966726145211
398000  ekin = 10.3672265667985 |  erot = 11.4545225019349 | epot = -70.3184216803495 | etot = -48.4966726116161
399000  ekin = 10.8377881061497 |  erot = 10.9888166293627 | epot = -70.3232773446045 | etot = -48.4966726090921
400000  ekin = 11.3412083656195 |  erot = 10.5421455765466 | epot = -70.3800265495115 | etot = -48.4966726073453
401000  ekin = 11.8856989725412 |  erot = 10.1353050509662 | epot = -70.5176766301703 | etot = -48.4966726066628
402000  ekin = 12.4648693384634 |  erot = 9.78704273789977 | epot = -70.7485846834754 | etot = -48.4966726071122
403000  ekin = 13.0574032172191 |  erot = 9.51287607378396 | epot = -71.0669518996446 | etot = -48.4966726086415
404000  ekin = 13.6291563424996 |  erot = 9.32384163732728 | epot = -71.4496705902089 | etot = -48.496672610382
405000  ekin = 14.1398204789533 |  erot = 9.2249960960061 | epot = -71.8614891889621 | etot = -48.4966726140027
406000  ekin = 14.5379075448756 |  erot = 9.21473993626553 | epot = -72.2493200997454 | etot = -48.4966726186042
407000  ekin = 14.7678000073509 |  erot = 9.28285845910674 | epot = -72.5473310902002 | etot = -48.4966726237426
408000  ekin = 14.7748392327449 |  erot = 9.4128874127938 | epot = -72.6843992735992 | etot = -48.4966726280605
409000  ekin = 14.5211191199619 |  erot = 9.58494933068023 | epot = -72.6027410803212 | etot = -48.496672629679
410000  ekin = 14.0080722077603 |  erot = 9.78050651650688 | epot = -72.2852513515596 | etot = -48.4966726272924
411000  ekin = 13.2885633490125 |  erot = 9.98745844077018 | epot = -71.7726944109714 | etot = -48.4966726211887
412000  ekin = 12.4602105801987 |  erot = 10.2020245096757 | epot = -71.1589077030933 | etot = -48.4966726132189
413000  ekin = 11.6411968847183 |  erot = 10.4265056500499 | epot = -70.564375140538 | etot = -48.4966726057697
414000  ekin = 10.9403488034326 |  erot = 10.6647067440403 | epot = -70.101728148176 | etot = -48.4966726007031
415000  ekin = 10.4337835958588 |  erot = 10.9176175689382 | epot = -69.8480737636831 | etot = -48.4966725988861
416000  ekin = 10.1537726115972 |  erot = 11.1808649833432 | epot = -69.8313101952366 | etot = -48.4966726002962
417000  ekin = 10.0887098230839 |  erot = 11.4440532452565 | epot = -70.0294356728534 | etot = -48.496672604513
418000  ekin = 10.1900748296287 |  erot = 11.691486486043 | epot = -70.3782339258708 | etot = -48.4966726101992
419000  ekin = 10.3882021396858 |  erot = 11.9042621356762 | epot = -70.7891368917029 | etot = -48.4966726163409
420000  ekin = 10.6068294649459 |  erot = 12.0629207258658 | epot = -71.1664228125149 | etot = -48.4966726217032
421000  ekin = 10.7783620216873 |  erot = 12.1507790873922 | epot = -71.4258137343539 | etot = -48.4966726252744
422000  ekin = 10.8559244969804 |  erot = 12.1572275839872 | epot = -71.5098247075458 | etot = -48.4966726265783
423000  ekin = 10.8187145658879 |  erot = 12.0798940410483 | epot = -71.3952812327063 | etot = -48.4966726257701
424000  ekin = 10.6702271597875 |  erot = 11.9248162769282 | epot = -71.0917160601002 | etot = -48.4966726233845
425000  ekin = 10.4326823761091 |  erot = 11.7046834731806 | epot = -70.6340384692427 | etot = -48.4966726199529
426000  ekin = 10.1418512280332 |  erot = 11.4360680199724 | epot = -70.074591863862 | etot = -48.4966726158564
427000  ekin = 9.84290131625509 |  erot = 11.1364780215079 | epot = -69.4760519492879 | etot = -48.4966726115249
428000  ekin = 9.58662756138332 |  erot = 10.821960762199 | epot = -68.9052609309581 | etot = -48.4966726073758
429000  ekin = 9.42385367708414 |  erot = 10.5054247281949 | epot = -68.4259510096258 | etot = -48.4966726043467
430000  ekin = 9.3932697107341 |  erot = 10.1945970633201 | epot = -68.0845393773157 | etot = -48.4966726032615
431000  ekin = 9.51026104615778 |  erot = 9.89118956774573 | epot = -67.8981232184714 | etot = -48.4966726045679
432000  ekin = 9.76020464999556 |  erot = 9.59158522240952 | epot = -67.8484624803521 | etot = -48.496672607947
433000  ekin = 10.1011132166541 |  erot = 9.28935747988458 | epot = -67.8871433087297 | etot = -48.4966726121911
434000  ekin = 10.477294645398 |  erot = 8.97915707053188 | epot = -67.9531243315628 | etot = -48.4966726156329
435000  ekin = 10.8390965471541 |  erot = 8.66047090159804 | epot = -67.9962400658108 | etot = -48.4966726170586
436000  ekin = 11.1581846566038 |  erot = 8.33927074925892 | epot = -67.9941280217146 | etot = -48.4966726158519
437000  ekin = 11.4322684558217 |  erot = 8.02673002723535 | epot = -67.9556710974297 | etot = -48.4966726143726
438000  ekin = 11.6671720806722 |  erot = 7.73476573343809 | epot = -67.8986104279399 | etot = -48.4966726138296
439000  ekin = 11.8579368223453 |  erot = 7.47155579530697 | epot = -67.8261652325874 | etot = -48.4966726149351
440000  ekin = 11.9818235336916 |  erot = 7.23965689692778 | epot = -67.7181530476712 | etot = -48.4966726170518
441000  ekin = 12.006364309192 |  erot = 7.03716778986921 | epot = -67.5402047177844 | etot = -48.4966726187232
442000  ekin = 11.9008309355917 |  erot = 6.85995053948465 | epot = -67.2574540949691 | etot = -48.4966726198928
443000  ekin = 11.6372457710143 |  erot = 6.7022277476632 | epot = -66.8361461367557 | etot = -48.4966726180783
444000  ekin = 11.2404935703188 |  erot = 6.5627400649185 | epot = -66.2999062491644 | etot = -48.496672613927
445000  ekin = 10.7717210496939 |  erot = 6.44292159847087 | epot = -65.7113152554496 | etot = -48.4966726072849
446000  ekin = 10.3146345400096 |  erot = 6.34495994125589 | epot = -65.1562670843396 | etot = -48.4966726030741
447000  ekin = 9.93895886680335 |  erot = 6.2710307219614 | epot = -64.70666218756 | etot = -48.4966725987952
448000  ekin = 9.70550645607552 |  erot = 6.22337425449395 | epot = -64.4255533067951 | etot = -48.4966725962256
449000  ekin = 9.65303357366369 |  erot = 6.20344657437415 | epot = -64.3531527439794 | etot = -48.4966725959415
450000  ekin = 9.78741215226451 |  erot = 6.21100556223012 | epot = -64.4950903140854 | etot = -48.4966725995908
451000  ekin = 10.0726697694945 |  erot = 6.24121610507066 | epot = -64.8105584783442 | etot = -48.4966726037791
452000  ekin = 10.4498627201324 |  erot = 6.28789558017445 | epot = -65.2344309085094 | etot = -48.4966726082025
453000  ekin = 10.8573529820792 |  erot = 6.3442719936139 | epot = -65.6982975879929 | etot = -48.4966726122998
454000  ekin = 11.2383729595096 |  erot = 6.40217211179981 | epot = -66.1372176874634 | etot = -48.496672616154
455000  ekin = 11.5411597564631 |  erot = 6.45158842061622 | epot = -66.4894207972152 | etot = -48.496672620136
456000  ekin = 11.7145965070118 |  erot = 6.48095932011937 | epot = -66.6922284513372 | etot = -48.496672624206
457000  ekin = 11.7080889258223 |  erot = 6.4790494806222 | epot = -66.6838110339246 | etot = -48.4966726274801
458000  ekin = 11.4817974385589 |  erot = 6.43838338689293 | epot = -66.4168534538574 | etot = -48.4966726284056
459000  ekin = 11.0260461730192 |  erot = 6.35890594748302 | epot = -65.8816247459846 | etot = -48.4966726254824
460000  ekin = 10.3811213891701 |  erot = 6.25005112060255 | epot = -65.1278451279305 | etot = -48.4966726181579
461000  ekin = 9.64500400724202 |  erot = 6.13001722355201 | epot = -64.2716938384229 | etot = -48.4966726076289
462000  ekin = 8.96155334209401 |  erot = 6.0232565334345 | epot = -63.4814824659604 | etot = -48.4966725904319
463000  ekin = 8.49356022962542 |  erot = 5.96064229273601 | epot = -62.950875108391 | etot = -48.4966725860295
464000  ekin = 8.31098322697756 |  erot = 5.95399558728201 | epot = -62.7616514010784 | etot = -48.4966725868188
465000  ekin = 8.41527289815257 |  erot = 6.00555163247755 | epot = -62.9174971227792 | etot = -48.496672592149
466000  ekin = 8.74071951180125 |  erot = 6.107452024617 | epot = -63.3448441360316 | etot = -48.4966725996134
467000  ekin = 8.88640654813702 |  erot = 6.32601497563827 | epot = -63.7090940524723 | etot = -48.496672528697
468000  ekin = 9.0750516035454 |  erot = 6.75512448038786 | epot = -64.326848641194 | etot = -48.4966725572607
469000  ekin = 9.43618930725295 |  erot = 6.98018590406613 | epot = -64.9130477256858 | etot = -48.4966725143667
470000  ekin = 9.5389192890748 |  erot = 7.05614003952522 | epot = -65.0917318419334 | etot = -48.4966725133334
471000  ekin = 9.47129866737627 |  erot = 7.09012582275068 | epot = -65.0580969994753 | etot = -48.4966725093484
472000  ekin = 9.29219039280112 |  erot = 7.08038845059064 | epot = -64.8692513473263 | etot = -48.4966725039346
473000  ekin = 9.07859106335565 |  erot = 7.03223766261859 | epot = -64.6075012242425 | etot = -48.4966724982683
474000  ekin = 8.90859119064582 |  erot = 6.95657374542113 | epot = -64.361837429149 | etot = -48.4966724930821
475000  ekin = 8.85085237787058 |  erot = 6.86788557827541 | epot = -64.2154104450232 | etot = -48.4966724888772
476000  ekin = 8.95844704209607 |  erot = 6.78173938268418 | epot = -64.2368589107825 | etot = -48.4966724860022
477000  ekin = 9.26445642862314 |  erot = 6.71235576615976 | epot = -64.4734846830834 | etot = -48.4966724883005
478000  ekin = 9.75673758778867 |  erot = 6.67310243746892 | epot = -64.9265125143914 | etot = -48.4966724891338
479000  ekin = 10.4083719414133 |  erot = 6.67104131549829 | epot = -65.5760857486891 | etot = -48.4966724917775
480000  ekin = 11.1786387693468 |  erot = 6.70609770624713 | epot = -66.3814089720745 | etot = -48.4966724964806
481000  ekin = 11.9550179833301 |  erot = 6.77573712918461 | epot = -67.2274276420803 | etot = -48.4966725295657
482000  ekin = 12.1969877154023 |  erot = 6.97182101607883 | epot = -67.6654811323096 | etot = -48.4966724008285
483000  ekin = 12.8315687003902 |  erot = 7.27453378457519 | epot = -68.6027750201801 | etot = -48.4966725352147
484000  ekin = 13.1379089548489 |  erot = 7.35121017880495 | epot = -68.9857915491995 | etot = -48.4966724155457
485000  ekin = 13.1455744815352 |  erot = 7.39132031002879 | epot = -69.0335672082532 | etot = -48.4966724166892
486000  ekin = 12.8847677059838 |  erot = 7.41820327748147 | epot = -68.7996433973739 | etot = -48.4966724139086
487000  ekin = 12.3995023295598 |  erot = 7.43730294196129 | epot = -68.3334776793774 | etot = -48.4966724078564
488000  ekin = 11.7801246298141 |  erot = 7.45872842904693 | epot = -67.7355254587262 | etot = -48.4966723998652
489000  ekin = 11.1454971166853 |  erot = 7.49387389619964 | epot = -67.136043404651 | etot = -48.4966723917661
490000  ekin = 10.6174118656706 |  erot = 7.55177149139563 | epot = -66.6658557428531 | etot = -48.4966723857869
491000  ekin = 10.2893788237227 |  erot = 7.63548116160718 | epot = -66.4215323695175 | etot = -48.4966723841876
492000  ekin = 10.1956274375869 |  erot = 7.73922358367483 | epot = -66.4315234095995 | etot = -48.4966723883378
493000  ekin = 10.2924671649369 |  erot = 7.84793186661483 | epot = -66.6370714290956 | etot = -48.4966723975439
494000  ekin = 10.4668249564063 |  erot = 7.94111684624392 | epot = -66.9046142110693 | etot = -48.4966724084191
495000  ekin = 10.5791383442144 |  erot = 8.00124026344057 | epot = -67.0770510235223 | etot = -48.4966724158674
496000  ekin = 10.5277635544545 |  erot = 8.0234243897172 | epot = -67.0478603600559 | etot = -48.4966724158843
497000  ekin = 10.3008638582113 |  erot = 8.02081822154823 | epot = -66.8183544879829 | etot = -48.4966724082233
498000  ekin = 9.9830300829441 |  erot = 8.02168645226284 | epot = -66.501388931739 | etot = -48.496672396532
499000  ekin = 9.71342589197285 |  erot = 8.05962720417813 | epot = -66.2697254820144 | etot = -48.4966723858634
500000  ekin = 9.6235168911854 |  erot = 8.16244515239849 | epot = -66.2826344235657 | etot = -48.4966723799818
501000  ekin = 9.78787333398157 |  erot = 8.3444730367172 | epot = -66.629018750896 | etot = -48.4966723801973
502000  ekin = 10.2050108702155 |  erot = 8.60370485257146 | epot = -67.3053881085791 | etot = -48.4966723857921
503000  ekin = 10.8051989673788 |  erot = 8.92246829120059 | epot = -68.2243396537846 | etot = -48.4966723952051
504000  ekin = 11.4710453968967 |  erot = 9.26984220618396 | epot = -69.2375600100513 | etot = -48.4966724069707
505000  ekin = 12.0583532741101 |  erot = 9.60506055558158 | epot = -70.160086249331 | etot = -48.4966724196392
506000  ekin = 12.4169616297787 |  erot = 9.88273601241314 | epot = -70.7963700728992 | etot = -48.4966724307074
507000  ekin = 12.4225762031031 |  erot = 10.0614429671167 | epot = -70.9806916064419 | etot = -48.496672436222
508000  ekin = 12.0224546476675 |  erot = 10.1150484289833 | epot = -70.6341755095221 | etot = -48.4966724328713
509000  ekin = 11.2713256107343 |  erot = 10.0417150354825 | epot = -69.8097130671352 | etot = -48.4966724209184
510000  ekin = 10.3259224264145 |  erot = 9.86440101432832 | epot = -68.6869958451572 | etot = -48.4966724044144
511000  ekin = 9.39566767793053 |  erot = 9.62224126641417 | epot = -67.5145813329279 | etot = -48.4966723885832
512000  ekin = 8.67739606863164 |  erot = 9.35823452028457 | epot = -66.5323029667235 | etot = -48.4966723778073
513000  ekin = 8.30173505000993 |  erot = 9.10874451689391 | epot = -65.9071519407483 | etot = -48.4966723738445
514000  ekin = 8.31133758538756 |  erot = 8.90213046051507 | epot = -65.710140421329 | etot = -48.4966723754264
515000  ekin = 8.65105183696316 |  erot = 8.7514282302608 | epot = -65.8991524513801 | etot = -48.4966723841561
516000  ekin = 9.19545504792417 |  erot = 8.65020590792967 | epot = -66.3423333510927 | etot = -48.4966723952388
517000  ekin = 9.78948013470045 |  erot = 8.58459334669478 | epot = -66.8707458885787 | etot = -48.4966724071835
518000  ekin = 10.2719405201907 |  erot = 8.53610767680698 | epot = -67.3047206151279 | etot = -48.4966724181302
519000  ekin = 10.5035619038422 |  erot = 8.48509741614985 | epot = -67.4853317483345 | etot = -48.4966724283424
520000  ekin = 10.3837804903591 |  erot = 8.41855293465755 | epot = -67.2990058537329 | etot = -48.4966724287163
521000  ekin = 9.91971480302427 |  erot = 8.33012920363259 | epot = -66.7465164259076 | etot = -48.4966724192507
522000  ekin = 9.25580910193788 |  erot = 8.22471517249033 | epot = -65.9771966777207 | etot = -48.4966724032925
523000  ekin = 8.61677254360916 |  erot = 8.11873116220433 | epot = -65.2321760932319 | etot = -48.4966723874184
524000  ekin = 8.22312599613015 |  erot = 8.03533827067386 | epot = -64.7551366426032 | etot = -48.4966723757992
525000  ekin = 8.2309691908796 |  erot = 7.99952905918643 | epot = -64.7271706203461 | etot = -48.49667237028
526000  ekin = 8.70541343261598 |  erot = 8.03327780743259 | epot = -65.2353636116279 | etot = -48.4966723715793
527000  ekin = 9.61054447377517 |  erot = 8.14859195684391 | epot = -66.2558088113309 | etot = -48.4966723807118
528000  ekin = 10.8064190209308 |  erot = 8.34203048718433 | epot = -67.6451219042434 | etot = -48.4966723961283
529000  ekin = 12.0748947021392 |  erot = 8.59301141009918 | epot = -69.1645785259815 | etot = -48.4966724137432
530000  ekin = 13.1772899053561 |  erot = 8.86731230216095 | epot = -70.5412746358192 | etot = -48.4966724283022
531000  ekin = 13.9222479329561 |  erot = 9.12596646781095 | epot = -71.5448868367725 | etot = -48.4966724360055
532000  ekin = 14.2109040109712 |  erot = 9.33621159867702 | epot = -72.0437880461094 | etot = -48.4966724364612
533000  ekin = 14.0393496048364 |  erot = 9.47948522986669 | epot = -72.0155072660307 | etot = -48.4966724313276
534000  ekin = 13.4765937110865 |  erot = 9.55437050378899 | epot = -71.5276366366405 | etot = -48.496672421765
535000  ekin = 12.6476855098919 |  erot = 9.57521298744177 | epot = -70.719570906192 | etot = -48.4966724088584
536000  ekin = 11.7187499511448 |  erot = 9.56662150363136 | epot = -69.7820438499262 | etot = -48.4966723951501
537000  ekin = 10.8667161281277 |  erot = 9.55558575468458 | epot = -68.9189742665298 | etot = -48.4966723837175
538000  ekin = 10.2407642556974 |  erot = 9.56460479423064 | epot = -68.302041426641 | etot = -48.496672376713
539000  ekin = 9.93256310316437 |  erot = 9.60813474995735 | epot = -68.0373702280363 | etot = -48.4966723749146
540000  ekin = 9.9663505946704 |  erot = 9.69366995189707 | epot = -68.1566929217508 | etot = -48.4966723751834
541000  ekin = 10.3033434566754 |  erot = 9.82452773464469 | epot = -68.6245435738886 | etot = -48.4966723825685
542000  ekin = 10.8374546472347 |  erot = 9.99210203741248 | epot = -69.3262290766553 | etot = -48.4966723920081
543000  ekin = 11.4320363086548 |  erot = 10.1839460987212 | epot = -70.1126548089748 | etot = -48.4966724015988
544000  ekin = 11.9481549488554 |  erot = 10.3868550358245 | epot = -70.8316823942835 | etot = -48.4966724096036
545000  ekin = 12.2696023022718 |  erot = 10.5892508892387 | epot = -71.3555256062342 | etot = -48.4966724147236
546000  ekin = 12.321748370744 |  erot = 10.7831241363479 | epot = -71.601544923376 | etot = -48.4966724162841
547000  ekin = 12.0815090899527 |  erot = 10.9652333443141 | epot = -71.5434148485646 | etot = -48.4966724142979
548000  ekin = 11.5772594483929 |  erot = 11.1370572249374 | epot = -71.2109890828874 | etot = -48.4966724095571
549000  ekin = 10.8796146423249 |  erot = 11.3027415301181 | epot = -70.6790285755882 | etot = -48.4966724031452
550000  ekin = 10.0861650600294 |  erot = 11.4673420616665 | epot = -70.0501795179829 | etot = -48.496672396287
551000  ekin = 9.30420856247628 |  erot = 11.6346062512735 | epot = -69.435487203823 | etot = -48.4966723900733
552000  ekin = 8.63456852509588 |  erot = 11.8051739021005 | epot = -68.9364148125888 | etot = -48.4966723853924
553000  ekin = 8.15765857136581 |  erot = 11.9755314527045 | epot = -68.6298624070135 | etot = -48.4966723829432
554000  ekin = 7.92204387518784 |  erot = 12.1379035109131 | epot = -68.5566197692493 | etot = -48.4966723831483
555000  ekin = 7.93668594953939 |  erot = 12.2813102395747 | epot = -68.7146685751332 | etot = -48.4966723860191
556000  ekin = 8.16908147819853 |  erot = 12.393779334281 | epot = -69.0595332034403 | etot = -48.4966723909608
557000  ekin = 8.55144497214368 |  erot = 12.465479172799 | epot = -69.5135965418038 | etot = -48.4966723968611
558000  ekin = 8.99506879124846 |  erot = 12.4919043884403 | epot = -69.9836455819986 | etot = -48.4966724023098
559000  ekin = 9.40988612193979 |  erot = 12.4759637500258 | epot = -70.3825222781016 | etot = -48.496672406136
560000  ekin = 9.72239125491496 |  erot = 12.4279361391034 | epot = -70.6469998020326 | etot = -48.4966724080143
561000  ekin = 9.88412985938752 |  erot = 12.3629252843669 | epot = -70.7437275521904 | etot = -48.4966724084359
562000  ekin = 9.87014392595536 |  erot = 12.2969140239725 | epot = -70.6637303578499 | etot = -48.496672407922
563000  ekin = 9.67269052989872 |  erot = 12.2435461742526 | epot = -70.4129091125218 | etot = -48.4966724083705
564000  ekin = 9.29561869669046 |  erot = 12.2123745870917 | epot = -70.0046656893348 | etot = -48.4966724055526
565000  ekin = 8.77967610202421 |  erot = 12.2075615849193 | epot = -69.4839100880982 | etot = -48.4966724011548
566000  ekin = 8.19459477314837 |  erot = 12.2284388471803 | epot = -68.9197060163001 | etot = -48.4966723959714
567000  ekin = 7.62573923577576 |  erot = 12.2693533996224 | epot = -68.391765026759 | etot = -48.4966723913608
568000  ekin = 7.15404054173824 |  erot = 12.3199400383766 | epot = -67.9706529685886 | etot = -48.4966723884738
569000  ekin = 6.83717313904365 |  erot = 12.3666389683575 | epot = -67.7004844951495 | etot = -48.4966723877484
570000  ekin = 6.69956781443878 |  erot = 12.3955125883792 | epot = -67.5917527916869 | etot = -48.4966723888689
571000  ekin = 6.73320809574575 |  erot = 12.3955019363285 | epot = -67.6253824231304 | etot = -48.4966723910561
572000  ekin = 6.90669043361352 |  erot = 12.360901189443 | epot = -67.7642640151546 | etot = -48.496672392098
573000  ekin = 7.18429647793752 |  erot = 12.295129955523 | epot = -67.9760988286113 | etot = -48.4966723951508
574000  ekin = 7.52006639731463 |  erot = 12.2050646486354 | epot = -68.2218034426913 | etot = -48.4966723967412
575000  ekin = 7.87441000611595 |  erot = 12.0985403159086 | epot = -68.4696227186239 | etot = -48.4966723965993
576000  ekin = 8.23152231474211 |  erot = 11.9863053711619 | epot = -68.7145000810317 | etot = -48.4966723951277
577000  ekin = 8.59621090775485 |  erot = 11.88029454746 | epot = -68.9731778482791 | etot = -48.4966723930643
578000  ekin = 8.98550446109966 |  erot = 11.7917589254419 | epot = -69.273935777607 | etot = -48.4966723910654
579000  ekin = 9.42040764629998 |  erot = 11.7296557361017 | epot = -69.6467357719303 | etot = -48.4966723895287
580000  ekin = 9.92026928438504 |  erot = 11.6994636247959 | epot = -70.1164052981462 | etot = -48.4966723889653
581000  ekin = 10.481235625959 |  erot = 11.7036776252937 | epot = -70.6815856416595 | etot = -48.4966723904068
582000  ekin = 11.0803741506679 |  erot = 11.7381628956894 | epot = -71.315209439996 | etot = -48.4966723936387
583000  ekin = 11.6832905433026 |  erot = 11.7898051581773 | epot = -71.969768100988 | etot = -48.496672399508
584000  ekin = 12.2265963017921 |  erot = 11.8360805991725 | epot = -72.5593493093226 | etot = -48.4966724083579
585000  ekin = 12.6146924454376 |  erot = 11.8453302035058 | epot = -72.956695067911 | etot = -48.4966724189676
586000  ekin = 12.7381776543518 |  erot = 11.7813880279948 | epot = -73.016238110557 | etot = -48.4966724282105
587000  ekin = 12.5064805858927 |  erot = 11.6131474319877 | epot = -72.6163004503534 | etot = -48.4966724324729
588000  ekin = 11.8864734315384 |  erot = 11.3251009524907 | epot = -71.708246812138 | etot = -48.4966724281089
589000  ekin = 10.9473869135698 |  erot = 10.9235098586354 | epot = -70.3675691877464 | etot = -48.4966724155412
590000  ekin = 9.86035696870277 |  erot = 10.4344934448947 | epot = -68.7915228116269 | etot = -48.4966723980295
591000  ekin = 8.856315097301 |  erot = 9.8962156264538 | epot = -67.24920310466 | etot = -48.4966723809053
592000  ekin = 8.15513077394364 |  erot = 9.34935781082713 | epot = -66.0011609546423 | etot = -48.4966723698715
593000  ekin = 7.88860666870599 |  erot = 8.82965609771594 | epot = -65.2149351345128 | etot = -48.4966723680909
594000  ekin = 8.05760926843084 |  erot = 8.36349649514688 | epot = -64.917778137945 | etot = -48.4966723743673
595000  ekin = 8.55177999823075 |  erot = 7.96715997621382 | epot = -65.0156123581699 | etot = -48.4966723837253
596000  ekin = 9.20240795646494 |  erot = 7.64971555618372 | epot = -65.3487959078275 | etot = -48.4966723951788
597000  ekin = 9.82563991116664 |  erot = 7.41365255171618 | epot = -65.7359648662224 | etot = -48.4966724033396
598000  ekin = 10.2831958981112 |  erot = 7.25474571550897 | epot = -66.0346140226854 | etot = -48.4966724090653
599000  ekin = 10.4823548481571 |  erot = 7.16384844598274 | epot = -66.1428757063982 | etot = -48.4966724122583
600000  ekin = 10.377655957699 |  erot = 7.12899314635559 | epot = -66.0033215164734 | etot = -48.4966724124188
601000  ekin = 9.97447570388701 |  erot = 7.1388129593999 | epot = -65.6099610722624 | etot = -48.4966724089755
602000  ekin = 9.33239148581919 |  erot = 7.18604650076208 | epot = -65.0151103884962 | etot = -48.4966724019149
603000  ekin = 8.56059728304323 |  erot = 7.26939823175125 | epot = -64.3266679072083 | etot = -48.4966723924139
604000  ekin = 7.7984442591758 |  erot = 7.39226229321183 | epot = -63.6873789354487 | etot = -48.4966723830611
605000  ekin = 7.18334355707592 |  erot = 7.55875733480148 | epot = -63.2387732678989 | etot = -48.4966723760215
606000  ekin = 6.82339792281676 |  erot = 7.77079572204939 | epot = -63.0908660164771 | etot = -48.4966723716109
607000  ekin = 6.78106761298459 |  erot = 8.02640715106275 | epot = -63.3041471355128 | etot = -48.4966723714655
608000  ekin = 7.06650520946426 |  erot = 8.31925929524446 | epot = -63.8824368788658 | etot = -48.4966723741571
609000  ekin = 7.64869014780975 |  erot = 8.64063737883881 | epot = -64.7859999056167 | etot = -48.4966723789681
610000  ekin = 8.45880674200776 |  erot = 8.97898134769688 | epot = -65.9344604774328 | etot = -48.4966723877281
611000  ekin = 9.4001263207956 |  erot = 9.32028280864193 | epot = -67.2170815245993 | etot = -48.4966723951617
612000  ekin = 10.3724864441584 |  erot = 9.65110388613771 | epot = -68.5202627333548 | etot = -48.4966724030588
613000  ekin = 11.273882244626 |  erot = 9.9556440821821 | epot = -69.72619873741 | etot = -48.4966724106019
614000  ekin = 12.0134738011408 |  erot = 10.2166935701722 | epot = -70.7268397870958 | etot = -48.4966724157829
615000  ekin = 12.5325228236381 |  erot = 10.4217069668423 | epot = -71.450902207423 | etot = -48.4966724169425
616000  ekin = 12.8258294711986 |  erot = 10.566474545366 | epot = -71.8889764297518 | etot = -48.4966724131872
617000  ekin = 12.9484167495066 |  erot = 10.6576196901733 | epot = -72.1027088454161 | etot = -48.4966724057361
618000  ekin = 12.998475466013 |  erot = 10.7112673342273 | epot = -72.2064151975271 | etot = -48.4966723972868
619000  ekin = 13.0833633892071 |  erot = 10.7483523556986 | epot = -72.3283881359039 | etot = -48.4966723909983
620000  ekin = 13.2805224346224 |  erot = 10.7880868966453 | epot = -72.5652817201107 | etot = -48.496672388843
621000  ekin = 13.6153158270094 |  erot = 10.8424788949038 | epot = -72.9544671127491 | etot = -48.4966723908359
622000  ekin = 14.0617052044724 |  erot = 10.9128304448974 | epot = -73.4712080455024 | etot = -48.4966723961327
623000  ekin = 14.5562524522845 |  erot = 10.9888554747774 | epot = -74.0417803304225 | etot = -48.4966724033606
624000  ekin = 15.0184966479576 |  erot = 11.0501520933367 | epot = -74.5653211518535 | etot = -48.4966724105592
625000  ekin = 15.3740067441191 |  erot = 11.0719318061176 | epot = -74.9426109653785 | etot = -48.4966724151418
626000  ekin = 15.5799785500671 |  erot = 11.0340258807545 | epot = -75.1106768463317 | etot = -48.4966724155101
627000  ekin = 15.6387406868734 |  erot = 10.9274345484273 | epot = -75.0628476476668 | etot = -48.4966724123662
628000  ekin = 15.5850466430457 |  erot = 10.7544368612362 | epot = -74.8361559131403 | etot = -48.4966724088584
629000  ekin = 15.4527585941032 |  erot = 10.5222074068767 | epot = -74.4716384084828 | etot = -48.4966724075029
630000  ekin = 15.248764071319 |  erot = 10.236990405301 | epot = -73.9824268849356 | etot = -48.4966724083155
631000  ekin = 14.95463085986 |  erot = 9.90350592616926 | epot = -73.3548091955386 | etot = -48.4966724095093
632000  ekin = 14.54712971678 |  erot = 9.5277824876148 | epot = -72.571584613696 | etot = -48.4966724093012
633000  ekin = 14.0259983537383 |  erot = 9.11935081551797 | epot = -71.6420215737048 | etot = -48.4966724044485
634000  ekin = 13.434893448823 |  erot = 8.69195919089113 | epot = -70.6235250390489 | etot = -48.4966723993348
635000  ekin = 12.824895827622 |  erot = 8.26734491149425 | epot = -69.588913133081 | etot = -48.4966723939648
636000  ekin = 12.2634798858286 |  erot = 7.86620866048542 | epot = -68.6263609335687 | etot = -48.4966723872547
637000  ekin = 11.837830509145 |  erot = 7.50870022731589 | epot = -67.8432031168793 | etot = -48.4966723804184
638000  ekin = 11.6379266194863 |  erot = 7.21309192661843 | epot = -67.3476909220041 | etot = -48.4966723758993
639000  ekin = 11.7309756691688 |  erot = 6.99358509588195 | epot = -67.2212331386168 | etot = -48.496672373566
640000  ekin = 12.1483860992341 |  erot = 6.85513197122735 | epot = -67.5001904464754 | etot = -48.4966723760139
641000  ekin = 12.8580389630413 |  erot = 6.79197676459362 | epot = -68.1466881104838 | etot = -48.4966723828488
642000  ekin = 13.7676241865003 |  erot = 6.78663459550888 | epot = -69.0509311759616 | etot = -48.4966723939524
643000  ekin = 14.7311148046696 |  erot = 6.81269225386592 | epot = -70.0404794653553 | etot = -48.4966724068198
644000  ekin = 15.5770857379772 |  erot = 6.83998967566151 | epot = -70.9137478319373 | etot = -48.4966724182986
645000  ekin = 16.1508405485681 |  erot = 6.84150218313639 | epot = -71.4890151571444 | etot = -48.4966724254399
646000  ekin = 16.3517339377883 |  erot = 6.79972807951154 | epot = -71.648134444135 | etot = -48.4966724268351
647000  ekin = 16.1521813975647 |  erot = 6.71011075276661 | epot = -71.3589645731898 | etot = -48.4966724228584
648000  ekin = 15.5941452915208 |  erot = 6.58036041653718 | epot = -70.6711781232478 | etot = -48.4966724151898
649000  ekin = 14.7689091851051 |  erot = 6.42695236576629 | epot = -69.6925339568818 | etot = -48.4966724060104
650000  ekin = 13.7897851522141 |  erot = 6.27009414211622 | epot = -68.5565516915737 | etot = -48.4966723972434
651000  ekin = 12.7827854664051 |  erot = 6.12965793188258 | epot = -67.4091157839821 | etot = -48.4966723856945
652000  ekin = 11.8480628892581 |  erot = 6.02011822013316 | epot = -66.3648534922347 | etot = -48.4966723828435
653000  ekin = 11.0202985972855 |  erot = 5.94865375231979 | epot = -65.4656247316048 | etot = -48.4966723819995
654000  ekin = 10.3091031180511 |  erot = 5.91728137273322 | epot = -64.7230568732843 | etot = -48.4966723825
[...]
838000  ekin = 8.42094145797661 |  erot = 9.94835266834992 | epot = -66.8659664257576 | etot = -48.4966722994311
839000  ekin = 8.20536768150395 |  erot = 10.012243240367 | epot = -66.7142832242599 | etot = -48.496672302389
840000  ekin = 8.10932302136739 |  erot = 10.1009175364921 | epot = -66.7069128631837 | etot = -48.4966723053242
841000  ekin = 8.09432718628577 |  erot = 10.2103111789734 | epot = -66.8013106733128 | etot = -48.4966723080537
842000  ekin = 8.12447284830409 |  erot = 10.3366191345573 | epot = -66.957764293046 | etot = -48.4966723101846
843000  ekin = 8.17242564793842 |  erot = 10.4770425722838 | epot = -67.1461405317211 | etot = -48.4966723114989
844000  ekin = 8.22381294807546 |  erot = 10.629792152031 | epot = -67.3502774120134 | etot = -48.4966723119069
845000  ekin = 8.27955127170831 |  erot = 10.7936569680123 | epot = -67.5698805512956 | etot = -48.4966723115751
846000  ekin = 8.35455925353356 |  erot = 10.9672036716716 | epot = -67.8184352361507 | etot = -48.4966723109456
847000  ekin = 8.47238635762968 |  erot = 11.1476305380471 | epot = -68.1166892062117 | etot = -48.4966723105349
848000  ekin = 8.65810273433286 |  erot = 11.3297217924147 | epot = -68.4844968372748 | etot = -48.4966723105273
849000  ekin = 8.9329020856651 |  erot = 11.5057838965836 | epot = -68.9353582933334 | etot = -48.4966723110847
850000  ekin = 9.30778062670253 |  erot = 11.6667367391758 | epot = -69.4711896784517 | etot = -48.4966723125733
851000  ekin = 9.77385593082056 |  erot = 11.8036289180235 | epot = -70.074157164614 | etot = -48.4966723157699
852000  ekin = 10.2902091175593 |  erot = 11.9080163477226 | epot = -70.6948977866374 | etot = -48.4966723213555
853000  ekin = 10.7774710897525 |  erot = 11.9704639281082 | epot = -71.2446073468658 | etot = -48.4966723290051
854000  ekin = 11.1286098495727 |  erot = 11.9790690570371 | epot = -71.604351243113 | etot = -48.4966723365032
855000  ekin = 11.2404537225969 |  erot = 11.9198426881727 | epot = -71.6569687522265 | etot = -48.4966723414569
856000  ekin = 11.0533273910054 |  erot = 11.7779965318103 | epot = -71.3279962637786 | etot = -48.4966723409628
857000  ekin = 10.5849568284532 |  erot = 11.5448386331215 | epot = -70.626467795706 | etot = -48.4966723341314
858000  ekin = 9.93782549625797 |  erot = 11.2226264151964 | epot = -69.6571242340316 | etot = -48.4966723225772
859000  ekin = 9.27338883856784 |  erot = 10.8254282711299 | epot = -68.5954894195332 | etot = -48.4966723098354
860000  ekin = 8.76267013930508 |  erot = 10.3757646939758 | epot = -67.6351071329322 | etot = -48.4966722996514
861000  ekin = 8.53556496732127 |  erot = 9.89928978757217 | epot = -66.9315270491791 | etot = -48.4966722942857
862000  ekin = 8.65070986986339 |  erot = 9.42036719872688 | epot = -66.5677493624818 | etot = -48.4966722938915
863000  ekin = 9.09319445840874 |  erot = 8.96001365957565 | epot = -66.5498804151446 | etot = -48.4966722971602
864000  ekin = 9.79331572305551 |  erot = 8.53570874170276 | epot = -66.8256967670887 | etot = -48.4966723023304
865000  ekin = 10.6528659483603 |  erot = 8.1619337481963 | epot = -67.3114720044079 | etot = -48.4966723078513
866000  ekin = 11.570639470114 |  erot = 7.85082867468824 | epot = -67.9181404559871 | etot = -48.4966723111849
867000  ekin = 12.4665855150464 |  erot = 7.61306293828822 | epot = -68.5763207677325 | etot = -48.4966723143979
868000  ekin = 13.2806731240691 |  erot = 7.45693596344013 | epot = -69.2342814034079 | etot = -48.4966723158987
869000  ekin = 13.9812766459746 |  erot = 7.38865717133806 | epot = -69.8666061334702 | etot = -48.4966723161576
870000  ekin = 14.5601728177746 |  erot = 7.41145610128879 | epot = -70.4683012354412 | etot = -48.4966723163778
871000  ekin = 15.0180932154381 |  erot = 7.52387391479662 | epot = -71.0386394482707 | etot = -48.496672318036
872000  ekin = 15.3437544430603 |  erot = 7.71754298435372 | epot = -71.5579697497311 | etot = -48.496672322317
873000  ekin = 15.4947478924952 |  erot = 7.97535948551146 | epot = -71.9667797066116 | etot = -48.496672328605
874000  ekin = 15.407202231947 |  erot = 8.27349566688775 | epot = -72.1773702337631 | etot = -48.4966723349283
875000  ekin = 15.0202820880963 |  erot = 8.58584611780907 | epot = -72.1028005443991 | etot = -48.4966723384937
876000  ekin = 14.3103753074346 |  erot = 8.89001531355927 | epot = -71.6970629580795 | etot = -48.4966723370855
877000  ekin = 13.3177867535852 |  erot = 9.17198109359335 | epot = -70.9864401776007 | etot = -48.4966723304222
878000  ekin = 12.1489812351109 |  erot = 9.42690022996156 | epot = -70.0725537857661 | etot = -48.4966723206936
879000  ekin = 10.9478679143888 |  erot = 9.65570814731649 | epot = -69.1002483732838 | etot = -48.4966723115786
880000  ekin = 9.84816823143918 |  erot = 9.86012585832544 | epot = -68.2049663957869 | etot = -48.4966723060222
881000  ekin = 8.93418864746356 |  erot = 10.0399671441925 | epot = -67.4708280961072 | etot = -48.4966723044512
882000  ekin = 8.23233878449478 |  erot = 10.1944686101195 | epot = -66.9234796997606 | etot = -48.4966723051463
883000  ekin = 7.73079373835382 |  erot = 10.3254556489762 | epot = -66.5529216930004 | etot = -48.4966723056704
884000  ekin = 7.40639354985591 |  erot = 10.4389581940177 | epot = -66.3420240509761 | etot = -48.4966723071025
885000  ekin = 7.23012883993839 |  erot = 10.5425263257092 | epot = -66.2693274739808 | etot = -48.4966723083332
886000  ekin = 7.17188160896479 |  erot = 10.6423872901515 | epot = -66.3109412087852 | etot = -48.4966723096689
887000  ekin = 7.20359993936233 |  erot = 10.7423767443422 | epot = -66.442648994669 | etot = -48.4966723109645
888000  ekin = 7.30083390128708 |  erot = 10.8444815153507 | epot = -66.6419877285173 | etot = -48.4966723118796
889000  ekin = 7.44584663032084 |  erot = 10.9502816363572 | epot = -66.8928005790067 | etot = -48.4966723123287
890000  ekin = 7.62600694147961 |  erot = 11.0610746470698 | epot = -67.1837539023109 | etot = -48.4966723137615
891000  ekin = 7.81873874270141 |  erot = 11.1753311202036 | epot = -67.4907421800912 | etot = -48.4966723171861
892000  ekin = 7.97874969401364 |  erot = 11.2859136977755 | epot = -67.7613357142635 | etot = -48.4966723224743
893000  ekin = 8.03989395229215 |  erot = 11.3794214309858 | epot = -67.9159877114687 | etot = -48.4966723281907
894000  ekin = 7.93829359555365 |  erot = 11.4397930632517 | epot = -67.8747589906465 | etot = -48.4966723318411
895000  ekin = 7.64207855034557 |  erot = 11.4549096573215 | epot = -67.5936605304564 | etot = -48.4966723227894
896000  ekin = 7.25994289827124 |  erot = 11.4314794324918 | epot = -67.1880946508022 | etot = -48.4966723200391
897000  ekin = 6.87440345797014 |  erot = 11.3807194356204 | epot = -66.7517952086825 | etot = -48.496672315092
898000  ekin = 6.54072238139674 |  erot = 11.3170504950422 | epot = -66.354445186451 | etot = -48.496672310012
899000  ekin = 6.31497972642606 |  erot = 11.2562721777788 | epot = -66.0679242108463 | etot = -48.4966723066414
900000  ekin = 6.23427080209186 |  erot = 11.2089558194278 | epot = -65.9398989273792 | etot = -48.4966723058596
901000  ekin = 6.30716786529804 |  erot = 11.1769912987548 | epot = -65.9808314715013 | etot = -48.4966723074485
902000  ekin = 6.51603863961298 |  erot = 11.1540745980084 | epot = -66.166785548034 | etot = -48.4966723104126
903000  ekin = 6.82764115165212 |  erot = 11.1292357610214 | epot = -66.4535492262252 | etot = -48.4966723135516
904000  ekin = 7.2059458167967 |  erot = 11.0915307924457 | epot = -66.7941489251963 | etot = -48.4966723159539
905000  ekin = 7.62139055525756 |  erot = 11.0338529932702 | epot = -67.1519158659189 | etot = -48.4966723173912
906000  ekin = 8.0531440169716 |  erot = 10.9545483953339 | epot = -67.5043647304589 | etot = -48.4966723181534
907000  ekin = 8.48596871323775 |  erot = 10.8568809769567 | epot = -67.839522008857 | etot = -48.4966723186626
908000  ekin = 8.90584093631453 |  erot = 10.7475317189068 | epot = -68.1500449743946 | etot = -48.4966723191733
909000  ekin = 9.2981187661667 |  erot = 10.6353835916215 | epot = -68.4301746772618 | etot = -48.4966723194736
910000  ekin = 9.64930057745103 |  erot = 10.5309201112748 | epot = -68.6768930082989 | etot = -48.4966723195732
911000  ekin = 9.94798520561604 |  erot = 10.445428126332 | epot = -68.8900856515363 | etot = -48.4966723195882
912000  ekin = 10.1842847265749 |  erot = 10.3896169166176 | epot = -69.0705739631292 | etot = -48.4966723199367
913000  ekin = 10.3464242432486 |  erot = 10.371503449062 | epot = -69.2146000133927 | etot = -48.4966723210821
914000  ekin = 10.4159486656299 |  erot = 10.3940912351748 | epot = -69.3067122242574 | etot = -48.4966723234527
915000  ekin = 10.3649219584732 |  erot = 10.4538252075313 | epot = -69.3154194926583 | etot = -48.4966723266538
916000  ekin = 10.1612630535764 |  erot = 10.5413791273757 | epot = -69.1993145104154 | etot = -48.4966723294633
917000  ekin = 9.79071145878735 |  erot = 10.6444144951849 | epot = -68.9317982845541 | etot = -48.4966723305818
918000  ekin = 9.26089495094651 |  erot = 10.7518360031647 | epot = -68.509403282558 | etot = -48.4966723284468
919000  ekin = 8.61736183915388 |  erot = 10.8585966357191 | epot = -67.9726307968488 | etot = -48.4966723219758
920000  ekin = 7.96059242727767 |  erot = 10.9667865222643 | epot = -67.4240512625502 | etot = -48.4966723130081
921000  ekin = 7.42062866669523 |  erot = 11.0831224396019 | epot = -67.0004234112517 | etot = -48.4966723049545
922000  ekin = 7.11192604620465 |  erot = 11.213865062059 | epot = -66.8224634097993 | etot = -48.4966723015356
923000  ekin = 7.08988024943638 |  erot = 11.3600862488331 | epot = -66.9466388009244 | etot = -48.496672302655
924000  ekin = 7.33691451843237 |  erot = 11.5138164836438 | epot = -67.3474033140639 | etot = -48.4966723119878
925000  ekin = 7.75066984786481 |  erot = 11.6552585802304 | epot = -67.9026007500439 | etot = -48.4966723219487
926000  ekin = 8.19653351914579 |  erot = 11.7619530750869 | epot = -68.455158925525 | etot = -48.4966723312923
927000  ekin = 8.54738330763445 |  erot = 11.8134968265722 | epot = -68.8575524720345 | etot = -48.4966723378279
928000  ekin = 8.71145228710507 |  erot = 11.7955386585214 | epot = -69.0036632860693 | etot = -48.4966723404428
929000  ekin = 8.64121812944182 |  erot = 11.702544250028 | epot = -68.8404347191515 | etot = -48.4966723396816
930000  ekin = 8.33447880146975 |  erot = 11.5389737680376 | epot = -68.3701249045833 | etot = -48.4966723350759
931000  ekin = 7.84128687972334 |  erot = 11.3199153556612 | epot = -67.6578745633159 | etot = -48.4966723279314
932000  ekin = 7.24436702165883 |  erot = 11.0677318732717 | epot = -66.808771214749 | etot = -48.4966723198185
933000  ekin = 6.63984713610501 |  erot = 10.8074687702607 | epot = -65.9439882187064 | etot = -48.4966723123406
934000  ekin = 6.11754593051298 |  erot = 10.5621552833725 | epot = -65.1763735206371 | etot = -48.4966723067517
935000  ekin = 5.74541765521402 |  erot = 10.3493855079979 | epot = -64.5914754667476 | etot = -48.4966723035357
936000  ekin = 5.56181702344705 |  erot = 10.1798783881607 | epot = -64.2383677144363 | etot = -48.4966723028286
937000  ekin = 5.57387640327936 |  erot = 10.0571518020917 | epot = -64.1277005096326 | etot = -48.4966723042616
938000  ekin = 5.76140456209132 |  erot = 9.97823911606649 | epot = -64.2363159855043 | etot = -48.4966723073465
939000  ekin = 6.08318988638494 |  erot = 9.93455888124384 | epot = -64.5144210794316 | etot = -48.4966723118029
940000  ekin = 6.48293885679984 |  erot = 9.91175572325734 | epot = -64.8913668973667 | etot = -48.4966723173095
941000  ekin = 6.89458667494459 |  erot = 9.89006577308746 | epot = -65.2813247714941 | etot = -48.4966723234621
942000  ekin = 7.2486944403872 |  erot = 9.84545861919656 | epot = -65.5908253891153 | etot = -48.4966723295315
943000  ekin = 7.48274008792501 |  erot = 9.75224430251525 | epot = -65.73165672461 | etot = -48.4966723341697
944000  ekin = 7.55661078927992 |  erot = 9.58809869855624 | epot = -65.6413818235762 | etot = -48.49667233574
945000  ekin = 7.47011756783039 |  erot = 9.34043578936074 | epot = -65.3072256902498 | etot = -48.4966723330586
946000  ekin = 7.27386532679615 |  erot = 9.01155536675472 | epot = -64.7820930198635 | etot = -48.4966723263126
947000  ekin = 7.06319370201748 |  erot = 8.61969480788043 | epot = -64.179560827485 | etot = -48.4966723175871
948000  ekin = 6.95249219209068 |  erot = 8.19479074961839 | epot = -63.6439552510929 | etot = -48.4966723093838
949000  ekin = 7.04165184843665 |  erot = 7.77196767267864 | epot = -63.3102918255315 | etot = -48.4966723044162
950000  ekin = 7.38393235005282 |  erot = 7.38215863435772 | epot = -63.2627632880478 | etot = -48.4966723036373
951000  ekin = 7.97686792819456 |  erot = 7.04490011949532 | epot = -63.5184403540008 | etot = -48.4966723063109
952000  ekin = 8.77198923537714 |  erot = 6.76886820062407 | epot = -64.0375297473456 | etot = -48.4966723113444
953000  ekin = 9.68951089962173 |  erot = 6.55318209056052 | epot = -64.7393653086516 | etot = -48.4966723184694
954000  ekin = 10.625545173257 |  erot = 6.39139135053334 | epot = -65.5136088501269 | etot = -48.4966723263366
955000  ekin = 11.459195976534 |  erot = 6.27379828419293 | epot = -66.2296665951486 | etot = -48.4966723344217
956000  ekin = 12.0705908699296 |  erot = 6.18965545539867 | epot = -66.7569186667193 | etot = -48.496672341391
957000  ekin = 12.3578057515742 |  erot = 6.13109121395203 | epot = -66.9855693108173 | etot = -48.4966723452911
958000  ekin = 12.2639561605225 |  erot = 6.09526076408633 | epot = -66.8558892689087 | etot = -48.4966723442999
959000  ekin = 11.8028932787518 |  erot = 6.08530913759149 | epot = -66.3848747536715 | etot = -48.4966723373283
960000  ekin = 11.0657748712033 |  erot = 6.10961273201249 | epot = -65.6720599301514 | etot = -48.4966723269356
961000  ekin = 10.1976851857911 |  erot = 6.17940626632498 | epot = -64.8737637674829 | etot = -48.4966723153668
962000  ekin = 9.36006056033443 |  erot = 6.3057643499174 | epot = -64.1624972165041 | etot = -48.4966723062522
963000  ekin = 8.68052625435703 |  erot = 6.49616547714195 | epot = -63.6733640336944 | etot = -48.4966723021954
964000  ekin = 8.21670813103556 |  erot = 6.75219994305738 | epot = -63.4655803776174 | etot = -48.4966723035245
965000  ekin = 7.95112951723659 |  erot = 7.06933978727814 | epot = -63.5171416128752 | etot = -48.4966723083604
966000  ekin = 7.81882046045959 |  erot = 7.43840285638279 | epot = -63.7538956305659 | etot = -48.4966723137236
967000  ekin = 7.74912903238494 |  erot = 7.84702228791584 | epot = -64.0928236389113 | etot = -48.4966723186105
968000  ekin = 7.67539244782124 |  erot = 8.28177833614435 | epot = -64.4538431057827 | etot = -48.4966723218171
969000  ekin = 7.55990272706149 |  erot = 8.72822682525186 | epot = -64.7848018759069 | etot = -48.4966723235936
970000  ekin = 7.38809514504139 |  erot = 9.1706253329465 | epot = -65.0553928030932 | etot = -48.4966723251053
971000  ekin = 7.15239238646895 |  erot = 9.59185822210274 | epot = -65.2409229350178 | etot = -48.4966723264461
972000  ekin = 6.85180495473256 |  erot = 9.97461998900114 | epot = -65.323097270943 | etot = -48.4966723272093
973000  ekin = 6.49404712572963 |  erot = 10.3038859961783 | epot = -65.2946054486949 | etot = -48.4966723267869
974000  ekin = 6.10144996584987 |  erot = 10.5696876848613 | epot = -65.1678099751018 | etot = -48.4966723243906
975000  ekin = 5.71827862095584 |  erot = 10.768092346607 | epot = -64.9830432881918 | etot = -48.4966723206289
976000  ekin = 5.40201311505247 |  erot = 10.9003005365461 | epot = -64.7989859682497 | etot = -48.4966723166511
977000  ekin = 5.20833587548647 |  erot = 10.9708214105959 | epot = -64.6758296002104 | etot = -48.496672314128
978000  ekin = 5.16924581638857 |  erot = 10.9846732064771 | epot = -64.6505913371465 | etot = -48.4966723142808
979000  ekin = 5.27779877902274 |  erot = 10.9455170781611 | epot = -64.7199881739085 | etot = -48.4966723167247
980000  ekin = 5.49322046495708 |  erot = 10.8569988007143 | epot = -64.8468915854391 | etot = -48.4966723197677
981000  ekin = 5.76179865074904 |  erot = 10.726517715687 | epot = -64.9849886877658 | etot = -48.4966723213298
982000  ekin = 6.0434859150675 |  erot = 10.5685834909351 | epot = -65.1087417263039 | etot = -48.4966723203013
983000  ekin = 6.32848467150841 |  erot = 10.4050435737129 | epot = -65.2302005622159 | etot = -48.4966723169946
984000  ekin = 6.63689938808603 |  erot = 10.2617391991563 | epot = -65.3953108999642 | etot = -48.4966723127219
985000  ekin = 7.00519514142896 |  erot = 10.1634367427884 | epot = -65.6653041932412 | etot = -48.4966723090238
986000  ekin = 7.46792966870151 |  erot = 10.1293593733502 | epot = -66.0939613491783 | etot = -48.4966723071267
987000  ekin = 8.0417524024767 |  erot = 10.170567974692 | epot = -66.7089926848975 | etot = -48.4966723077288
988000  ekin = 8.71523239355653 |  erot = 10.2892285366076 | epot = -67.5011332411574 | etot = -48.4966723109932
989000  ekin = 9.44555556323164 |  erot = 10.4792258391849 | epot = -68.4214537221049 | etot = -48.4966723196884
990000  ekin = 10.147314872708 |  erot = 10.722478708467 | epot = -69.3664659087734 | etot = -48.4966723275984
991000  ekin = 10.7156853232285 |  erot = 10.9958515592977 | epot = -70.2082092180937 | etot = -48.4966723355675
992000  ekin = 11.0552138419303 |  erot = 11.2781950491444 | epot = -70.8300812327856 | etot = -48.496672341711
993000  ekin = 11.0952058420832 |  erot = 11.5520851648231 | epot = -71.1439633511133 | etot = -48.496672344207
994000  ekin = 10.8115610752779 |  erot = 11.8083197905567 | epot = -71.1165532078995 | etot = -48.4966723420649
995000  ekin = 10.2380910205381 |  erot = 12.0483836075147 | epot = -70.7831469637494 | etot = -48.4966723356967
996000  ekin = 9.46083674880266 |  erot = 12.2834739306309 | epot = -70.2409830062614 | etot = -48.4966723268278
997000  ekin = 8.59669857335092 |  erot = 12.5302960540965 | epot = -69.6236669451915 | etot = -48.496672317744
998000  ekin = 7.76544231192214 |  erot = 12.806128320963 | epot = -69.0682429431554 | etot = -48.4966723102702
999000  ekin = 7.06575290471557 |  erot = 13.1250004270275 | epot = -68.6874256372488 | etot = -48.4966723055057
1000000  ekin = 6.56133017801672 |  erot = 13.4950387121477 | epot = -68.5530411938935 | etot = -48.4966723037291
   1000000   244.5767      -69.23317       0.68012891    -61.991711     -0.012778323    39304000     
Loop time of 18.2788 on 4 procs for 1000000 steps with 10 atoms

Performance: 80.639 ns/day, 0.298 hours/ns, 54708.327 timesteps/s, 547.083 katom-step/s
99.7% CPU use with 4 MPI tasks x no OpenMP threads

MPI task timing breakdown:
Section |  min time  |  avg time  |  max time  |%varavg| %total
---------------------------------------------------------------
Pair    | 4.7489     | 7.413      | 10.648     |  77.4 | 40.56
Bond    | 0.2292     | 0.30345    | 0.37909    |  12.0 |  1.66
Neigh   | 0.00759    | 0.0076525  | 0.007698   |   0.0 |  0.04
Comm    | 4.13       | 7.779      | 10.46      |  82.1 | 42.56
Output  | 0.072271   | 0.076746   | 0.085815   |   1.9 |  0.42
Modify  | 0.63917    | 0.69264    | 0.75378    |   6.3 |  3.79
Other   |            | 2.006      |            |       | 10.98

Nlocal:            2.5 ave           3 max           2 min
Histogram: 2 0 0 0 0 0 0 0 0 2
Nghost:            7.5 ave           8 max           7 min
Histogram: 2 0 0 0 0 0 0 0 0 2
Neighs:           9.25 ave          16 max           2 min
Histogram: 1 0 1 0 0 0 0 0 1 1

Total # of neighbors = 37
Ave neighs/atom = 3.7
Ave special neighs/atom = 3.6
Neighbor list builds = 1000
Dangerous builds = 0

write_data last_config.${number}.* nocoeff
write_data last_config.3.* nocoeff
System init for write_data ...
Generated 0 of 6 mixed pair_coeff terms from geometric mixing rule
#write_restart last_config.${number}.*
Total wall time: 0:00:18
