5 x 5 x 5 Supercell of SiC diamond structure with lattice parameter of 4.349835 Angstrom

5000 atoms
3 atom types

0.000000 41.100000 xlo xhi
0.000000 41.100000 ylo yhi
0.000000 41.100000 zlo zhi

Masses

1 28.085500
2 12.010700
3 1.000000

Atoms

    1 1 4.0  3 1.691398    0.0000000000    0.0000000000    0.0000000000
    2 1 4.0  3 1.691398    0.0000000000    4.1100000000    4.1100000000
    3 1 4.0  3 1.691398    4.1100000000    0.0000000000    4.1100000000
    4 1 4.0  3 1.691398    4.1100000000    4.1100000000    0.0000000000
    5 1 4.0  3 1.691398    0.0000000000    0.0000000000    8.2200000000
    6 1 4.0  3 1.691398    0.0000000000    4.1100000000   12.3300000000
    7 1 4.0  3 1.691398    4.1100000000    0.0000000000   12.3300000000
    8 1 4.0  3 1.691398    4.1100000000    4.1100000000    8.2200000000
    9 1 4.0  3 1.691398    0.0000000000    0.0000000000   16.4400000000
   10 1 4.0  3 1.691398    0.0000000000    4.1100000000   20.5500000000
   11 1 4.0  3 1.691398    4.1100000000    0.0000000000   20.5500000000
   12 1 4.0  3 1.691398    4.1100000000    4.1100000000   16.4400000000
   13 1 4.0  3 1.691398    0.0000000000    0.0000000000   24.6600000000
   14 1 4.0  3 1.691398    0.0000000000    4.1100000000   28.7700000000
   15 1 4.0  3 1.691398    4.1100000000    0.0000000000   28.7700000000
   16 1 4.0  3 1.691398    4.1100000000    4.1100000000   24.6600000000
   17 1 4.0  3 1.691398    0.0000000000    0.0000000000   32.8800000000
   18 1 4.0  3 1.691398    0.0000000000    4.1100000000   36.9900000000
   19 1 4.0  3 1.691398    4.1100000000    0.0000000000   36.9900000000
   20 1 4.0  3 1.691398    4.1100000000    4.1100000000   32.8800000000
   21 1 4.0  3 1.691398    0.0000000000    8.2200000000    0.0000000000
   22 1 4.0  3 1.691398    0.0000000000   12.3300000000    4.1100000000
   23 1 4.0  3 1.691398    4.1100000000    8.2200000000    4.1100000000
   24 1 4.0  3 1.691398    4.1100000000   12.3300000000    0.0000000000
   25 1 4.0  3 1.691398    0.0000000000    8.2200000000    8.2200000000
   26 1 4.0  3 1.691398    0.0000000000   12.3300000000   12.3300000000
   27 1 4.0  3 1.691398    4.1100000000    8.2200000000   12.3300000000
   28 1 4.0  3 1.691398    4.1100000000   12.3300000000    8.2200000000
   29 1 4.0  3 1.691398    0.0000000000    8.2200000000   16.4400000000
   30 1 4.0  3 1.691398    0.0000000000   12.3300000000   20.5500000000
   31 1 4.0  3 1.691398    4.1100000000    8.2200000000   20.5500000000
   32 1 4.0  3 1.691398    4.1100000000   12.3300000000   16.4400000000
   33 1 4.0  3 1.691398    0.0000000000    8.2200000000   24.6600000000
   34 1 4.0  3 1.691398    0.0000000000   12.3300000000   28.7700000000
   35 1 4.0  3 1.691398    4.1100000000    8.2200000000   28.7700000000
   36 1 4.0  3 1.691398    4.1100000000   12.3300000000   24.6600000000
   37 1 4.0  3 1.691398    0.0000000000    8.2200000000   32.8800000000
   38 1 4.0  3 1.691398    0.0000000000   12.3300000000   36.9900000000
   39 1 4.0  3 1.691398    4.1100000000    8.2200000000   36.9900000000
   40 1 4.0  3 1.691398    4.1100000000   12.3300000000   32.8800000000
   41 1 4.0  3 1.691398    0.0000000000   16.4400000000    0.0000000000
   42 1 4.0  3 1.691398    0.0000000000   20.5500000000    4.1100000000
   43 1 4.0  3 1.691398    4.1100000000   16.4400000000    4.1100000000
   44 1 4.0  3 1.691398    4.1100000000   20.5500000000    0.0000000000
   45 1 4.0  3 1.691398    0.0000000000   16.4400000000    8.2200000000
   46 1 4.0  3 1.691398    0.0000000000   20.5500000000   12.3300000000
   47 1 4.0  3 1.691398    4.1100000000   16.4400000000   12.3300000000
   48 1 4.0  3 1.691398    4.1100000000   20.5500000000    8.2200000000
   49 1 4.0  3 1.691398    0.0000000000   16.4400000000   16.4400000000
   50 1 4.0  3 1.691398    0.0000000000   20.5500000000   20.5500000000
   51 1 4.0  3 1.691398    4.1100000000   16.4400000000   20.5500000000
   52 1 4.0  3 1.691398    4.1100000000   20.5500000000   16.4400000000
   53 1 4.0  3 1.691398    0.0000000000   16.4400000000   24.6600000000
   54 1 4.0  3 1.691398    0.0000000000   20.5500000000   28.7700000000
   55 1 4.0  3 1.691398    4.1100000000   16.4400000000   28.7700000000
   56 1 4.0  3 1.691398    4.1100000000   20.5500000000   24.6600000000
   57 1 4.0  3 1.691398    0.0000000000   16.4400000000   32.8800000000
   58 1 4.0  3 1.691398    0.0000000000   20.5500000000   36.9900000000
   59 1 4.0  3 1.691398    4.1100000000   16.4400000000   36.9900000000
   60 1 4.0  3 1.691398    4.1100000000   20.5500000000   32.8800000000
   61 1 4.0  3 1.691398    0.0000000000   24.6600000000    0.0000000000
   62 1 4.0  3 1.691398    0.0000000000   28.7700000000    4.1100000000
   63 1 4.0  3 1.691398    4.1100000000   24.6600000000    4.1100000000
   64 1 4.0  3 1.691398    4.1100000000   28.7700000000    0.0000000000
   65 1 4.0  3 1.691398    0.0000000000   24.6600000000    8.2200000000
   66 1 4.0  3 1.691398    0.0000000000   28.7700000000   12.3300000000
   67 1 4.0  3 1.691398    4.1100000000   24.6600000000   12.3300000000
   68 1 4.0  3 1.691398    4.1100000000   28.7700000000    8.2200000000
   69 1 4.0  3 1.691398    0.0000000000   24.6600000000   16.4400000000
   70 1 4.0  3 1.691398    0.0000000000   28.7700000000   20.5500000000
   71 1 4.0  3 1.691398    4.1100000000   24.6600000000   20.5500000000
   72 1 4.0  3 1.691398    4.1100000000   28.7700000000   16.4400000000
   73 1 4.0  3 1.691398    0.0000000000   24.6600000000   24.6600000000
   74 1 4.0  3 1.691398    0.0000000000   28.7700000000   28.7700000000
   75 1 4.0  3 1.691398    4.1100000000   24.6600000000   28.7700000000
   76 1 4.0  3 1.691398    4.1100000000   28.7700000000   24.6600000000
   77 1 4.0  3 1.691398    0.0000000000   24.6600000000   32.8800000000
   78 1 4.0  3 1.691398    0.0000000000   28.7700000000   36.9900000000
   79 1 4.0  3 1.691398    4.1100000000   24.6600000000   36.9900000000
   80 1 4.0  3 1.691398    4.1100000000   28.7700000000   32.8800000000
   81 1 4.0  3 1.691398    0.0000000000   32.8800000000    0.0000000000
   82 1 4.0  3 1.691398    0.0000000000   36.9900000000    4.1100000000
   83 1 4.0  3 1.691398    4.1100000000   32.8800000000    4.1100000000
   84 1 4.0  3 1.691398    4.1100000000   36.9900000000    0.0000000000
   85 1 4.0  3 1.691398    0.0000000000   32.8800000000    8.2200000000
   86 1 4.0  3 1.691398    0.0000000000   36.9900000000   12.3300000000
   87 1 4.0  3 1.691398    4.1100000000   32.8800000000   12.3300000000
   88 1 4.0  3 1.691398    4.1100000000   36.9900000000    8.2200000000
   89 1 4.0  3 1.691398    0.0000000000   32.8800000000   16.4400000000
   90 1 4.0  3 1.691398    0.0000000000   36.9900000000   20.5500000000
   91 1 4.0  3 1.691398    4.1100000000   32.8800000000   20.5500000000
   92 1 4.0  3 1.691398    4.1100000000   36.9900000000   16.4400000000
   93 1 4.0  3 1.691398    0.0000000000   32.8800000000   24.6600000000
   94 1 4.0  3 1.691398    0.0000000000   36.9900000000   28.7700000000
   95 1 4.0  3 1.691398    4.1100000000   32.8800000000   28.7700000000
   96 1 4.0  3 1.691398    4.1100000000   36.9900000000   24.6600000000
   97 1 4.0  3 1.691398    0.0000000000   32.8800000000   32.8800000000
   98 1 4.0  3 1.691398    0.0000000000   36.9900000000   36.9900000000
   99 1 4.0  3 1.691398    4.1100000000   32.8800000000   36.9900000000
  100 1 4.0  3 1.691398    4.1100000000   36.9900000000   32.8800000000
  101 1 4.0  3 1.691398    8.2200000000    0.0000000000    0.0000000000
  102 1 4.0  3 1.691398    8.2200000000    4.1100000000    4.1100000000
  103 1 4.0  3 1.691398   12.3300000000    0.0000000000    4.1100000000
  104 1 4.0  3 1.691398   12.3300000000    4.1100000000    0.0000000000
  105 1 4.0  3 1.691398    8.2200000000    0.0000000000    8.2200000000
  106 1 4.0  3 1.691398    8.2200000000    4.1100000000   12.3300000000
  107 1 4.0  3 1.691398   12.3300000000    0.0000000000   12.3300000000
  108 1 4.0  3 1.691398   12.3300000000    4.1100000000    8.2200000000
  109 1 4.0  3 1.691398    8.2200000000    0.0000000000   16.4400000000
  110 1 4.0  3 1.691398    8.2200000000    4.1100000000   20.5500000000
  111 1 4.0  3 1.691398   12.3300000000    0.0000000000   20.5500000000
  112 1 4.0  3 1.691398   12.3300000000    4.1100000000   16.4400000000
  113 1 4.0  3 1.691398    8.2200000000    0.0000000000   24.6600000000
  114 1 4.0  3 1.691398    8.2200000000    4.1100000000   28.7700000000
  115 1 4.0  3 1.691398   12.3300000000    0.0000000000   28.7700000000
  116 1 4.0  3 1.691398   12.3300000000    4.1100000000   24.6600000000
  117 1 4.0  3 1.691398    8.2200000000    0.0000000000   32.8800000000
  118 1 4.0  3 1.691398    8.2200000000    4.1100000000   36.9900000000
  119 1 4.0  3 1.691398   12.3300000000    0.0000000000   36.9900000000
  120 1 4.0  3 1.691398   12.3300000000    4.1100000000   32.8800000000
  121 1 4.0  3 1.691398    8.2200000000    8.2200000000    0.0000000000
  122 1 4.0  3 1.691398    8.2200000000   12.3300000000    4.1100000000
  123 1 4.0  3 1.691398   12.3300000000    8.2200000000    4.1100000000
  124 1 4.0  3 1.691398   12.3300000000   12.3300000000    0.0000000000
  125 1 4.0  3 1.691398    8.2200000000    8.2200000000    8.2200000000
  126 1 4.0  3 1.691398    8.2200000000   12.3300000000   12.3300000000
  127 1 4.0  3 1.691398   12.3300000000    8.2200000000   12.3300000000
  128 1 4.0  3 1.691398   12.3300000000   12.3300000000    8.2200000000
  129 1 4.0  3 1.691398    8.2200000000    8.2200000000   16.4400000000
  130 1 4.0  3 1.691398    8.2200000000   12.3300000000   20.5500000000
  131 1 4.0  3 1.691398   12.3300000000    8.2200000000   20.5500000000
  132 1 4.0  3 1.691398   12.3300000000   12.3300000000   16.4400000000
  133 1 4.0  3 1.691398    8.2200000000    8.2200000000   24.6600000000
  134 1 4.0  3 1.691398    8.2200000000   12.3300000000   28.7700000000
  135 1 4.0  3 1.691398   12.3300000000    8.2200000000   28.7700000000
  136 1 4.0  3 1.691398   12.3300000000   12.3300000000   24.6600000000
  137 1 4.0  3 1.691398    8.2200000000    8.2200000000   32.8800000000
  138 1 4.0  3 1.691398    8.2200000000   12.3300000000   36.9900000000
  139 1 4.0  3 1.691398   12.3300000000    8.2200000000   36.9900000000
  140 1 4.0  3 1.691398   12.3300000000   12.3300000000   32.8800000000
  141 1 4.0  3 1.691398    8.2200000000   16.4400000000    0.0000000000
  142 1 4.0  3 1.691398    8.2200000000   20.5500000000    4.1100000000
  143 1 4.0  3 1.691398   12.3300000000   16.4400000000    4.1100000000
  144 1 4.0  3 1.691398   12.3300000000   20.5500000000    0.0000000000
  145 1 4.0  3 1.691398    8.2200000000   16.4400000000    8.2200000000
  146 1 4.0  3 1.691398    8.2200000000   20.5500000000   12.3300000000
  147 1 4.0  3 1.691398   12.3300000000   16.4400000000   12.3300000000
  148 1 4.0  3 1.691398   12.3300000000   20.5500000000    8.2200000000
  149 1 4.0  3 1.691398    8.2200000000   16.4400000000   16.4400000000
  150 1 4.0  3 1.691398    8.2200000000   20.5500000000   20.5500000000
  151 1 4.0  3 1.691398   12.3300000000   16.4400000000   20.5500000000
  152 1 4.0  3 1.691398   12.3300000000   20.5500000000   16.4400000000
  153 1 4.0  3 1.691398    8.2200000000   16.4400000000   24.6600000000
  154 1 4.0  3 1.691398    8.2200000000   20.5500000000   28.7700000000
  155 1 4.0  3 1.691398   12.3300000000   16.4400000000   28.7700000000
  156 1 4.0  3 1.691398   12.3300000000   20.5500000000   24.6600000000
  157 1 4.0  3 1.691398    8.2200000000   16.4400000000   32.8800000000
  158 1 4.0  3 1.691398    8.2200000000   20.5500000000   36.9900000000
  159 1 4.0  3 1.691398   12.3300000000   16.4400000000   36.9900000000
  160 1 4.0  3 1.691398   12.3300000000   20.5500000000   32.8800000000
  161 1 4.0  3 1.691398    8.2200000000   24.6600000000    0.0000000000
  162 1 4.0  3 1.691398    8.2200000000   28.7700000000    4.1100000000
  163 1 4.0  3 1.691398   12.3300000000   24.6600000000    4.1100000000
  164 1 4.0  3 1.691398   12.3300000000   28.7700000000    0.0000000000
  165 1 4.0  3 1.691398    8.2200000000   24.6600000000    8.2200000000
  166 1 4.0  3 1.691398    8.2200000000   28.7700000000   12.3300000000
  167 1 4.0  3 1.691398   12.3300000000   24.6600000000   12.3300000000
  168 1 4.0  3 1.691398   12.3300000000   28.7700000000    8.2200000000
  169 1 4.0  3 1.691398    8.2200000000   24.6600000000   16.4400000000
  170 1 4.0  3 1.691398    8.2200000000   28.7700000000   20.5500000000
  171 1 4.0  3 1.691398   12.3300000000   24.6600000000   20.5500000000
  172 1 4.0  3 1.691398   12.3300000000   28.7700000000   16.4400000000
  173 1 4.0  3 1.691398    8.2200000000   24.6600000000   24.6600000000
  174 1 4.0  3 1.691398    8.2200000000   28.7700000000   28.7700000000
  175 1 4.0  3 1.691398   12.3300000000   24.6600000000   28.7700000000
  176 1 4.0  3 1.691398   12.3300000000   28.7700000000   24.6600000000
  177 1 4.0  3 1.691398    8.2200000000   24.6600000000   32.8800000000
  178 1 4.0  3 1.691398    8.2200000000   28.7700000000   36.9900000000
  179 1 4.0  3 1.691398   12.3300000000   24.6600000000   36.9900000000
  180 1 4.0  3 1.691398   12.3300000000   28.7700000000   32.8800000000
  181 1 4.0  3 1.691398    8.2200000000   32.8800000000    0.0000000000
  182 1 4.0  3 1.691398    8.2200000000   36.9900000000    4.1100000000
  183 1 4.0  3 1.691398   12.3300000000   32.8800000000    4.1100000000
  184 1 4.0  3 1.691398   12.3300000000   36.9900000000    0.0000000000
  185 1 4.0  3 1.691398    8.2200000000   32.8800000000    8.2200000000
  186 1 4.0  3 1.691398    8.2200000000   36.9900000000   12.3300000000
  187 1 4.0  3 1.691398   12.3300000000   32.8800000000   12.3300000000
  188 1 4.0  3 1.691398   12.3300000000   36.9900000000    8.2200000000
  189 1 4.0  3 1.691398    8.2200000000   32.8800000000   16.4400000000
  190 1 4.0  3 1.691398    8.2200000000   36.9900000000   20.5500000000
  191 1 4.0  3 1.691398   12.3300000000   32.8800000000   20.5500000000
  192 1 4.0  3 1.691398   12.3300000000   36.9900000000   16.4400000000
  193 1 4.0  3 1.691398    8.2200000000   32.8800000000   24.6600000000
  194 1 4.0  3 1.691398    8.2200000000   36.9900000000   28.7700000000
  195 1 4.0  3 1.691398   12.3300000000   32.8800000000   28.7700000000
  196 1 4.0  3 1.691398   12.3300000000   36.9900000000   24.6600000000
  197 1 4.0  3 1.691398    8.2200000000   32.8800000000   32.8800000000
  198 1 4.0  3 1.691398    8.2200000000   36.9900000000   36.9900000000
  199 1 4.0  3 1.691398   12.3300000000   32.8800000000   36.9900000000
  200 1 4.0  3 1.691398   12.3300000000   36.9900000000   32.8800000000
  201 1 4.0  3 1.691398   16.4400000000    0.0000000000    0.0000000000
  202 1 4.0  3 1.691398   16.4400000000    4.1100000000    4.1100000000
  203 1 4.0  3 1.691398   20.5500000000    0.0000000000    4.1100000000
  204 1 4.0  3 1.691398   20.5500000000    4.1100000000    0.0000000000
  205 1 4.0  3 1.691398   16.4400000000    0.0000000000    8.2200000000
  206 1 4.0  3 1.691398   16.4400000000    4.1100000000   12.3300000000
  207 1 4.0  3 1.691398   20.5500000000    0.0000000000   12.3300000000
  208 1 4.0  3 1.691398   20.5500000000    4.1100000000    8.2200000000
  209 1 4.0  3 1.691398   16.4400000000    0.0000000000   16.4400000000
  210 1 4.0  3 1.691398   16.4400000000    4.1100000000   20.5500000000
  211 1 4.0  3 1.691398   20.5500000000    0.0000000000   20.5500000000
  212 1 4.0  3 1.691398   20.5500000000    4.1100000000   16.4400000000
  213 1 4.0  3 1.691398   16.4400000000    0.0000000000   24.6600000000
  214 1 4.0  3 1.691398   16.4400000000    4.1100000000   28.7700000000
  215 1 4.0  3 1.691398   20.5500000000    0.0000000000   28.7700000000
  216 1 4.0  3 1.691398   20.5500000000    4.1100000000   24.6600000000
  217 1 4.0  3 1.691398   16.4400000000    0.0000000000   32.8800000000
  218 1 4.0  3 1.691398   16.4400000000    4.1100000000   36.9900000000
  219 1 4.0  3 1.691398   20.5500000000    0.0000000000   36.9900000000
  220 1 4.0  3 1.691398   20.5500000000    4.1100000000   32.8800000000
  221 1 4.0  3 1.691398   16.4400000000    8.2200000000    0.0000000000
  222 1 4.0  3 1.691398   16.4400000000   12.3300000000    4.1100000000
  223 1 4.0  3 1.691398   20.5500000000    8.2200000000    4.1100000000
  224 1 4.0  3 1.691398   20.5500000000   12.3300000000    0.0000000000
  225 1 4.0  3 1.691398   16.4400000000    8.2200000000    8.2200000000
  226 1 4.0  3 1.691398   16.4400000000   12.3300000000   12.3300000000
  227 1 4.0  3 1.691398   20.5500000000    8.2200000000   12.3300000000
  228 1 4.0  3 1.691398   20.5500000000   12.3300000000    8.2200000000
  229 1 4.0  3 1.691398   16.4400000000    8.2200000000   16.4400000000
  230 1 4.0  3 1.691398   16.4400000000   12.3300000000   20.5500000000
  231 1 4.0  3 1.691398   20.5500000000    8.2200000000   20.5500000000
  232 1 4.0  3 1.691398   20.5500000000   12.3300000000   16.4400000000
  233 1 4.0  3 1.691398   16.4400000000    8.2200000000   24.6600000000
  234 1 4.0  3 1.691398   16.4400000000   12.3300000000   28.7700000000
  235 1 4.0  3 1.691398   20.5500000000    8.2200000000   28.7700000000
  236 1 4.0  3 1.691398   20.5500000000   12.3300000000   24.6600000000
  237 1 4.0  3 1.691398   16.4400000000    8.2200000000   32.8800000000
  238 1 4.0  3 1.691398   16.4400000000   12.3300000000   36.9900000000
  239 1 4.0  3 1.691398   20.5500000000    8.2200000000   36.9900000000
  240 1 4.0  3 1.691398   20.5500000000   12.3300000000   32.8800000000
  241 1 4.0  3 1.691398   16.4400000000   16.4400000000    0.0000000000
  242 1 4.0  3 1.691398   16.4400000000   20.5500000000    4.1100000000
  243 1 4.0  3 1.691398   20.5500000000   16.4400000000    4.1100000000
  244 1 4.0  3 1.691398   20.5500000000   20.5500000000    0.0000000000
  245 1 4.0  3 1.691398   16.4400000000   16.4400000000    8.2200000000
  246 1 4.0  3 1.691398   16.4400000000   20.5500000000   12.3300000000
  247 1 4.0  3 1.691398   20.5500000000   16.4400000000   12.3300000000
  248 1 4.0  3 1.691398   20.5500000000   20.5500000000    8.2200000000
  249 1 4.0  3 1.691398   16.4400000000   16.4400000000   16.4400000000
  250 1 4.0  3 1.691398   16.4400000000   20.5500000000   20.5500000000
  251 1 4.0  3 1.691398   20.5500000000   16.4400000000   20.5500000000
  252 1 4.0  3 1.691398   20.5500000000   20.5500000000   16.4400000000
  253 1 4.0  3 1.691398   16.4400000000   16.4400000000   24.6600000000
  254 1 4.0  3 1.691398   16.4400000000   20.5500000000   28.7700000000
  255 1 4.0  3 1.691398   20.5500000000   16.4400000000   28.7700000000
  256 1 4.0  3 1.691398   20.5500000000   20.5500000000   24.6600000000
  257 1 4.0  3 1.691398   16.4400000000   16.4400000000   32.8800000000
  258 1 4.0  3 1.691398   16.4400000000   20.5500000000   36.9900000000
  259 1 4.0  3 1.691398   20.5500000000   16.4400000000   36.9900000000
  260 1 4.0  3 1.691398   20.5500000000   20.5500000000   32.8800000000
  261 1 4.0  3 1.691398   16.4400000000   24.6600000000    0.0000000000
  262 1 4.0  3 1.691398   16.4400000000   28.7700000000    4.1100000000
  263 1 4.0  3 1.691398   20.5500000000   24.6600000000    4.1100000000
  264 1 4.0  3 1.691398   20.5500000000   28.7700000000    0.0000000000
  265 1 4.0  3 1.691398   16.4400000000   24.6600000000    8.2200000000
  266 1 4.0  3 1.691398   16.4400000000   28.7700000000   12.3300000000
  267 1 4.0  3 1.691398   20.5500000000   24.6600000000   12.3300000000
  268 1 4.0  3 1.691398   20.5500000000   28.7700000000    8.2200000000
  269 1 4.0  3 1.691398   16.4400000000   24.6600000000   16.4400000000
  270 1 4.0  3 1.691398   16.4400000000   28.7700000000   20.5500000000
  271 1 4.0  3 1.691398   20.5500000000   24.6600000000   20.5500000000
  272 1 4.0  3 1.691398   20.5500000000   28.7700000000   16.4400000000
  273 1 4.0  3 1.691398   16.4400000000   24.6600000000   24.6600000000
  274 1 4.0  3 1.691398   16.4400000000   28.7700000000   28.7700000000
  275 1 4.0  3 1.691398   20.5500000000   24.6600000000   28.7700000000
  276 1 4.0  3 1.691398   20.5500000000   28.7700000000   24.6600000000
  277 1 4.0  3 1.691398   16.4400000000   24.6600000000   32.8800000000
  278 1 4.0  3 1.691398   16.4400000000   28.7700000000   36.9900000000
  279 1 4.0  3 1.691398   20.5500000000   24.6600000000   36.9900000000
  280 1 4.0  3 1.691398   20.5500000000   28.7700000000   32.8800000000
  281 1 4.0  3 1.691398   16.4400000000   32.8800000000    0.0000000000
  282 1 4.0  3 1.691398   16.4400000000   36.9900000000    4.1100000000
  283 1 4.0  3 1.691398   20.5500000000   32.8800000000    4.1100000000
  284 1 4.0  3 1.691398   20.5500000000   36.9900000000    0.0000000000
  285 1 4.0  3 1.691398   16.4400000000   32.8800000000    8.2200000000
  286 1 4.0  3 1.691398   16.4400000000   36.9900000000   12.3300000000
  287 1 4.0  3 1.691398   20.5500000000   32.8800000000   12.3300000000
  288 1 4.0  3 1.691398   20.5500000000   36.9900000000    8.2200000000
  289 1 4.0  3 1.691398   16.4400000000   32.8800000000   16.4400000000
  290 1 4.0  3 1.691398   16.4400000000   36.9900000000   20.5500000000
  291 1 4.0  3 1.691398   20.5500000000   32.8800000000   20.5500000000
  292 1 4.0  3 1.691398   20.5500000000   36.9900000000   16.4400000000
  293 1 4.0  3 1.691398   16.4400000000   32.8800000000   24.6600000000
  294 1 4.0  3 1.691398   16.4400000000   36.9900000000   28.7700000000
  295 1 4.0  3 1.691398   20.5500000000   32.8800000000   28.7700000000
  296 1 4.0  3 1.691398   20.5500000000   36.9900000000   24.6600000000
  297 1 4.0  3 1.691398   16.4400000000   32.8800000000   32.8800000000
  298 1 4.0  3 1.691398   16.4400000000   36.9900000000   36.9900000000
  299 1 4.0  3 1.691398   20.5500000000   32.8800000000   36.9900000000
  300 1 4.0  3 1.691398   20.5500000000   36.9900000000   32.8800000000
  301 1 4.0  3 1.691398   24.6600000000    0.0000000000    0.0000000000
  302 1 4.0  3 1.691398   24.6600000000    4.1100000000    4.1100000000
  303 1 4.0  3 1.691398   28.7700000000    0.0000000000    4.1100000000
  304 1 4.0  3 1.691398   28.7700000000    4.1100000000    0.0000000000
  305 1 4.0  3 1.691398   24.6600000000    0.0000000000    8.2200000000
  306 1 4.0  3 1.691398   24.6600000000    4.1100000000   12.3300000000
  307 1 4.0  3 1.691398   28.7700000000    0.0000000000   12.3300000000
  308 1 4.0  3 1.691398   28.7700000000    4.1100000000    8.2200000000
  309 1 4.0  3 1.691398   24.6600000000    0.0000000000   16.4400000000
  310 1 4.0  3 1.691398   24.6600000000    4.1100000000   20.5500000000
  311 1 4.0  3 1.691398   28.7700000000    0.0000000000   20.5500000000
  312 1 4.0  3 1.691398   28.7700000000    4.1100000000   16.4400000000
  313 1 4.0  3 1.691398   24.6600000000    0.0000000000   24.6600000000
  314 1 4.0  3 1.691398   24.6600000000    4.1100000000   28.7700000000
  315 1 4.0  3 1.691398   28.7700000000    0.0000000000   28.7700000000
  316 1 4.0  3 1.691398   28.7700000000    4.1100000000   24.6600000000
  317 1 4.0  3 1.691398   24.6600000000    0.0000000000   32.8800000000
  318 1 4.0  3 1.691398   24.6600000000    4.1100000000   36.9900000000
  319 1 4.0  3 1.691398   28.7700000000    0.0000000000   36.9900000000
  320 1 4.0  3 1.691398   28.7700000000    4.1100000000   32.8800000000
  321 1 4.0  3 1.691398   24.6600000000    8.2200000000    0.0000000000
  322 1 4.0  3 1.691398   24.6600000000   12.3300000000    4.1100000000
  323 1 4.0  3 1.691398   28.7700000000    8.2200000000    4.1100000000
  324 1 4.0  3 1.691398   28.7700000000   12.3300000000    0.0000000000
  325 1 4.0  3 1.691398   24.6600000000    8.2200000000    8.2200000000
  326 1 4.0  3 1.691398   24.6600000000   12.3300000000   12.3300000000
  327 1 4.0  3 1.691398   28.7700000000    8.2200000000   12.3300000000
  328 1 4.0  3 1.691398   28.7700000000   12.3300000000    8.2200000000
  329 1 4.0  3 1.691398   24.6600000000    8.2200000000   16.4400000000
  330 1 4.0  3 1.691398   24.6600000000   12.3300000000   20.5500000000
  331 1 4.0  3 1.691398   28.7700000000    8.2200000000   20.5500000000
  332 1 4.0  3 1.691398   28.7700000000   12.3300000000   16.4400000000
  333 1 4.0  3 1.691398   24.6600000000    8.2200000000   24.6600000000
  334 1 4.0  3 1.691398   24.6600000000   12.3300000000   28.7700000000
  335 1 4.0  3 1.691398   28.7700000000    8.2200000000   28.7700000000
  336 1 4.0  3 1.691398   28.7700000000   12.3300000000   24.6600000000
  337 1 4.0  3 1.691398   24.6600000000    8.2200000000   32.8800000000
  338 1 4.0  3 1.691398   24.6600000000   12.3300000000   36.9900000000
  339 1 4.0  3 1.691398   28.7700000000    8.2200000000   36.9900000000
  340 1 4.0  3 1.691398   28.7700000000   12.3300000000   32.8800000000
  341 1 4.0  3 1.691398   24.6600000000   16.4400000000    0.0000000000
  342 1 4.0  3 1.691398   24.6600000000   20.5500000000    4.1100000000
  343 1 4.0  3 1.691398   28.7700000000   16.4400000000    4.1100000000
  344 1 4.0  3 1.691398   28.7700000000   20.5500000000    0.0000000000
  345 1 4.0  3 1.691398   24.6600000000   16.4400000000    8.2200000000
  346 1 4.0  3 1.691398   24.6600000000   20.5500000000   12.3300000000
  347 1 4.0  3 1.691398   28.7700000000   16.4400000000   12.3300000000
  348 1 4.0  3 1.691398   28.7700000000   20.5500000000    8.2200000000
  349 1 4.0  3 1.691398   24.6600000000   16.4400000000   16.4400000000
  350 1 4.0  3 1.691398   24.6600000000   20.5500000000   20.5500000000
  351 1 4.0  3 1.691398   28.7700000000   16.4400000000   20.5500000000
  352 1 4.0  3 1.691398   28.7700000000   20.5500000000   16.4400000000
  353 1 4.0  3 1.691398   24.6600000000   16.4400000000   24.6600000000
  354 1 4.0  3 1.691398   24.6600000000   20.5500000000   28.7700000000
  355 1 4.0  3 1.691398   28.7700000000   16.4400000000   28.7700000000
  356 1 4.0  3 1.691398   28.7700000000   20.5500000000   24.6600000000
  357 1 4.0  3 1.691398   24.6600000000   16.4400000000   32.8800000000
  358 1 4.0  3 1.691398   24.6600000000   20.5500000000   36.9900000000
  359 1 4.0  3 1.691398   28.7700000000   16.4400000000   36.9900000000
  360 1 4.0  3 1.691398   28.7700000000   20.5500000000   32.8800000000
  361 1 4.0  3 1.691398   24.6600000000   24.6600000000    0.0000000000
  362 1 4.0  3 1.691398   24.6600000000   28.7700000000    4.1100000000
  363 1 4.0  3 1.691398   28.7700000000   24.6600000000    4.1100000000
  364 1 4.0  3 1.691398   28.7700000000   28.7700000000    0.0000000000
  365 1 4.0  3 1.691398   24.6600000000   24.6600000000    8.2200000000
  366 1 4.0  3 1.691398   24.6600000000   28.7700000000   12.3300000000
  367 1 4.0  3 1.691398   28.7700000000   24.6600000000   12.3300000000
  368 1 4.0  3 1.691398   28.7700000000   28.7700000000    8.2200000000
  369 1 4.0  3 1.691398   24.6600000000   24.6600000000   16.4400000000
  370 1 4.0  3 1.691398   24.6600000000   28.7700000000   20.5500000000
  371 1 4.0  3 1.691398   28.7700000000   24.6600000000   20.5500000000
  372 1 4.0  3 1.691398   28.7700000000   28.7700000000   16.4400000000
  373 1 4.0  3 1.691398   24.6600000000   24.6600000000   24.6600000000
  374 1 4.0  3 1.691398   24.6600000000   28.7700000000   28.7700000000
  375 1 4.0  3 1.691398   28.7700000000   24.6600000000   28.7700000000
  376 1 4.0  3 1.691398   28.7700000000   28.7700000000   24.6600000000
  377 1 4.0  3 1.691398   24.6600000000   24.6600000000   32.8800000000
  378 1 4.0  3 1.691398   24.6600000000   28.7700000000   36.9900000000
  379 1 4.0  3 1.691398   28.7700000000   24.6600000000   36.9900000000
  380 1 4.0  3 1.691398   28.7700000000   28.7700000000   32.8800000000
  381 1 4.0  3 1.691398   24.6600000000   32.8800000000    0.0000000000
  382 1 4.0  3 1.691398   24.6600000000   36.9900000000    4.1100000000
  383 1 4.0  3 1.691398   28.7700000000   32.8800000000    4.1100000000
  384 1 4.0  3 1.691398   28.7700000000   36.9900000000    0.0000000000
  385 1 4.0  3 1.691398   24.6600000000   32.8800000000    8.2200000000
  386 1 4.0  3 1.691398   24.6600000000   36.9900000000   12.3300000000
  387 1 4.0  3 1.691398   28.7700000000   32.8800000000   12.3300000000
  388 1 4.0  3 1.691398   28.7700000000   36.9900000000    8.2200000000
  389 1 4.0  3 1.691398   24.6600000000   32.8800000000   16.4400000000
  390 1 4.0  3 1.691398   24.6600000000   36.9900000000   20.5500000000
  391 1 4.0  3 1.691398   28.7700000000   32.8800000000   20.5500000000
  392 1 4.0  3 1.691398   28.7700000000   36.9900000000   16.4400000000
  393 1 4.0  3 1.691398   24.6600000000   32.8800000000   24.6600000000
  394 1 4.0  3 1.691398   24.6600000000   36.9900000000   28.7700000000
  395 1 4.0  3 1.691398   28.7700000000   32.8800000000   28.7700000000
  396 1 4.0  3 1.691398   28.7700000000   36.9900000000   24.6600000000
  397 1 4.0  3 1.691398   24.6600000000   32.8800000000   32.8800000000
  398 1 4.0  3 1.691398   24.6600000000   36.9900000000   36.9900000000
  399 1 4.0  3 1.691398   28.7700000000   32.8800000000   36.9900000000
  400 1 4.0  3 1.691398   28.7700000000   36.9900000000   32.8800000000
  401 1 4.0  3 1.691398   32.8800000000    0.0000000000    0.0000000000
  402 1 4.0  3 1.691398   32.8800000000    4.1100000000    4.1100000000
  403 1 4.0  3 1.691398   36.9900000000    0.0000000000    4.1100000000
  404 1 4.0  3 1.691398   36.9900000000    4.1100000000    0.0000000000
  405 1 4.0  3 1.691398   32.8800000000    0.0000000000    8.2200000000
  406 1 4.0  3 1.691398   32.8800000000    4.1100000000   12.3300000000
  407 1 4.0  3 1.691398   36.9900000000    0.0000000000   12.3300000000
  408 1 4.0  3 1.691398   36.9900000000    4.1100000000    8.2200000000
  409 1 4.0  3 1.691398   32.8800000000    0.0000000000   16.4400000000
  410 1 4.0  3 1.691398   32.8800000000    4.1100000000   20.5500000000
  411 1 4.0  3 1.691398   36.9900000000    0.0000000000   20.5500000000
  412 1 4.0  3 1.691398   36.9900000000    4.1100000000   16.4400000000
  413 1 4.0  3 1.691398   32.8800000000    0.0000000000   24.6600000000