LAMMPS Description

300 atoms

1 atom types

0 10 xlo xhi 
0 10 ylo yhi 
0 10 zlo zhi 

Masses

1  1.0

Atoms

1  1 1 0 0 4.5
2  1 -1 0 0 5.5
3  1 1 0 1 4.5
4  1 -1 0 1 5.5
5  1 1 0 2 4.5
6  1 -1 0 2 5.5
7  1 1 0 3 4.5
8  1 -1 0 3 5.5
9  1 1 0 4 4.5
10  1 -1 0 4 5.5
11  1 1 0 5 4.5
12  1 -1 0 5 5.5
13  1 1 0 6 4.5
14  1 -1 0 6 5.5
15  1 1 0 7 4.5
16  1 -1 0 7 5.5
17  1 1 0 8 4.5
18  1 -1 0 8 5.5
19  1 1 0 9 4.5
20  1 -1 0 9 5.5
21  1 1 1 0 4.5
22  1 -1 1 0 5.5
23  1 1 1 1 4.5
24  1 -1 1 1 5.5
25  1 1 1 2 4.5
26  1 -1 1 2 5.5
27  1 1 1 3 4.5
28  1 -1 1 3 5.5
29  1 1 1 4 4.5
30  1 -1 1 4 5.5
31  1 1 1 5 4.5
32  1 -1 1 5 5.5
33  1 1 1 6 4.5
34  1 -1 1 6 5.5
35  1 1 1 7 4.5
36  1 -1 1 7 5.5
37  1 1 1 8 4.5
38  1 -1 1 8 5.5
39  1 1 1 9 4.5
40  1 -1 1 9 5.5
41  1 1 2 0 4.5
42  1 -1 2 0 5.5
43  1 1 2 1 4.5
44  1 -1 2 1 5.5
45  1 1 2 2 4.5
46  1 -1 2 2 5.5
47  1 1 2 3 4.5
48  1 -1 2 3 5.5
49  1 1 2 4 4.5
50  1 -1 2 4 5.5
51  1 1 2 5 4.5
52  1 -1 2 5 5.5
53  1 1 2 6 4.5
54  1 -1 2 6 5.5
55  1 1 2 7 4.5
56  1 -1 2 7 5.5
57  1 1 2 8 4.5
58  1 -1 2 8 5.5
59  1 1 2 9 4.5
60  1 -1 2 9 5.5
61  1 1 3 0 4.5
62  1 -1 3 0 5.5
63  1 1 3 1 4.5
64  1 -1 3 1 5.5
65  1 1 3 2 4.5
66  1 -1 3 2 5.5
67  1 1 3 3 4.5
68  1 -1 3 3 5.5
69  1 1 3 4 4.5
70  1 -1 3 4 5.5
71  1 1 3 5 4.5
72  1 -1 3 5 5.5
73  1 1 3 6 4.5
74  1 -1 3 6 5.5
75  1 1 3 7 4.5
76  1 -1 3 7 5.5
77  1 1 3 8 4.5
78  1 -1 3 8 5.5
79  1 1 3 9 4.5
80  1 -1 3 9 5.5
81  1 1 4 0 4.5
82  1 -1 4 0 5.5
83  1 1 4 1 4.5
84  1 -1 4 1 5.5
85  1 1 4 2 4.5
86  1 -1 4 2 5.5
87  1 1 4 3 4.5
88  1 -1 4 3 5.5
89  1 1 4 4 4.5
90  1 -1 4 4 5.5
91  1 1 4 5 4.5
92  1 -1 4 5 5.5
93  1 1 4 6 4.5
94  1 -1 4 6 5.5
95  1 1 4 7 4.5
96  1 -1 4 7 5.5
97  1 1 4 8 4.5
98  1 -1 4 8 5.5
99  1 1 4 9 4.5
100  1 -1 4 9 5.5
101  1 1 5 0 4.5
102  1 -1 5 0 5.5
103  1 1 5 1 4.5
104  1 -1 5 1 5.5
105  1 1 5 2 4.5
106  1 -1 5 2 5.5
107  1 1 5 3 4.5
108  1 -1 5 3 5.5
109  1 1 5 4 4.5
110  1 -1 5 4 5.5
111  1 1 5 5 4.5
112  1 -1 5 5 5.5
113  1 1 5 6 4.5
114  1 -1 5 6 5.5
115  1 1 5 7 4.5
116  1 -1 5 7 5.5
117  1 1 5 8 4.5
118  1 -1 5 8 5.5
119  1 1 5 9 4.5
120  1 -1 5 9 5.5
121  1 1 6 0 4.5
122  1 -1 6 0 5.5
123  1 1 6 1 4.5
124  1 -1 6 1 5.5
125  1 1 6 2 4.5
126  1 -1 6 2 5.5
127  1 1 6 3 4.5
128  1 -1 6 3 5.5
129  1 1 6 4 4.5
130  1 -1 6 4 5.5
131  1 1 6 5 4.5
132  1 -1 6 5 5.5
133  1 1 6 6 4.5
134  1 -1 6 6 5.5
135  1 1 6 7 4.5
136  1 -1 6 7 5.5
137  1 1 6 8 4.5
138  1 -1 6 8 5.5
139  1 1 6 9 4.5
140  1 -1 6 9 5.5
141  1 1 7 0 4.5
142  1 -1 7 0 5.5
143  1 1 7 1 4.5
144  1 -1 7 1 5.5
145  1 1 7 2 4.5
146  1 -1 7 2 5.5
147  1 1 7 3 4.5
148  1 -1 7 3 5.5
149  1 1 7 4 4.5
150  1 -1 7 4 5.5
151  1 1 7 5 4.5
152  1 -1 7 5 5.5
153  1 1 7 6 4.5
154  1 -1 7 6 5.5
155  1 1 7 7 4.5
156  1 -1 7 7 5.5
157  1 1 7 8 4.5
158  1 -1 7 8 5.5
159  1 1 7 9 4.5
160  1 -1 7 9 5.5
161  1 1 8 0 4.5
162  1 -1 8 0 5.5
163  1 1 8 1 4.5
164  1 -1 8 1 5.5
165  1 1 8 2 4.5
166  1 -1 8 2 5.5
167  1 1 8 3 4.5
168  1 -1 8 3 5.5
169  1 1 8 4 4.5
170  1 -1 8 4 5.5
171  1 1 8 5 4.5
172  1 -1 8 5 5.5
173  1 1 8 6 4.5
174  1 -1 8 6 5.5
175  1 1 8 7 4.5
176  1 -1 8 7 5.5
177  1 1 8 8 4.5
178  1 -1 8 8 5.5
179  1 1 8 9 4.5
180  1 -1 8 9 5.5
181  1 1 9 0 4.5
182  1 -1 9 0 5.5
183  1 1 9 1 4.5
184  1 -1 9 1 5.5
185  1 1 9 2 4.5
186  1 -1 9 2 5.5
187  1 1 9 3 4.5
188  1 -1 9 3 5.5
189  1 1 9 4 4.5
190  1 -1 9 4 5.5
191  1 1 9 5 4.5
192  1 -1 9 5 5.5
193  1 1 9 6 4.5
194  1 -1 9 6 5.5
195  1 1 9 7 4.5
196  1 -1 9 7 5.5
197  1 1 9 8 4.5
198  1 -1 9 8 5.5
199  1 1 9 9 4.5
200  1 -1 9 9 5.5
201  1 -1 9.28495 2.13839 8.88019
202  1 1 4.99281 4.17459 9.83905
203  1 -1 4.91265 6.89408 2.39989
204  1 1 4.43647 3.68895 8.86086
205  1 -1 0.659075 7.07271 0.179131
206  1 1 7.791 3.40021 0.969703
207  1 -1 1.18008 3.63874 7.28751
208  1 1 8.51522 5.24681 6.37702
209  1 -1 4.24226 9.60726 3.16084
210  1 1 8.43745 8.23344 9.2883
211  1 -1 8.48509 8.84988 9.43407
212  1 1 2.81127 8.9903 0.00909212
213  1 -1 6.38283 6.20858 9.92482
214  1 1 4.59962 5.7925 7.52571
215  1 -1 7.03797 7.09336 8.15957
216  1 1 6.68103 8.04734 7.95661
217  1 -1 2.531 8.47145 1.6209
218  1 1 6.71915 8.79876 9.59581
219  1 -1 4.96758 0.0381298 0.827927
220  1 1 9.22955 1.04572 0.84722
221  1 -1 2.3224 2.57084 8.07306
222  1 1 1.94283 3.17375 3.92051
223  1 -1 2.34735 1.91295 1.29127
224  1 1 3.33928 3.30688 0.892089
225  1 -1 1.19738 4.40402 8.70835
226  1 1 7.44541 4.94803 8.28211
227  1 -1 5.93272 1.18886 1.56518
228  1 1 8.50709 8.70343 1.24939
229  1 -1 5.54016 3.38865 8.61698
230  1 1 9.47644 0.573085 3.05941
231  1 -1 9.39695 4.46542 1.84205
232  1 1 3.52268 5.60212 0.333999
233  1 -1 3.69009 9.40954 6.10446
234  1 1 3.96836 6.15307 7.57803
235  1 -1 2.02535 0.0418407 3.21642
236  1 1 2.97488 8.79711 8.33242
237  1 -1 2.4122 1.79458 3.04173
238  1 1 9.72355 3.67773 1.52435
239  1 -1 8.55216 6.1623 1.53201
240  1 1 4.98973 2.41459 9.84381
241  1 -1 8.8901 5.9006 1.97649
242  1 1 9.09932 2.23783 1.42554
243  1 -1 6.70722 8.21769 1.21953
244  1 1 6.83768 0.84508 3.25165
245  1 -1 0.222115 3.07945 0.51825
246  1 1 0.503918 9.34932 6.25278
247  1 -1 0.803159 8.7017 9.46211
248  1 1 4.88636 5.00147 9.65639
249  1 -1 1.62258 0.767285 9.63596
250  1 1 2.70143 3.01111 7.74859
251  1 -1 4.41574 5.31824 0.538729
252  1 1 1.64724 5.18097 3.59205
253  1 -1 2.33672 3.21408 6.6081
254  1 1 7.46603 1.53668 9.09844
255  1 -1 3.61269 8.44556 6.99789
256  1 1 6.95465 6.83045 9.31002
257  1 -1 5.91831 9.01549 3.4626
258  1 1 6.56503 8.42229 3.27105
259  1 -1 4.50822 9.59753 3.47025
260  1 1 4.17357 5.27384 7.34774
261  1 -1 7.70968 6.5292 3.54779
262  1 1 4.7977 4.94239 6.24947
263  1 -1 9.24016 9.36994 6.71263
264  1 1 7.36888 8.75922 0.52403
265  1 -1 9.92895 5.87551 6.21586
266  1 1 3.86308 6.71601 9.69083
267  1 -1 8.90048 0.298719 0.573852
268  1 1 6.58753 6.67768 1.83984
269  1 -1 8.672 0.367497 2.21864
270  1 1 3.44519 3.30359 6.52249
271  1 -1 7.24717 3.25113 3.41567
272  1 1 9.53447 5.81336 1.79208
273  1 -1 1.01722 6.42534 0.715
274  1 1 3.58808 4.92392 7.00979
275  1 -1 1.21399 3.56951 6.34505
276  1 1 3.50336 0.942722 2.76989
277  1 -1 9.45475 6.06299 0.659023
278  1 1 3.44464 4.03075 6.20179
279  1 -1 0.949331 5.40183 8.51385
280  1 1 6.41118 2.62135 2.31132
281  1 -1 3.58837 9.78355 7.04966
282  1 1 9.2267 3.19593 2.10384
283  1 -1 1.83092 2.35627 3.93061
284  1 1 4.97203 4.92287 1.8049
285  1 -1 7.4097 4.757 8.604
286  1 1 0.746575 7.69038 0.89134
287  1 -1 8.54862 6.59135 2.18888
288  1 1 2.18747 4.82994 0.761718
289  1 -1 5.71622 2.51116 6.85522
290  1 1 6.95554 1.83187 8.31157
291  1 -1 7.31818 6.60081 2.63208
292  1 1 0.744495 2.73429 9.86022
293  1 -1 5.1573 8.70962 2.53418
294  1 1 2.40385 1.54057 1.9297
295  1 -1 3.42609 2.25856 2.28437
296  1 1 6.66173 3.70851 9.70052
297  1 -1 7.88966 1.4343 8.91223
298  1 1 3.91118 5.22253 6.29642
299  1 -1 9.17618 3.98313 9.82158
300  1 1 4.95424 5.93521 1.3652
