Empty Data file

0 atoms

1 atom types

-1.0 1.0 xlo xhi
-1.0 1.0 ylo yhi
-1.0 1.0 zlo zhi

