ITEM: TIMESTEP
0
ITEM: NUMBER OF ATOMS
960
ITEM: BOX BOUNDS
0 26.1562
0 21.5425
0 24.0025
ITEM: ATOMS id type xs ys zs
1 2 0.0297987 0.181106 0.0188843
2 2 0.0297987 0.181106 0.185551
25 2 0.224735 0.0735035 0.018956
26 2 0.224735 0.0735035 0.185623
97 2 0.0996342 0.306052 0.0609458
98 2 0.0996342 0.306052 0.227613
217 2 0.224959 0.323194 0.102125
289 2 0.0999125 0.0561689 0.143759
313 2 0.154856 0.198433 0.144007
385 1 0.091997 0.233106 0.0111714
386 1 0.091997 0.233106 0.177838
409 1 0.16284 0.0211373 0.0111043
410 1 0.16284 0.0211373 0.177771
481 1 0.00055398 0.00159638 0.133155
529 1 0.0374267 0.108075 0.135783
553 1 0.216951 0.146392 0.136132
697 1 0.162554 0.271258 0.0946128
769 1 0.00254013 0.252273 0.049912
770 1 0.00254013 0.252273 0.216579
913 1 0.12869 0.126699 0.00838247
914 1 0.12869 0.126699 0.175049
73 2 0.474832 0.323291 0.0189039
74 2 0.474832 0.323291 0.185571
145 2 0.349915 0.0564688 0.0608792
146 2 0.349915 0.0564688 0.227546
169 2 0.404901 0.198491 0.0607892
170 2 0.404901 0.198491 0.227456
241 2 0.279735 0.181017 0.102279
265 2 0.474666 0.0734357 0.102401
337 2 0.349818 0.306213 0.144286
457 1 0.412866 0.271379 0.0112297
458 1 0.412866 0.271379 0.177896
505 1 0.253674 0.252879 0.133535
649 1 0.37811 0.12679 0.0916735
721 1 0.341809 0.23312 0.0945336
745 1 0.41273 0.021225 0.0948749
793 1 0.252402 0.00244354 0.050014
794 1 0.252402 0.00244354 0.216681
865 1 0.287594 0.108395 0.0528704
866 1 0.287594 0.108395 0.219537
889 1 0.466813 0.146268 0.0526038
890 1 0.466813 0.146268 0.21927
31 2 0.224735 0.573503 0.018956
32 2 0.224735 0.573503 0.185623
121 2 0.154481 0.44801 0.0604642
122 2 0.154481 0.44801 0.227131
193 2 0.0294917 0.431368 0.102458
295 2 0.0999125 0.556169 0.143759
415 1 0.16284 0.521137 0.0111043
416 1 0.16284 0.521137 0.177771
487 1 0.00055398 0.501596 0.133155
535 1 0.0374267 0.608075 0.135783
559 1 0.216951 0.646392 0.136132
625 1 0.125833 0.377839 0.0918952
673 1 0.0919301 0.483158 0.0941962
817 1 0.0376477 0.358188 0.0529221
818 1 0.0376477 0.358188 0.219589
841 1 0.216641 0.396376 0.0529567
842 1 0.216641 0.396376 0.219623
919 1 0.12869 0.626699 0.00838247
920 1 0.12869 0.626699 0.175049
49 2 0.279535 0.431189 0.0191235
50 2 0.279535 0.431189 0.18579
151 2 0.349915 0.556469 0.0608792
152 2 0.349915 0.556469 0.227546
271 2 0.474666 0.573436 0.102401
361 2 0.404654 0.448293 0.143945
433 1 0.341626 0.483347 0.0115721
434 1 0.341626 0.483347 0.178239
577 1 0.287775 0.358396 0.136391
601 1 0.46667 0.396014 0.136389
655 1 0.37811 0.62679 0.0916735
751 1 0.41273 0.521225 0.0948749
799 1 0.252402 0.502444 0.050014
800 1 0.252402 0.502444 0.216681
871 1 0.287594 0.608395 0.0528704
872 1 0.287594 0.608395 0.219537
895 1 0.466813 0.646268 0.0526038
896 1 0.466813 0.646268 0.21927
937 1 0.376748 0.377687 0.0084733
938 1 0.376748 0.377687 0.17514
7 2 0.0297987 0.681106 0.0188843
8 2 0.0297987 0.681106 0.185551
103 2 0.0996342 0.806052 0.0609458
104 2 0.0996342 0.806052 0.227613
127 2 0.154481 0.94801 0.0604642
128 2 0.154481 0.94801 0.227131
199 2 0.0294917 0.931368 0.102458
223 2 0.224959 0.823194 0.102125
319 2 0.154856 0.698433 0.144007
391 1 0.091997 0.733106 0.0111714
392 1 0.091997 0.733106 0.177838
631 1 0.125833 0.877839 0.0918952
679 1 0.0919301 0.983158 0.0941962
703 1 0.162554 0.771258 0.0946128
775 1 0.00254013 0.752273 0.049912
776 1 0.00254013 0.752273 0.216579
823 1 0.0376477 0.858188 0.0529221
824 1 0.0376477 0.858188 0.219589
847 1 0.216641 0.896376 0.0529567
848 1 0.216641 0.896376 0.219623
55 2 0.279535 0.931189 0.0191235
56 2 0.279535 0.931189 0.18579
79 2 0.474832 0.823291 0.0189039
80 2 0.474832 0.823291 0.185571
175 2 0.404901 0.698491 0.0607892
176 2 0.404901 0.698491 0.227456
247 2 0.279735 0.681017 0.102279
343 2 0.349818 0.806213 0.144286
367 2 0.404654 0.948293 0.143945
439 1 0.341626 0.983347 0.0115721
440 1 0.341626 0.983347 0.178239
463 1 0.412866 0.771379 0.0112297
464 1 0.412866 0.771379 0.177896
511 1 0.253674 0.752879 0.133535
583 1 0.287775 0.858396 0.136391
607 1 0.46667 0.896014 0.136389
727 1 0.341809 0.73312 0.0945336
943 1 0.376748 0.877687 0.0084733
944 1 0.376748 0.877687 0.17514
3 2 0.0297987 0.181106 0.352218
27 2 0.224735 0.0735035 0.352289
99 2 0.0996342 0.306052 0.394279
218 2 0.224959 0.323194 0.268791
219 2 0.224959 0.323194 0.435458
290 2 0.0999125 0.0561689 0.310425
291 2 0.0999125 0.0561689 0.477092
314 2 0.154856 0.198433 0.310674
315 2 0.154856 0.198433 0.47734
387 1 0.091997 0.233106 0.344505
411 1 0.16284 0.0211373 0.344438
482 1 0.00055398 0.00159638 0.299821
483 1 0.00055398 0.00159638 0.466488
530 1 0.0374267 0.108075 0.302449
531 1 0.0374267 0.108075 0.469116
554 1 0.216951 0.146392 0.302799
555 1 0.216951 0.146392 0.469465
698 1 0.162554 0.271258 0.261279
699 1 0.162554 0.271258 0.427946
771 1 0.00254013 0.252273 0.383245
915 1 0.12869 0.126699 0.341716
75 2 0.474832 0.323291 0.352237
147 2 0.349915 0.0564688 0.394213
171 2 0.404901 0.198491 0.394123
242 2 0.279735 0.181017 0.268946
243 2 0.279735 0.181017 0.435612
266 2 0.474666 0.0734357 0.269068
267 2 0.474666 0.0734357 0.435735
338 2 0.349818 0.306213 0.310953
339 2 0.349818 0.306213 0.477619
459 1 0.412866 0.271379 0.344563
506 1 0.253674 0.252879 0.300201
507 1 0.253674 0.252879 0.466868
650 1 0.37811 0.12679 0.25834
651 1 0.37811 0.12679 0.425007
722 1 0.341809 0.23312 0.2612
723 1 0.341809 0.23312 0.427867
746 1 0.41273 0.021225 0.261542
747 1 0.41273 0.021225 0.428208
795 1 0.252402 0.00244354 0.383347
867 1 0.287594 0.108395 0.386204
891 1 0.466813 0.146268 0.385937
33 2 0.224735 0.573503 0.352289
123 2 0.154481 0.44801 0.393798
194 2 0.0294917 0.431368 0.269124
195 2 0.0294917 0.431368 0.435791
296 2 0.0999125 0.556169 0.310425
297 2 0.0999125 0.556169 0.477092
417 1 0.16284 0.521137 0.344438
488 1 0.00055398 0.501596 0.299821
489 1 0.00055398 0.501596 0.466488
536 1 0.0374267 0.608075 0.302449
537 1 0.0374267 0.608075 0.469116
560 1 0.216951 0.646392 0.302799
561 1 0.216951 0.646392 0.469465
626 1 0.125833 0.377839 0.258562
627 1 0.125833 0.377839 0.425228
674 1 0.0919301 0.483158 0.260863
675 1 0.0919301 0.483158 0.42753
819 1 0.0376477 0.358188 0.386255
843 1 0.216641 0.396376 0.38629
921 1 0.12869 0.626699 0.341716
51 2 0.279535 0.431189 0.352457
153 2 0.349915 0.556469 0.394213
272 2 0.474666 0.573436 0.269068
273 2 0.474666 0.573436 0.435735
362 2 0.404654 0.448293 0.310611
363 2 0.404654 0.448293 0.477278
435 1 0.341626 0.483347 0.344905
578 1 0.287775 0.358396 0.303057
579 1 0.287775 0.358396 0.469724
602 1 0.46667 0.396014 0.303056
603 1 0.46667 0.396014 0.469722
656 1 0.37811 0.62679 0.25834
657 1 0.37811 0.62679 0.425007
752 1 0.41273 0.521225 0.261542
753 1 0.41273 0.521225 0.428208
801 1 0.252402 0.502444 0.383347
873 1 0.287594 0.608395 0.386204
897 1 0.466813 0.646268 0.385937
939 1 0.376748 0.377687 0.341807
9 2 0.0297987 0.681106 0.352218
105 2 0.0996342 0.806052 0.394279
129 2 0.154481 0.94801 0.393798
200 2 0.0294917 0.931368 0.269124
201 2 0.0294917 0.931368 0.435791
224 2 0.224959 0.823194 0.268791
225 2 0.224959 0.823194 0.435458
320 2 0.154856 0.698433 0.310674
321 2 0.154856 0.698433 0.47734
393 1 0.091997 0.733106 0.344505
632 1 0.125833 0.877839 0.258562
633 1 0.125833 0.877839 0.425228
680 1 0.0919301 0.983158 0.260863
681 1 0.0919301 0.983158 0.42753
704 1 0.162554 0.771258 0.261279
705 1 0.162554 0.771258 0.427946
777 1 0.00254013 0.752273 0.383245
825 1 0.0376477 0.858188 0.386255
849 1 0.216641 0.896376 0.38629
57 2 0.279535 0.931189 0.352457
81 2 0.474832 0.823291 0.352237
177 2 0.404901 0.698491 0.394123
248 2 0.279735 0.681017 0.268946
249 2 0.279735 0.681017 0.435612
344 2 0.349818 0.806213 0.310953
345 2 0.349818 0.806213 0.477619
368 2 0.404654 0.948293 0.310611
369 2 0.404654 0.948293 0.477278
441 1 0.341626 0.983347 0.344905
465 1 0.412866 0.771379 0.344563
512 1 0.253674 0.752879 0.300201
513 1 0.253674 0.752879 0.466868
584 1 0.287775 0.858396 0.303057
585 1 0.287775 0.858396 0.469724
608 1 0.46667 0.896014 0.303056
609 1 0.46667 0.896014 0.469722
728 1 0.341809 0.73312 0.2612
729 1 0.341809 0.73312 0.427867
945 1 0.376748 0.877687 0.341807
4 2 0.0297987 0.181106 0.518884
5 2 0.0297987 0.181106 0.685551
28 2 0.224735 0.0735035 0.518956
29 2 0.224735 0.0735035 0.685623
100 2 0.0996342 0.306052 0.560946
101 2 0.0996342 0.306052 0.727613
220 2 0.224959 0.323194 0.602125
292 2 0.0999125 0.0561689 0.643759
316 2 0.154856 0.198433 0.644007
388 1 0.091997 0.233106 0.511171
389 1 0.091997 0.233106 0.677838
412 1 0.16284 0.0211373 0.511104
413 1 0.16284 0.0211373 0.677771
484 1 0.00055398 0.00159638 0.633155
532 1 0.0374267 0.108075 0.635783
556 1 0.216951 0.146392 0.636132
700 1 0.162554 0.271258 0.594613
772 1 0.00254013 0.252273 0.549912
773 1 0.00254013 0.252273 0.716579
916 1 0.12869 0.126699 0.508382
917 1 0.12869 0.126699 0.675049
76 2 0.474832 0.323291 0.518904
77 2 0.474832 0.323291 0.685571
148 2 0.349915 0.0564688 0.560879
149 2 0.349915 0.0564688 0.727546
172 2 0.404901 0.198491 0.560789
173 2 0.404901 0.198491 0.727456
244 2 0.279735 0.181017 0.602279
268 2 0.474666 0.0734357 0.602401
340 2 0.349818 0.306213 0.644286
460 1 0.412866 0.271379 0.51123
461 1 0.412866 0.271379 0.677896
508 1 0.253674 0.252879 0.633535
652 1 0.37811 0.12679 0.591674
724 1 0.341809 0.23312 0.594534
748 1 0.41273 0.021225 0.594875
796 1 0.252402 0.00244354 0.550014
797 1 0.252402 0.00244354 0.716681
868 1 0.287594 0.108395 0.55287
869 1 0.287594 0.108395 0.719537
892 1 0.466813 0.146268 0.552604
893 1 0.466813 0.146268 0.71927
34 2 0.224735 0.573503 0.518956
35 2 0.224735 0.573503 0.685623
124 2 0.154481 0.44801 0.560464
125 2 0.154481 0.44801 0.727131
196 2 0.0294917 0.431368 0.602458
298 2 0.0999125 0.556169 0.643759
418 1 0.16284 0.521137 0.511104
419 1 0.16284 0.521137 0.677771
490 1 0.00055398 0.501596 0.633155
538 1 0.0374267 0.608075 0.635783
562 1 0.216951 0.646392 0.636132
628 1 0.125833 0.377839 0.591895
676 1 0.0919301 0.483158 0.594196
820 1 0.0376477 0.358188 0.552922
821 1 0.0376477 0.358188 0.719589
844 1 0.216641 0.396376 0.552957
845 1 0.216641 0.396376 0.719623
922 1 0.12869 0.626699 0.508382
923 1 0.12869 0.626699 0.675049
52 2 0.279535 0.431189 0.519123
53 2 0.279535 0.431189 0.68579
154 2 0.349915 0.556469 0.560879
155 2 0.349915 0.556469 0.727546
274 2 0.474666 0.573436 0.602401
364 2 0.404654 0.448293 0.643945
436 1 0.341626 0.483347 0.511572
437 1 0.341626 0.483347 0.678239
580 1 0.287775 0.358396 0.636391
604 1 0.46667 0.396014 0.636389
658 1 0.37811 0.62679 0.591674
754 1 0.41273 0.521225 0.594875
802 1 0.252402 0.502444 0.550014
803 1 0.252402 0.502444 0.716681
874 1 0.287594 0.608395 0.55287
875 1 0.287594 0.608395 0.719537
898 1 0.466813 0.646268 0.552604
899 1 0.466813 0.646268 0.71927
940 1 0.376748 0.377687 0.508473
941 1 0.376748 0.377687 0.67514
10 2 0.0297987 0.681106 0.518884
11 2 0.0297987 0.681106 0.685551
106 2 0.0996342 0.806052 0.560946
107 2 0.0996342 0.806052 0.727613
130 2 0.154481 0.94801 0.560464
131 2 0.154481 0.94801 0.727131
202 2 0.0294917 0.931368 0.602458
226 2 0.224959 0.823194 0.602125
322 2 0.154856 0.698433 0.644007
394 1 0.091997 0.733106 0.511171
395 1 0.091997 0.733106 0.677838
634 1 0.125833 0.877839 0.591895
682 1 0.0919301 0.983158 0.594196
706 1 0.162554 0.771258 0.594613
778 1 0.00254013 0.752273 0.549912
779 1 0.00254013 0.752273 0.716579
826 1 0.0376477 0.858188 0.552922
827 1 0.0376477 0.858188 0.719589
850 1 0.216641 0.896376 0.552957
851 1 0.216641 0.896376 0.719623
58 2 0.279535 0.931189 0.519123
59 2 0.279535 0.931189 0.68579
82 2 0.474832 0.823291 0.518904
83 2 0.474832 0.823291 0.685571
178 2 0.404901 0.698491 0.560789
179 2 0.404901 0.698491 0.727456
250 2 0.279735 0.681017 0.602279
346 2 0.349818 0.806213 0.644286
370 2 0.404654 0.948293 0.643945
442 1 0.341626 0.983347 0.511572
443 1 0.341626 0.983347 0.678239
466 1 0.412866 0.771379 0.51123
467 1 0.412866 0.771379 0.677896
514 1 0.253674 0.752879 0.633535
586 1 0.287775 0.858396 0.636391
610 1 0.46667 0.896014 0.636389
730 1 0.341809 0.73312 0.594534
946 1 0.376748 0.877687 0.508473
947 1 0.376748 0.877687 0.67514
6 2 0.0297987 0.181106 0.852218
30 2 0.224735 0.0735035 0.852289
102 2 0.0996342 0.306052 0.894279
221 2 0.224959 0.323194 0.768791
222 2 0.224959 0.323194 0.935458
293 2 0.0999125 0.0561689 0.810425
294 2 0.0999125 0.0561689 0.977092
317 2 0.154856 0.198433 0.810674
318 2 0.154856 0.198433 0.97734
390 1 0.091997 0.233106 0.844505
414 1 0.16284 0.0211373 0.844438
485 1 0.00055398 0.00159638 0.799821
486 1 0.00055398 0.00159638 0.966488
533 1 0.0374267 0.108075 0.802449
534 1 0.0374267 0.108075 0.969116
557 1 0.216951 0.146392 0.802799
558 1 0.216951 0.146392 0.969465
701 1 0.162554 0.271258 0.761279
702 1 0.162554 0.271258 0.927946
774 1 0.00254013 0.252273 0.883245
918 1 0.12869 0.126699 0.841716
78 2 0.474832 0.323291 0.852237
150 2 0.349915 0.0564688 0.894213
174 2 0.404901 0.198491 0.894123
245 2 0.279735 0.181017 0.768946
246 2 0.279735 0.181017 0.935612
269 2 0.474666 0.0734357 0.769068
270 2 0.474666 0.0734357 0.935735
341 2 0.349818 0.306213 0.810953
342 2 0.349818 0.306213 0.977619
462 1 0.412866 0.271379 0.844563
509 1 0.253674 0.252879 0.800201
510 1 0.253674 0.252879 0.966868
653 1 0.37811 0.12679 0.75834
654 1 0.37811 0.12679 0.925007
725 1 0.341809 0.23312 0.7612
726 1 0.341809 0.23312 0.927867
749 1 0.41273 0.021225 0.761542
750 1 0.41273 0.021225 0.928208
798 1 0.252402 0.00244354 0.883347
870 1 0.287594 0.108395 0.886204
894 1 0.466813 0.146268 0.885937
36 2 0.224735 0.573503 0.852289
126 2 0.154481 0.44801 0.893798
197 2 0.0294917 0.431368 0.769124
198 2 0.0294917 0.431368 0.935791
299 2 0.0999125 0.556169 0.810425
300 2 0.0999125 0.556169 0.977092
420 1 0.16284 0.521137 0.844438
491 1 0.00055398 0.501596 0.799821
492 1 0.00055398 0.501596 0.966488
539 1 0.0374267 0.608075 0.802449
540 1 0.0374267 0.608075 0.969116
563 1 0.216951 0.646392 0.802799
564 1 0.216951 0.646392 0.969465
629 1 0.125833 0.377839 0.758562
630 1 0.125833 0.377839 0.925228
677 1 0.0919301 0.483158 0.760863
678 1 0.0919301 0.483158 0.92753
822 1 0.0376477 0.358188 0.886255
846 1 0.216641 0.396376 0.88629
924 1 0.12869 0.626699 0.841716
54 2 0.279535 0.431189 0.852457
156 2 0.349915 0.556469 0.894213
275 2 0.474666 0.573436 0.769068
276 2 0.474666 0.573436 0.935735
365 2 0.404654 0.448293 0.810611
366 2 0.404654 0.448293 0.977278
438 1 0.341626 0.483347 0.844905
581 1 0.287775 0.358396 0.803057
582 1 0.287775 0.358396 0.969724
605 1 0.46667 0.396014 0.803056
606 1 0.46667 0.396014 0.969722
659 1 0.37811 0.62679 0.75834
660 1 0.37811 0.62679 0.925007
755 1 0.41273 0.521225 0.761542
756 1 0.41273 0.521225 0.928208
804 1 0.252402 0.502444 0.883347
876 1 0.287594 0.608395 0.886204
900 1 0.466813 0.646268 0.885937
942 1 0.376748 0.377687 0.841807
12 2 0.0297987 0.681106 0.852218
108 2 0.0996342 0.806052 0.894279
132 2 0.154481 0.94801 0.893798
203 2 0.0294917 0.931368 0.769124
204 2 0.0294917 0.931368 0.935791
227 2 0.224959 0.823194 0.768791
228 2 0.224959 0.823194 0.935458
323 2 0.154856 0.698433 0.810674
324 2 0.154856 0.698433 0.97734
396 1 0.091997 0.733106 0.844505
635 1 0.125833 0.877839 0.758562
636 1 0.125833 0.877839 0.925228
683 1 0.0919301 0.983158 0.760863
684 1 0.0919301 0.983158 0.92753
707 1 0.162554 0.771258 0.761279
708 1 0.162554 0.771258 0.927946
780 1 0.00254013 0.752273 0.883245
828 1 0.0376477 0.858188 0.886255
852 1 0.216641 0.896376 0.88629
60 2 0.279535 0.931189 0.852457
84 2 0.474832 0.823291 0.852237
180 2 0.404901 0.698491 0.894123
251 2 0.279735 0.681017 0.768946
252 2 0.279735 0.681017 0.935612
347 2 0.349818 0.806213 0.810953
348 2 0.349818 0.806213 0.977619
371 2 0.404654 0.948293 0.810611
372 2 0.404654 0.948293 0.977278
444 1 0.341626 0.983347 0.844905
468 1 0.412866 0.771379 0.844563
515 1 0.253674 0.752879 0.800201
516 1 0.253674 0.752879 0.966868
587 1 0.287775 0.858396 0.803057
588 1 0.287775 0.858396 0.969724
611 1 0.46667 0.896014 0.803056
612 1 0.46667 0.896014 0.969722
731 1 0.341809 0.73312 0.7612
732 1 0.341809 0.73312 0.927867
948 1 0.376748 0.877687 0.841807
13 2 0.529799 0.181106 0.0188843
14 2 0.529799 0.181106 0.185551
37 2 0.724735 0.0735035 0.018956
38 2 0.724735 0.0735035 0.185623
109 2 0.599634 0.306052 0.0609458
110 2 0.599634 0.306052 0.227613
229 2 0.724959 0.323194 0.102125
301 2 0.599913 0.0561689 0.143759
325 2 0.654856 0.198433 0.144007
397 1 0.591997 0.233106 0.0111714
398 1 0.591997 0.233106 0.177838
421 1 0.66284 0.0211373 0.0111043
422 1 0.66284 0.0211373 0.177771
493 1 0.500554 0.00159638 0.133155
541 1 0.537427 0.108075 0.135783
565 1 0.716951 0.146392 0.136132
709 1 0.662554 0.271258 0.0946128
781 1 0.50254 0.252273 0.049912
782 1 0.50254 0.252273 0.216579
925 1 0.62869 0.126699 0.00838247
926 1 0.62869 0.126699 0.175049
85 2 0.974832 0.323291 0.0189039
86 2 0.974832 0.323291 0.185571
157 2 0.849915 0.0564688 0.0608792
158 2 0.849915 0.0564688 0.227546
181 2 0.904901 0.198491 0.0607892
182 2 0.904901 0.198491 0.227456
253 2 0.779735 0.181017 0.102279
277 2 0.974666 0.0734357 0.102401
349 2 0.849818 0.306213 0.144286
469 1 0.912866 0.271379 0.0112297
470 1 0.912866 0.271379 0.177896
517 1 0.753674 0.252879 0.133535
661 1 0.87811 0.12679 0.0916735
733 1 0.841809 0.23312 0.0945336
757 1 0.91273 0.021225 0.0948749
805 1 0.752402 0.00244354 0.050014
806 1 0.752402 0.00244354 0.216681
877 1 0.787594 0.108395 0.0528704
878 1 0.787594 0.108395 0.219537
901 1 0.966813 0.146268 0.0526038
902 1 0.966813 0.146268 0.21927
43 2 0.724735 0.573503 0.018956
44 2 0.724735 0.573503 0.185623
133 2 0.654481 0.44801 0.0604642
134 2 0.654481 0.44801 0.227131
205 2 0.529492 0.431368 0.102458
307 2 0.599913 0.556169 0.143759
427 1 0.66284 0.521137 0.0111043
428 1 0.66284 0.521137 0.177771
499 1 0.500554 0.501596 0.133155
547 1 0.537427 0.608075 0.135783
571 1 0.716951 0.646392 0.136132
637 1 0.625833 0.377839 0.0918952
685 1 0.59193 0.483158 0.0941962
829 1 0.537648 0.358188 0.0529221
830 1 0.537648 0.358188 0.219589
853 1 0.716641 0.396376 0.0529567
854 1 0.716641 0.396376 0.219623
931 1 0.62869 0.626699 0.00838247
932 1 0.62869 0.626699 0.175049
61 2 0.779535 0.431189 0.0191235
62 2 0.779535 0.431189 0.18579
163 2 0.849915 0.556469 0.0608792
164 2 0.849915 0.556469 0.227546
283 2 0.974666 0.573436 0.102401
373 2 0.904654 0.448293 0.143945
445 1 0.841626 0.483347 0.0115721
446 1 0.841626 0.483347 0.178239
589 1 0.787775 0.358396 0.136391
613 1 0.96667 0.396014 0.136389
667 1 0.87811 0.62679 0.0916735
763 1 0.91273 0.521225 0.0948749
811 1 0.752402 0.502444 0.050014
812 1 0.752402 0.502444 0.216681
883 1 0.787594 0.608395 0.0528704
884 1 0.787594 0.608395 0.219537
907 1 0.966813 0.646268 0.0526038
908 1 0.966813 0.646268 0.21927
949 1 0.876748 0.377687 0.0084733
950 1 0.876748 0.377687 0.17514
19 2 0.529799 0.681106 0.0188843
20 2 0.529799 0.681106 0.185551
115 2 0.599634 0.806052 0.0609458
116 2 0.599634 0.806052 0.227613
139 2 0.654481 0.94801 0.0604642
140 2 0.654481 0.94801 0.227131
211 2 0.529492 0.931368 0.102458
235 2 0.724959 0.823194 0.102125
331 2 0.654856 0.698433 0.144007
403 1 0.591997 0.733106 0.0111714
404 1 0.591997 0.733106 0.177838
643 1 0.625833 0.877839 0.0918952
691 1 0.59193 0.983158 0.0941962
715 1 0.662554 0.771258 0.0946128
787 1 0.50254 0.752273 0.049912
788 1 0.50254 0.752273 0.216579
835 1 0.537648 0.858188 0.0529221
836 1 0.537648 0.858188 0.219589
859 1 0.716641 0.896376 0.0529567
860 1 0.716641 0.896376 0.219623
67 2 0.779535 0.931189 0.0191235
68 2 0.779535 0.931189 0.18579
91 2 0.974832 0.823291 0.0189039
92 2 0.974832 0.823291 0.185571
187 2 0.904901 0.698491 0.0607892
188 2 0.904901 0.698491 0.227456
259 2 0.779735 0.681017 0.102279
355 2 0.849818 0.806213 0.144286
379 2 0.904654 0.948293 0.143945
451 1 0.841626 0.983347 0.0115721
452 1 0.841626 0.983347 0.178239
475 1 0.912866 0.771379 0.0112297
476 1 0.912866 0.771379 0.177896
523 1 0.753674 0.752879 0.133535
595 1 0.787775 0.858396 0.136391
619 1 0.96667 0.896014 0.136389
739 1 0.841809 0.73312 0.0945336
955 1 0.876748 0.877687 0.0084733
956 1 0.876748 0.877687 0.17514
15 2 0.529799 0.181106 0.352218
39 2 0.724735 0.0735035 0.352289
111 2 0.599634 0.306052 0.394279
230 2 0.724959 0.323194 0.268791
231 2 0.724959 0.323194 0.435458
302 2 0.599913 0.0561689 0.310425
303 2 0.599913 0.0561689 0.477092
326 2 0.654856 0.198433 0.310674
327 2 0.654856 0.198433 0.47734
399 1 0.591997 0.233106 0.344505
423 1 0.66284 0.0211373 0.344438
494 1 0.500554 0.00159638 0.299821
495 1 0.500554 0.00159638 0.466488
542 1 0.537427 0.108075 0.302449
543 1 0.537427 0.108075 0.469116
566 1 0.716951 0.146392 0.302799
567 1 0.716951 0.146392 0.469465
710 1 0.662554 0.271258 0.261279
711 1 0.662554 0.271258 0.427946
783 1 0.50254 0.252273 0.383245
927 1 0.62869 0.126699 0.341716
87 2 0.974832 0.323291 0.352237
159 2 0.849915 0.0564688 0.394213
183 2 0.904901 0.198491 0.394123
254 2 0.779735 0.181017 0.268946
255 2 0.779735 0.181017 0.435612
278 2 0.974666 0.0734357 0.269068
279 2 0.974666 0.0734357 0.435735
350 2 0.849818 0.306213 0.310953
351 2 0.849818 0.306213 0.477619
471 1 0.912866 0.271379 0.344563
518 1 0.753674 0.252879 0.300201
519 1 0.753674 0.252879 0.466868
662 1 0.87811 0.12679 0.25834
663 1 0.87811 0.12679 0.425007
734 1 0.841809 0.23312 0.2612
735 1 0.841809 0.23312 0.427867
758 1 0.91273 0.021225 0.261542
759 1 0.91273 0.021225 0.428208
807 1 0.752402 0.00244354 0.383347
879 1 0.787594 0.108395 0.386204
903 1 0.966813 0.146268 0.385937
45 2 0.724735 0.573503 0.352289
135 2 0.654481 0.44801 0.393798
206 2 0.529492 0.431368 0.269124
207 2 0.529492 0.431368 0.435791
308 2 0.599913 0.556169 0.310425
309 2 0.599913 0.556169 0.477092
429 1 0.66284 0.521137 0.344438
500 1 0.500554 0.501596 0.299821
501 1 0.500554 0.501596 0.466488
548 1 0.537427 0.608075 0.302449
549 1 0.537427 0.608075 0.469116
572 1 0.716951 0.646392 0.302799
573 1 0.716951 0.646392 0.469465
638 1 0.625833 0.377839 0.258562
639 1 0.625833 0.377839 0.425228
686 1 0.59193 0.483158 0.260863
687 1 0.59193 0.483158 0.42753
831 1 0.537648 0.358188 0.386255
855 1 0.716641 0.396376 0.38629
933 1 0.62869 0.626699 0.341716
63 2 0.779535 0.431189 0.352457
165 2 0.849915 0.556469 0.394213
284 2 0.974666 0.573436 0.269068
285 2 0.974666 0.573436 0.435735
374 2 0.904654 0.448293 0.310611
375 2 0.904654 0.448293 0.477278
447 1 0.841626 0.483347 0.344905
590 1 0.787775 0.358396 0.303057
591 1 0.787775 0.358396 0.469724
614 1 0.96667 0.396014 0.303056
615 1 0.96667 0.396014 0.469722
668 1 0.87811 0.62679 0.25834
669 1 0.87811 0.62679 0.425007
764 1 0.91273 0.521225 0.261542
765 1 0.91273 0.521225 0.428208
813 1 0.752402 0.502444 0.383347
885 1 0.787594 0.608395 0.386204
909 1 0.966813 0.646268 0.385937
951 1 0.876748 0.377687 0.341807
21 2 0.529799 0.681106 0.352218
117 2 0.599634 0.806052 0.394279
141 2 0.654481 0.94801 0.393798
212 2 0.529492 0.931368 0.269124
213 2 0.529492 0.931368 0.435791
236 2 0.724959 0.823194 0.268791
237 2 0.724959 0.823194 0.435458
332 2 0.654856 0.698433 0.310674
333 2 0.654856 0.698433 0.47734
405 1 0.591997 0.733106 0.344505
644 1 0.625833 0.877839 0.258562
645 1 0.625833 0.877839 0.425228
692 1 0.59193 0.983158 0.260863
693 1 0.59193 0.983158 0.42753
716 1 0.662554 0.771258 0.261279
717 1 0.662554 0.771258 0.427946
789 1 0.50254 0.752273 0.383245
837 1 0.537648 0.858188 0.386255
861 1 0.716641 0.896376 0.38629
69 2 0.779535 0.931189 0.352457
93 2 0.974832 0.823291 0.352237
189 2 0.904901 0.698491 0.394123
260 2 0.779735 0.681017 0.268946
261 2 0.779735 0.681017 0.435612
356 2 0.849818 0.806213 0.310953
357 2 0.849818 0.806213 0.477619
380 2 0.904654 0.948293 0.310611
381 2 0.904654 0.948293 0.477278
453 1 0.841626 0.983347 0.344905
477 1 0.912866 0.771379 0.344563
524 1 0.753674 0.752879 0.300201
525 1 0.753674 0.752879 0.466868
596 1 0.787775 0.858396 0.303057
597 1 0.787775 0.858396 0.469724
620 1 0.96667 0.896014 0.303056
621 1 0.96667 0.896014 0.469722
740 1 0.841809 0.73312 0.2612
741 1 0.841809 0.73312 0.427867
957 1 0.876748 0.877687 0.341807
16 2 0.529799 0.181106 0.518884
17 2 0.529799 0.181106 0.685551
40 2 0.724735 0.0735035 0.518956
41 2 0.724735 0.0735035 0.685623
112 2 0.599634 0.306052 0.560946
113 2 0.599634 0.306052 0.727613
232 2 0.724959 0.323194 0.602125
304 2 0.599913 0.0561689 0.643759
328 2 0.654856 0.198433 0.644007
400 1 0.591997 0.233106 0.511171
401 1 0.591997 0.233106 0.677838
424 1 0.66284 0.0211373 0.511104
425 1 0.66284 0.0211373 0.677771
496 1 0.500554 0.00159638 0.633155
544 1 0.537427 0.108075 0.635783
568 1 0.716951 0.146392 0.636132
712 1 0.662554 0.271258 0.594613
784 1 0.50254 0.252273 0.549912
785 1 0.50254 0.252273 0.716579
928 1 0.62869 0.126699 0.508382
929 1 0.62869 0.126699 0.675049
88 2 0.974832 0.323291 0.518904
89 2 0.974832 0.323291 0.685571
160 2 0.849915 0.0564688 0.560879
161 2 0.849915 0.0564688 0.727546
184 2 0.904901 0.198491 0.560789
185 2 0.904901 0.198491 0.727456
256 2 0.779735 0.181017 0.602279
280 2 0.974666 0.0734357 0.602401
352 2 0.849818 0.306213 0.644286
472 1 0.912866 0.271379 0.51123
473 1 0.912866 0.271379 0.677896
520 1 0.753674 0.252879 0.633535
664 1 0.87811 0.12679 0.591674
736 1 0.841809 0.23312 0.594534
760 1 0.91273 0.021225 0.594875
808 1 0.752402 0.00244354 0.550014
809 1 0.752402 0.00244354 0.716681
880 1 0.787594 0.108395 0.55287
881 1 0.787594 0.108395 0.719537
904 1 0.966813 0.146268 0.552604
905 1 0.966813 0.146268 0.71927
46 2 0.724735 0.573503 0.518956
47 2 0.724735 0.573503 0.685623
136 2 0.654481 0.44801 0.560464
137 2 0.654481 0.44801 0.727131
208 2 0.529492 0.431368 0.602458
310 2 0.599913 0.556169 0.643759
430 1 0.66284 0.521137 0.511104
431 1 0.66284 0.521137 0.677771
502 1 0.500554 0.501596 0.633155
550 1 0.537427 0.608075 0.635783
574 1 0.716951 0.646392 0.636132
640 1 0.625833 0.377839 0.591895
688 1 0.59193 0.483158 0.594196
832 1 0.537648 0.358188 0.552922
833 1 0.537648 0.358188 0.719589
856 1 0.716641 0.396376 0.552957
857 1 0.716641 0.396376 0.719623
934 1 0.62869 0.626699 0.508382
935 1 0.62869 0.626699 0.675049
64 2 0.779535 0.431189 0.519123
65 2 0.779535 0.431189 0.68579
166 2 0.849915 0.556469 0.560879
167 2 0.849915 0.556469 0.727546
286 2 0.974666 0.573436 0.602401
376 2 0.904654 0.448293 0.643945
448 1 0.841626 0.483347 0.511572
449 1 0.841626 0.483347 0.678239
592 1 0.787775 0.358396 0.636391
616 1 0.96667 0.396014 0.636389
670 1 0.87811 0.62679 0.591674
766 1 0.91273 0.521225 0.594875
814 1 0.752402 0.502444 0.550014
815 1 0.752402 0.502444 0.716681
886 1 0.787594 0.608395 0.55287
887 1 0.787594 0.608395 0.719537
910 1 0.966813 0.646268 0.552604
911 1 0.966813 0.646268 0.71927
952 1 0.876748 0.377687 0.508473
953 1 0.876748 0.377687 0.67514
22 2 0.529799 0.681106 0.518884
23 2 0.529799 0.681106 0.685551
118 2 0.599634 0.806052 0.560946
119 2 0.599634 0.806052 0.727613
142 2 0.654481 0.94801 0.560464
143 2 0.654481 0.94801 0.727131
214 2 0.529492 0.931368 0.602458
238 2 0.724959 0.823194 0.602125
334 2 0.654856 0.698433 0.644007
406 1 0.591997 0.733106 0.511171
407 1 0.591997 0.733106 0.677838
646 1 0.625833 0.877839 0.591895
694 1 0.59193 0.983158 0.594196
718 1 0.662554 0.771258 0.594613
790 1 0.50254 0.752273 0.549912
791 1 0.50254 0.752273 0.716579
838 1 0.537648 0.858188 0.552922
839 1 0.537648 0.858188 0.719589
862 1 0.716641 0.896376 0.552957
863 1 0.716641 0.896376 0.719623
70 2 0.779535 0.931189 0.519123
71 2 0.779535 0.931189 0.68579
94 2 0.974832 0.823291 0.518904
95 2 0.974832 0.823291 0.685571
190 2 0.904901 0.698491 0.560789
191 2 0.904901 0.698491 0.727456
262 2 0.779735 0.681017 0.602279
358 2 0.849818 0.806213 0.644286
382 2 0.904654 0.948293 0.643945
454 1 0.841626 0.983347 0.511572
455 1 0.841626 0.983347 0.678239
478 1 0.912866 0.771379 0.51123
479 1 0.912866 0.771379 0.677896
526 1 0.753674 0.752879 0.633535
598 1 0.787775 0.858396 0.636391
622 1 0.96667 0.896014 0.636389
742 1 0.841809 0.73312 0.594534
958 1 0.876748 0.877687 0.508473
959 1 0.876748 0.877687 0.67514
18 2 0.529799 0.181106 0.852218
42 2 0.724735 0.0735035 0.852289
114 2 0.599634 0.306052 0.894279
233 2 0.724959 0.323194 0.768791
234 2 0.724959 0.323194 0.935458
305 2 0.599913 0.0561689 0.810425
306 2 0.599913 0.0561689 0.977092
329 2 0.654856 0.198433 0.810674
330 2 0.654856 0.198433 0.97734
402 1 0.591997 0.233106 0.844505
426 1 0.66284 0.0211373 0.844438
497 1 0.500554 0.00159638 0.799821
498 1 0.500554 0.00159638 0.966488
545 1 0.537427 0.108075 0.802449
546 1 0.537427 0.108075 0.969116
569 1 0.716951 0.146392 0.802799
570 1 0.716951 0.146392 0.969465
713 1 0.662554 0.271258 0.761279
714 1 0.662554 0.271258 0.927946
786 1 0.50254 0.252273 0.883245
930 1 0.62869 0.126699 0.841716
90 2 0.974832 0.323291 0.852237
162 2 0.849915 0.0564688 0.894213
186 2 0.904901 0.198491 0.894123
257 2 0.779735 0.181017 0.768946
258 2 0.779735 0.181017 0.935612
281 2 0.974666 0.0734357 0.769068
282 2 0.974666 0.0734357 0.935735
353 2 0.849818 0.306213 0.810953
354 2 0.849818 0.306213 0.977619
474 1 0.912866 0.271379 0.844563
521 1 0.753674 0.252879 0.800201
522 1 0.753674 0.252879 0.966868
665 1 0.87811 0.12679 0.75834
666 1 0.87811 0.12679 0.925007
737 1 0.841809 0.23312 0.7612
738 1 0.841809 0.23312 0.927867
761 1 0.91273 0.021225 0.761542
762 1 0.91273 0.021225 0.928208
810 1 0.752402 0.00244354 0.883347
882 1 0.787594 0.108395 0.886204
906 1 0.966813 0.146268 0.885937
48 2 0.724735 0.573503 0.852289
138 2 0.654481 0.44801 0.893798
209 2 0.529492 0.431368 0.769124
210 2 0.529492 0.431368 0.935791
311 2 0.599913 0.556169 0.810425
312 2 0.599913 0.556169 0.977092
432 1 0.66284 0.521137 0.844438
503 1 0.500554 0.501596 0.799821
504 1 0.500554 0.501596 0.966488
551 1 0.537427 0.608075 0.802449
552 1 0.537427 0.608075 0.969116
575 1 0.716951 0.646392 0.802799
576 1 0.716951 0.646392 0.969465
641 1 0.625833 0.377839 0.758562
642 1 0.625833 0.377839 0.925228
689 1 0.59193 0.483158 0.760863
690 1 0.59193 0.483158 0.92753
834 1 0.537648 0.358188 0.886255
858 1 0.716641 0.396376 0.88629
936 1 0.62869 0.626699 0.841716
66 2 0.779535 0.431189 0.852457
168 2 0.849915 0.556469 0.894213
287 2 0.974666 0.573436 0.769068
288 2 0.974666 0.573436 0.935735