LAMMPS data file via write_data, version 5 Nov 2016, timestep = 10000

500 atoms
1 atom types

1.2587558416919933e+00 2.3741244158307843e+01 xlo xhi
1.2587558416919933e+00 2.3741244158307843e+01 ylo yhi
1.2587558416919933e+00 2.3741244158307843e+01 zlo zhi

Masses

1 62.5

Pair Coeffs # lj/cut

1 1.1 2.8

Atoms # full

8 0 1 0.0000000000000000e+00 1.4989436530976059e+00 5.4514116950157581e+00 1.7652005936377544e+00 0 0 0
107 0 1 0.0000000000000000e+00 3.0554573442555486e+00 2.3490242236375639e+01 4.0993652080545644e+00 0 -1 0
86 0 1 0.0000000000000000e+00 5.1179718573028570e+00 2.2394648609728480e+00 1.6141204057868603e+00 0 1 0
28 0 1 0.0000000000000000e+00 3.4921048510343962e+00 4.3492440013098248e+00 3.6958954612584063e+00 0 0 0
185 0 1 0.0000000000000000e+00 6.7572742624198296e+00 3.8694645265564822e+00 3.9455573605136540e+00 0 1 0
186 0 1 0.0000000000000000e+00 8.1339966910977850e+00 1.8826313751287409e+00 1.8831180987782723e+00 0 1 0
109 0 1 0.0000000000000000e+00 9.7953335757390487e+00 3.3675728663051303e+00 4.0395150816557823e+00 0 0 0
31 0 1 0.0000000000000000e+00 1.1775257699982788e+01 4.5725899823442386e+00 1.8536099912555699e+00 0 0 0
10 0 1 0.0000000000000000e+00 1.1152494678805050e+01 1.4532924742385456e+00 2.0064921886278890e+00 0 0 0
111 0 1 0.0000000000000000e+00 1.3112670859072711e+01 2.9620987712762772e+00 3.9950958145518727e+00 0 0 0
16 0 1 0.0000000000000000e+00 1.4891476421174392e+01 4.3418339703150384e+00 1.7466681768734722e+00 0 0 0
420 0 1 0.0000000000000000e+00 1.6224673816034350e+01 2.4617740438418765e+00 3.9492246150863655e+00 0 0 1
18 0 1 0.0000000000000000e+00 1.8023570092257067e+01 3.9624562028511892e+00 1.7281813352402833e+00 0 0 0
117 0 1 0.0000000000000000e+00 1.9356910648772320e+01 2.1829905250180830e+00 4.0119888035061884e+00 0 0 0
1 0 1 0.0000000000000000e+00 2.1163300760612028e+01 3.3783978329670012e+00 1.8937480869954952e+00 -1 0 0
101 0 1 0.0000000000000000e+00 2.2859121261696782e+01 4.2725031606250390e+00 4.5077199128751495e+00 -1 0 0
22 0 1 0.0000000000000000e+00 3.4455982479533178e+00 7.3358197133909462e+00 2.2071658825789453e+00 0 0 0
32 0 1 0.0000000000000000e+00 4.0862434855101926e+00 7.6037324542033007e+00 4.8308748121541818e+00 0 0 0
38 0 1 0.0000000000000000e+00 2.3078030255532266e+01 7.5933364136947539e+00 4.1793436930995469e+00 0 0 0
25 0 1 0.0000000000000000e+00 5.4788138418535066e+00 5.3892266706144794e+00 1.6750944207426874e+00 0 0 0
412 0 1 0.0000000000000000e+00 8.4714944833822052e+00 5.1152805722380563e+00 1.7878780099049001e+00 0 0 1
27 0 1 0.0000000000000000e+00 7.1246156448356395e+00 6.8047788661047299e+00 4.1881870325670025e+00 0 0 0
26 0 1 0.0000000000000000e+00 5.9003499741940670e+00 8.9201063521803690e+00 1.8663888499985899e+00 0 0 0
447 0 1 0.0000000000000000e+00 8.7867635293422595e+00 8.1994422667907614e+00 1.7534354176846443e+00 0 0 1
11 0 1 0.0000000000000000e+00 1.0264460693699430e+01 6.5726886640150921e+00 4.0663531636546608e+00 0 0 0
432 0 1 0.0000000000000000e+00 1.2044307952118890e+01 7.9168383971685028e+00 1.8317574833093295e+00 0 0 1
116 0 1 0.0000000000000000e+00 1.3358444724335804e+01 6.2470903601166432e+00 4.0044427126506568e+00 0 0 0
130 0 1 0.0000000000000000e+00 1.5291444152911064e+01 7.4164325040117740e+00 1.7589505161917622e+00 0 0 0
114 0 1 0.0000000000000000e+00 1.6596490620600179e+01 5.6816822959609929e+00 3.9397030453720010e+00 0 0 0
35 0 1 0.0000000000000000e+00 1.9763180202438157e+01 5.2165080422256160e+00 3.9410000570792381e+00 0 0 0
440 0 1 0.0000000000000000e+00 1.8275012612722492e+01 7.0251682885873672e+00 1.9091749359974177e+00 0 0 1
57 0 1 0.0000000000000000e+00 2.0049759710678195e+01 8.1681482450887550e+00 4.0738056294179250e+00 0 0 0
39 0 1 0.0000000000000000e+00 2.1250505898321091e+01 6.6786100943208515e+00 1.5254203659689187e+00 0 0 0
41 0 1 0.0000000000000000e+00 4.4784628476799462e+00 1.0760336800500193e+01 4.3272223830300529e+00 0 0 0
45 0 1 0.0000000000000000e+00 7.6837879443846813e+00 9.9849798716097151e+00 4.0124361766953536e+00 0 0 0
46 0 1 0.0000000000000000e+00 6.4229932937492880e+00 1.1821264783805114e+01 1.6913946766824972e+00 0 0 0
146 0 1 0.0000000000000000e+00 1.0778282861417669e+01 9.5473716673621905e+00 4.0950465682645998e+00 0 0 0
153 0 1 0.0000000000000000e+00 9.4087379584773316e+00 1.1116013025904193e+01 1.9009462176270582e+00 0 0 0
149 0 1 0.0000000000000000e+00 1.2398855430265751e+01 1.1077343158660687e+01 1.7765048845524833e+00 0 0 0
150 0 1 0.0000000000000000e+00 1.3819658595189864e+01 9.2849889114391537e+00 3.9865103824458243e+00 0 0 0
156 0 1 0.0000000000000000e+00 1.5454641445515449e+01 1.0429784810177848e+01 1.6393242965922998e+00 0 0 0
71 0 1 0.0000000000000000e+00 1.4359997555882677e+01 1.2395072275255936e+01 3.9934777681887521e+00 0 0 0
134 0 1 0.0000000000000000e+00 1.7056738469893364e+01 8.7378460639884992e+00 3.9256928901586421e+00 0 0 0
354 0 1 0.0000000000000000e+00 1.7382352717090708e+01 1.1976761405625096e+01 4.0047807272403988e+00 0 0 1
78 0 1 0.0000000000000000e+00 1.8766017213157493e+01 1.0302283029987992e+01 1.8484361128954561e+00 0 0 0
24 0 1 0.0000000000000000e+00 2.1729896887877068e+01 9.6733822967727772e+00 1.9820693631466195e+00 -1 0 0
60 0 1 0.0000000000000000e+00 2.0624635465385978e+01 1.1487806785683500e+01 4.0300115330393727e+00 0 0 0
43 0 1 0.0000000000000000e+00 1.4170648915386010e+00 1.1018572113818442e+01 4.2794433188262637e+00 0 0 0
158 0 1 0.0000000000000000e+00 1.8385905723595024e+00 1.3828989283334478e+01 4.2578778992922395e+00 1 0 0
42 0 1 0.0000000000000000e+00 5.1346948348700341e+00 1.3751721353328644e+01 4.4583524678572442e+00 0 0 0
52 0 1 0.0000000000000000e+00 8.0657337450899131e+00 1.3339713148502709e+01 4.0186463917112825e+00 0 0 0
65 0 1 0.0000000000000000e+00 6.5304241782034254e+00 1.4908251362108834e+01 1.6335758370466256e+00 0 0 0
73 0 1 0.0000000000000000e+00 1.0976492016075293e+01 1.2855421223038729e+01 3.9610321179505950e+00 0 0 0
72 0 1 0.0000000000000000e+00 9.7290130374780333e+00 1.4601229546256233e+01 1.7488398765352755e+00 0 0 0
91 0 1 0.0000000000000000e+00 1.1758810604614048e+01 1.5893009085431823e+01 3.9253080982414486e+00 0 0 0
76 0 1 0.0000000000000000e+00 1.2738514096187842e+01 1.4215660630176901e+01 1.5699982655885425e+00 0 0 0
174 0 1 0.0000000000000000e+00 1.4953545889900402e+01 1.5325284836585848e+01 4.1697560288353905e+00 0 0 0
77 0 1 0.0000000000000000e+00 1.6206921524557096e+01 1.3620154644572104e+01 1.7973892892044772e+00 0 0 0
75 0 1 0.0000000000000000e+00 1.8036409380058466e+01 1.5001197187097006e+01 4.1461788802072821e+00 0 0 0
59 0 1 0.0000000000000000e+00 1.9436712538837430e+01 1.3227388359079763e+01 1.9603267561468392e+00 0 0 0
154 0 1 0.0000000000000000e+00 2.1211013403668272e+01 1.4165021451021923e+01 4.3124676957178512e+00 0 0 0
63 0 1 0.0000000000000000e+00 2.2925750128243276e+01 1.5680914757594486e+01 2.1626896620502474e+00 -1 0 0
181 0 1 0.0000000000000000e+00 2.2727877107835059e+00 1.6988006250797845e+01 4.2668613186412010e+00 0 0 0
484 0 1 0.0000000000000000e+00 4.1233935942497553e+00 1.8477905960648126e+01 1.8762322723221270e+00 0 0 1
162 0 1 0.0000000000000000e+00 5.6044265287450736e+00 1.6670268026231078e+01 4.2204616829260910e+00 0 0 0
170 0 1 0.0000000000000000e+00 8.7546977244943704e+00 1.6683504472878653e+01 3.9804499258584705e+00 0 0 0
142 0 1 0.0000000000000000e+00 7.3423210505255270e+00 1.8183453482047643e+01 1.7439496937468595e+00 0 0 0
83 0 1 0.0000000000000000e+00 9.1375872620595011e+00 1.9760126811228453e+01 4.0901576812871383e+00 0 0 0
70 0 1 0.0000000000000000e+00 1.2304973135306387e+01 1.9129035114733171e+01 3.9629386269874525e+00 0 0 0
69 0 1 0.0000000000000000e+00 1.0494172261536573e+01 1.7646686310116518e+01 1.8910814286978317e+00 0 0 0
214 0 1 0.0000000000000000e+00 1.5462721900632815e+01 1.8629025842333682e+01 4.1246726003936542e+00 0 -1 0
471 0 1 0.0000000000000000e+00 1.3584169240615385e+01 1.7261024800453352e+01 1.7982054774459366e+00 0 0 1
475 0 1 0.0000000000000000e+00 1.6703227637294773e+01 1.6765787356505633e+01 1.9284630354618109e+00 0 0 1
197 0 1 0.0000000000000000e+00 1.8582353227175030e+01 1.8044780848644184e+01 4.1839063134393690e+00 0 0 0
74 0 1 0.0000000000000000e+00 1.9727258484505978e+01 1.6450756248998662e+01 1.7946425209546453e+00 0 0 0
490 0 1 0.0000000000000000e+00 1.7245943739393837e+01 1.9867068184387474e+01 1.9650356358141625e+00 0 0 1
161 0 1 0.0000000000000000e+00 2.3482098831995089e+01 1.9112809192634558e+01 1.9697090147606278e+00 -1 0 0
496 0 1 0.0000000000000000e+00 2.0401863903663731e+01 1.9398231669156559e+01 2.0200348137109736e+00 0 0 1
98 0 1 0.0000000000000000e+00 2.1637013386646387e+01 1.7497163258305349e+01 4.2065691276074579e+00 0 0 0
7 0 1 0.0000000000000000e+00 1.8211264820907349e+00 2.6516332758289658e+00 1.6332671127492742e+00 0 0 0
102 0 1 0.0000000000000000e+00 2.8129950697595216e+00 2.0483215163564402e+01 4.1280003331555255e+00 0 -1 0
64 0 1 0.0000000000000000e+00 5.9602328969448060e+00 1.9960989071221576e+01 3.8410436631695415e+00 0 0 0
88 0 1 0.0000000000000000e+00 6.1069958040711185e+00 2.3207318017995412e+01 4.0452991388064694e+00 0 0 0
66 0 1 0.0000000000000000e+00 7.5718436035788681e+00 2.1517135761491492e+01 1.7733014532396021e+00 0 0 0
67 0 1 0.0000000000000000e+00 9.3346920238794322e+00 2.2836474624476988e+01 4.2282001635919642e+00 0 0 0
472 0 1 0.0000000000000000e+00 1.0806331002785011e+01 2.0870729305624664e+01 1.6962385167150664e+00 0 0 1
13 0 1 0.0000000000000000e+00 1.2571113456204525e+01 2.2226797512872043e+01 3.9369145777953700e+00 0 -1 0
14 0 1 0.0000000000000000e+00 1.4408756048141813e+01 2.3631794768877317e+01 1.9147819699623518e+00 0 -1 0
94 0 1 0.0000000000000000e+00 1.5724882893933726e+01 2.1765572794343282e+01 4.0410666566422453e+00 0 0 0
491 0 1 0.0000000000000000e+00 1.3930070005351194e+01 2.0467845334784592e+01 1.7616469959519634e+00 0 0 1
500 0 1 0.0000000000000000e+00 1.7445403353369169e+01 2.3228694599128517e+01 1.8809467313247832e+00 0 0 1
100 0 1 0.0000000000000000e+00 1.8849031695596867e+01 2.1349377329950975e+01 4.3258281391388724e+00 0 0 0
2 0 1 0.0000000000000000e+00 2.2554350136077133e+01 1.2822268308263820e+00 4.1413973586810311e+00 -1 0 0
82 0 1 0.0000000000000000e+00 1.4377365226986960e+00 2.2063921700576696e+01 1.8341409256392844e+00 0 0 0
419 0 1 0.0000000000000000e+00 2.0843472206490972e+01 2.2975816313723044e+01 1.7371456943537882e+00 0 -1 1
84 0 1 0.0000000000000000e+00 2.1946719155467552e+01 2.0746733302861390e+01 4.1651356476845027e+00 -1 0 0
19 0 1 0.0000000000000000e+00 1.8928681953423898e+00 2.7197363171482594e+00 6.3784670901258744e+00 1 0 0
125 0 1 0.0000000000000000e+00 4.9363031547582352e+00 2.5175111804531314e+00 6.3481936713585334e+00 0 0 0
87 0 1 0.0000000000000000e+00 8.1320818498461218e+00 2.2158162524059928e+00 6.4099275225243604e+00 0 1 0
110 0 1 0.0000000000000000e+00 1.1672186377879827e+01 4.6865618385720964e+00 6.2655638900498785e+00 0 0 0
192 0 1 0.0000000000000000e+00 9.9936976624919343e+00 3.2865452373829749e+00 8.5606964838756596e+00 0 1 0
191 0 1 0.0000000000000000e+00 1.1226788154747540e+01 1.5717673685344744e+00 6.0888388536488831e+00 0 1 0
120 0 1 0.0000000000000000e+00 1.4858406242487666e+01 4.4034746771063702e+00 6.1833692877317148e+00 0 0 0
209 0 1 0.0000000000000000e+00 1.3268886166407720e+01 2.9889809144926991e+00 8.5113336538822431e+00 0 0 0
115 0 1 0.0000000000000000e+00 1.6277896928848435e+01 2.3009138572209444e+00 8.5162825192376914e+00 0 0 0
113 0 1 0.0000000000000000e+00 1.7966390191512595e+01 3.8968079126148312e+00 6.4385045140364570e+00 0 0 0
217 0 1 0.0000000000000000e+00 1.9283528978532548e+01 2.0122276054832202e+00 8.6277430997793232e+00 0 0 0
34 0 1 0.0000000000000000e+00 2.0750207482959929e+01 3.1868840357654333e+00 6.3468945600553344e+00 0 0 0
106 0 1 0.0000000000000000e+00 2.0165198173458911e+00 5.9405260259614598e+00 6.4364818944698410e+00 0 0 0
108 0 1 0.0000000000000000e+00 5.2449323259661664e+00 5.3866547571736545e+00 6.3044896866791591e+00 0 0 0
129 0 1 0.0000000000000000e+00 7.3464751412124301e+00 6.8213075214348748e+00 8.6446812038392444e+00 0 0 0
105 0 1 0.0000000000000000e+00 8.4604335244850084e+00 5.1512176060487533e+00 6.3978948305017216e+00 0 0 0
131 0 1 0.0000000000000000e+00 9.0300001633179114e+00 8.2252493569201910e+00 6.3128282997894258e+00 0 0 0
232 0 1 0.0000000000000000e+00 1.0419986742452471e+01 6.5191632938274626e+00 8.5356931389978961e+00 0 0 0
151 0 1 0.0000000000000000e+00 1.1971463478741567e+01 8.0484089777858010e+00 6.4463825014781149e+00 0 0 0
135 0 1 0.0000000000000000e+00 1.5068098994512148e+01 7.4277287702524779e+00 6.2595648808197373e+00 0 0 0
112 0 1 0.0000000000000000e+00 1.3618301413248590e+01 5.9422688245540822e+00 8.5076318982453643e+00 0 0 0
233 0 1 0.0000000000000000e+00 1.6467815222086664e+01 5.3567202245631158e+00 8.6636728770927345e+00 0 0 0
139 0 1 0.0000000000000000e+00 1.8337326515955908e+01 6.8135607963434159e+00 6.0557542718117308e+00 0 0 0
194 0 1 0.0000000000000000e+00 1.9590932492408189e+01 5.0220328211586214e+00 8.6971844747078961e+00 0 1 0
118 0 1 0.0000000000000000e+00 2.0245868032320672e+01 8.2339776438586227e+00 8.7070129247436014e+00 0 0 0
37 0 1 0.0000000000000000e+00 2.1400519957488374e+01 6.4191457320452452e+00 6.4688992121854572e+00 0 0 0
23 0 1 0.0000000000000000e+00 2.4009405975118137e+00 9.4764871548006635e+00 6.3434724716406228e+00 0 0 0
141 0 1 0.0000000000000000e+00 4.3724800231056493e+00 1.0441570413544518e+01 8.4899786349503579e+00 0 0 0
148 0 1 0.0000000000000000e+00 6.4808051093112748e+00 1.1899130015033315e+01 6.5938483307728966e+00 0 0 0
132 0 1 0.0000000000000000e+00 6.2727398127028531e+00 8.9200091844908087e+00 6.3996518107913722e+00 0 0 0
47 0 1 0.0000000000000000e+00 7.6581222147996808e+00 1.0138690622385289e+01 8.7217203717700773e+00 0 0 0
126 0 1 0.0000000000000000e+00 9.4323430819836478e+00 1.1438508939959753e+01 6.2948433174892848e+00 0 0 0
147 0 1 0.0000000000000000e+00 1.0881244752292067e+01 9.7855780418956009e+00 8.5726604457868305e+00 0 0 0
152 0 1 0.0000000000000000e+00 1.2389974728874186e+01 1.1130398402480946e+01 6.0199480566919332e+00 0 0 0
173 0 1 0.0000000000000000e+00 1.5608762321484482e+01 1.0441244834929345e+01 6.2691380160060142e+00 0 0 0
196 0 1 0.0000000000000000e+00 1.4232619449160557e+01 1.2539865135491121e+01 8.4133172943100991e+00 0 0 0
230 0 1 0.0000000000000000e+00 1.3872754285642785e+01 9.3763925731013664e+00 8.5062995754989892e+00 0 0 0
136 0 1 0.0000000000000000e+00 1.7224040769409129e+01 8.4327516583660227e+00 8.3245919515100955e+00 0 0 0
137 0 1 0.0000000000000000e+00 1.8684888493997306e+01 1.0166320290525828e+01 6.0433575064652754e+00 0 0 0
179 0 1 0.0000000000000000e+00 1.7356758270324693e+01 1.2012093708834840e+01 8.6252373268532487e+00 0 0 0
157 0 1 0.0000000000000000e+00 2.1876076832575183e+01 9.5224137842195766e+00 6.3660395988610734e+00 0 0 0
273 0 1 0.0000000000000000e+00 2.0369449470489194e+01 1.1340883729212024e+01 8.6174859724766044e+00 0 0 0
143 0 1 0.0000000000000000e+00 3.0359898714008313e+00 1.2299012376389829e+01 6.7018670856953060e+00 0 0 0
258 0 1 0.0000000000000000e+00 5.2054084100403859e+00 1.3614075886660279e+01 8.6909431895593698e+00 1 0 0
48 0 1 0.0000000000000000e+00 6.9889018591223051e+00 1.4962940804747285e+01 6.3158995163454792e+00 0 0 0
263 0 1 0.0000000000000000e+00 8.2201069002437173e+00 1.3242708165664498e+01 8.6099575589210211e+00 0 0 0
249 0 1 0.0000000000000000e+00 1.1121438505913423e+01 1.2917051989808041e+01 8.4174097141438260e+00 0 0 0
172 0 1 0.0000000000000000e+00 9.9407032780757767e+00 1.4549479354966083e+01 6.0611817049341088e+00 0 0 0
246 0 1 0.0000000000000000e+00 1.1848210190891960e+01 1.6033339578164139e+01 8.5807306034794451e+00 0 0 0
250 0 1 0.0000000000000000e+00 1.2968643548238399e+01 1.4081606471679065e+01 6.0905504840862461e+00 0 0 0
278 0 1 0.0000000000000000e+00 1.4823926171093774e+01 1.5649400135719997e+01 8.4975146959427086e+00 0 0 0
40 0 1 0.0000000000000000e+00 1.6149959867500812e+01 1.3507638378083447e+01 6.4338192616585372e+00 0 0 0
138 0 1 0.0000000000000000e+00 1.9140363384919439e+01 1.3252262469261350e+01 6.3490751980759770e+00 0 0 0
277 0 1 0.0000000000000000e+00 1.7964964898056934e+01 1.5123668927419100e+01 8.4250255667453438e+00 0 0 0
163 0 1 0.0000000000000000e+00 2.2403882556719996e+01 1.2529765421969952e+01 6.6094098197020736e+00 -1 0 0
99 0 1 0.0000000000000000e+00 2.2779599039205088e+01 1.5777196065402356e+01 6.3200170837720613e+00 0 0 0
140 0 1 0.0000000000000000e+00 2.1195234259931492e+01 1.4439129819467801e+01 8.7020539563386663e+00 0 0 0
68 0 1 0.0000000000000000e+00 3.9159976056552996e+00 1.5370850946054691e+01 6.4761055280626580e+00 0 0 0
166 0 1 0.0000000000000000e+00 4.0533027419131136e+00 1.8541859879757737e+01 6.5251718443176374e+00 0 0 0
168 0 1 0.0000000000000000e+00 8.7961157745839138e+00 1.6303946788741808e+01 8.4372640173206133e+00 0 0 0
165 0 1 0.0000000000000000e+00 7.1944390389120354e+00 1.8015704464970508e+01 6.3080428484884887e+00 0 0 0
262 0 1 0.0000000000000000e+00 5.5574000967207313e+00 1.6617322781612025e+01 8.5556876283262575e+00 0 0 0
266 0 1 0.0000000000000000e+00 9.1249613850505220e+00 1.9696394859834871e+01 8.4579978677430319e+00 0 0 0
269 0 1 0.0000000000000000e+00 1.0599527715121342e+01 1.7633347577309138e+01 6.3070940999435576e+00 0 0 0
270 0 1 0.0000000000000000e+00 1.2331516572687239e+01 1.9247815350665981e+01 8.2483620150524288e+00 0 0 0
176 0 1 0.0000000000000000e+00 1.3649572097660231e+01 1.7255029728231740e+01 6.2084037880538911e+00 0 0 0
291 0 1 0.0000000000000000e+00 1.5309112985100773e+01 1.8633925372853415e+01 8.4867543874921374e+00 0 0 0
293 0 1 0.0000000000000000e+00 1.6881506774168194e+01 1.6782791317902934e+01 6.3823357618855976e+00 0 0 0
80 0 1 0.0000000000000000e+00 1.9910371991839504e+01 1.6244172923292268e+01 6.4633946114503402e+00 0 0 0
164 0 1 0.0000000000000000e+00 2.3662817122309271e+01 1.9070238387462730e+01 6.6552084054194420e+00 -1 0 0
198 0 1 0.0000000000000000e+00 2.0320867775900290e+01 1.9579462117766678e+01 6.6615160769525668e+00 0 0 0
298 0 1 0.0000000000000000e+00 1.3207377942870764e+00 2.2056110908933530e+01 6.4249375664468777e+00 1 0 0
103 0 1 0.0000000000000000e+00 4.4415692446533601e+00 2.1499103930494336e+01 6.3431544330206062e+00 0 -1 0
183 0 1 0.0000000000000000e+00 2.8267061454800091e+00 2.0418465170723120e+01 8.6852614161883519e+00 0 0 0
104 0 1 0.0000000000000000e+00 3.0341995118400127e+00 2.3389090653152536e+01 8.4925215699902896e+00 0 -1 0
169 0 1 0.0000000000000000e+00 7.5984580355535360e+00 2.1265466524950241e+01 6.2035083651675196e+00 0 0 0
187 0 1 0.0000000000000000e+00 6.3772980283318024e+00 2.3267423359130959e+01 8.5012656335133716e+00 0 0 0
286 0 1 0.0000000000000000e+00 9.2984970074564686e+00 2.2828299628528729e+01 8.3844292688301643e+00 0 0 0
189 0 1 0.0000000000000000e+00 1.0895096251155291e+01 2.0978846383587708e+01 6.4370828425849957e+00 0 0 0
96 0 1 0.0000000000000000e+00 1.4501767640512060e+01 2.3654792665895787e+01 6.1319668266621639e+00 0 0 0
292 0 1 0.0000000000000000e+00 1.2869729514552962e+01 2.2420652257265512e+01 8.4107666570401101e+00 0 0 0
193 0 1 0.0000000000000000e+00 1.4023672782625125e+01 2.0512359861481919e+01 6.1560478393778633e+00 0 0 0
17 0 1 0.0000000000000000e+00 1.5742574230929938e+01 2.1831186940379776e+01 8.5347070612074063e+00 0 -1 0
190 0 1 0.0000000000000000e+00 1.7012364758137032e+01 2.0141343187158348e+01 6.3625653077727033e+00 0 0 0
200 0 1 0.0000000000000000e+00 1.7459690630714565e+01 2.3219056280398046e+01 6.2207896763449737e+00 0 0 0
199 0 1 0.0000000000000000e+00 1.9011571772199222e+01 2.1446762941149938e+01 8.5408972304891755e+00 0 0 0
182 0 1 0.0000000000000000e+00 2.0702495340591398e+01 2.2637867522849724e+01 6.2825897030811184e+00 -1 0 0
124 0 1 0.0000000000000000e+00 3.3214815955862997e+00 4.2307407984908405e+00 8.7620818275933470e+00 0 0 0
218 0 1 0.0000000000000000e+00 1.8546186818657964e+00 2.9196818632334693e+00 1.0930785821631805e+01 1 0 0
206 0 1 0.0000000000000000e+00 6.4673118371455409e+00 3.7430861165015368e+00 8.4117202664289010e+00 0 0 0
203 0 1 0.0000000000000000e+00 4.8614635737539844e+00 2.3809032689554970e+00 1.0942871786885688e+01 0 0 0
188 0 1 0.0000000000000000e+00 7.9515938017672783e+00 1.9590583105675559e+00 1.0769623364430307e+01 0 1 0
227 0 1 0.0000000000000000e+00 1.1576157586517766e+01 4.8515288082893555e+00 1.0903954428202054e+01 0 0 0
207 0 1 0.0000000000000000e+00 1.1357162621695061e+01 1.9525098024775356e+00 1.0878543542991620e+01 0 0 0
211 0 1 0.0000000000000000e+00 1.4845689184228254e+01 4.1713058355044019e+00 1.0810047586233162e+01 0 0 0
334 0 1 0.0000000000000000e+00 1.7908124474679976e+01 3.7049767212739395e+00 1.0792282797072271e+01 0 0 0
237 0 1 0.0000000000000000e+00 2.2211340291601932e+01 1.7142999133478685e+00 8.5608714808423976e+00 0 0 0
4 0 1 0.0000000000000000e+00 2.2686888115344448e+01 4.7389779105433760e+00 8.8290341143978637e+00 -1 0 0
119 0 1 0.0000000000000000e+00 2.0944830122716802e+01 3.4439050278526708e+00 1.0936535826336140e+01 0 0 0
122 0 1 0.0000000000000000e+00 4.0281563821028108e+00 7.1244697185556927e+00 8.3864602559310164e+00 0 0 0
224 0 1 0.0000000000000000e+00 2.0953922578476023e+00 6.1172784246960825e+00 1.0887616238340469e+01 0 0 0
225 0 1 0.0000000000000000e+00 5.3368055122400975e+00 5.7560745905738209e+00 1.0696904259985375e+01 0 0 0
228 0 1 0.0000000000000000e+00 8.5538667585207477e+00 5.0351043311563703e+00 1.0707692769768505e+01 0 0 0
229 0 1 0.0000000000000000e+00 1.2147208613383846e+01 8.0095912628614485e+00 1.1005647659194432e+01 0 0 0
226 0 1 0.0000000000000000e+00 9.1699236446704120e+00 8.4215420024069196e+00 1.0710760283711174e+01 0 0 0
235 0 1 0.0000000000000000e+00 1.5106684511028863e+01 7.3107967467761741e+00 1.0694775878452228e+01 0 0 0
240 0 1 0.0000000000000000e+00 1.8422422220557678e+01 6.9326265626538008e+00 1.1118168080073112e+01 0 0 0
221 0 1 0.0000000000000000e+00 2.3456937389551026e+01 8.0133609888638979e+00 8.6582851280784219e+00 -1 0 0
20 0 1 0.0000000000000000e+00 2.1542146399076447e+01 6.5339952010980724e+00 1.0879997081768257e+01 0 0 0
241 0 1 0.0000000000000000e+00 2.9485444406029870e+00 9.1499218249130418e+00 1.0949511979299682e+01 0 0 0
145 0 1 0.0000000000000000e+00 3.0702282910363135e+00 1.2329406097263998e+01 1.1251828313217180e+01 0 0 0
128 0 1 0.0000000000000000e+00 6.0673811984414350e+00 8.6590680164793863e+00 1.0901481214745123e+01 0 0 0
252 0 1 0.0000000000000000e+00 6.3204210492002968e+00 1.1719193742148599e+01 1.0833510672884630e+01 0 0 0
265 0 1 0.0000000000000000e+00 9.6429393402943067e+00 1.1571063666282537e+01 1.0804059706890449e+01 0 0 0
231 0 1 0.0000000000000000e+00 1.2591858882012419e+01 1.1225241511847404e+01 1.1146449781376667e+01 0 0 0
234 0 1 0.0000000000000000e+00 1.5725904569654814e+01 1.0394398315944638e+01 1.0763077030828143e+01 0 0 0
238 0 1 0.0000000000000000e+00 1.8935081138713002e+01 9.9998222864194606e+00 1.0762961635888784e+01 0 0 0
121 0 1 0.0000000000000000e+00 2.3705221720786742e+01 1.0893717939043107e+01 8.7602027240546221e+00 -1 0 0
123 0 1 0.0000000000000000e+00 2.1955683180163739e+01 9.4505649132609175e+00 1.0982691151753542e+01 -1 0 0
261 0 1 0.0000000000000000e+00 1.7267534911730933e+00 1.4023543340590779e+01 8.7407610988843221e+00 0 0 0
144 0 1 0.0000000000000000e+00 3.7469950052666334e+00 1.5427127707234154e+01 1.0825835973053856e+01 0 0 0
285 0 1 0.0000000000000000e+00 6.9514208603595433e+00 1.4922548437610969e+01 1.0685355570376197e+01 0 0 0
167 0 1 0.0000000000000000e+00 1.0117262672284884e+01 1.4513802145742233e+01 1.0809517146205375e+01 0 0 0
171 0 1 0.0000000000000000e+00 1.3156397374549961e+01 1.4276830780632526e+01 1.0860694763495868e+01 0 0 0
160 0 1 0.0000000000000000e+00 1.6224835039918275e+01 1.3969572777599051e+01 1.0766063997064663e+01 0 0 0
155 0 1 0.0000000000000000e+00 1.9107912861406177e+01 1.3487805435508358e+01 1.0905330121542105e+01 0 0 0
159 0 1 0.0000000000000000e+00 2.2473879751907042e+01 1.2910027766595546e+01 1.1030006488383760e+01 0 0 0
283 0 1 0.0000000000000000e+00 2.3066076349617692e+01 1.5941500486164029e+01 1.0949004853962306e+01 -1 0 0
264 0 1 0.0000000000000000e+00 2.4486213166734840e+00 1.6909233613014777e+01 8.6473478808142339e+00 0 0 0
184 0 1 0.0000000000000000e+00 4.1574057433592895e+00 1.8643493662582163e+01 1.0681264602136254e+01 0 0 0
268 0 1 0.0000000000000000e+00 7.1862589464729627e+00 1.8158631183808971e+01 1.0673227735999706e+01 0 0 0
289 0 1 0.0000000000000000e+00 1.0298881121207636e+01 1.8055035976019493e+01 1.0630754919522106e+01 0 0 0
294 0 1 0.0000000000000000e+00 1.3524555641367369e+01 1.7308682412549391e+01 1.0858575205566371e+01 0 0 0
95 0 1 0.0000000000000000e+00 1.8491380694450438e+01 1.8089111195633617e+01 8.6467799989521001e+00 0 0 0
378 0 1 0.0000000000000000e+00 1.9650454154964518e+01 1.6646398200276636e+01 1.0836795657212996e+01 0 0 0
274 0 1 0.0000000000000000e+00 1.6714271339571013e+01 1.7021255814086068e+01 1.0746103519820684e+01 0 0 0
180 0 1 0.0000000000000000e+00 2.1827832542803517e+01 1.7537236671158020e+01 8.6639195968380243e+00 0 0 0
281 0 1 0.0000000000000000e+00 2.0260710870421374e+01 1.9640860912824706e+01 1.0681668428360117e+01 -1 0 0
299 0 1 0.0000000000000000e+00 2.3529545366785783e+01 1.9014888248100178e+01 1.0789691592742498e+01 0 0 0
363 0 1 0.0000000000000000e+00 4.7379801940368473e+00 2.1775596933882358e+01 1.0687967188476339e+01 0 0 0
301 0 1 0.0000000000000000e+00 1.2911719272953393e+00 2.2241426686692865e+01 1.0861251705896649e+01 0 -1 0
282 0 1 0.0000000000000000e+00 5.9543582716536712e+00 1.9974439699141282e+01 8.4993292591386549e+00 0 0 0
288 0 1 0.0000000000000000e+00 7.7459873320398929e+00 2.1305802686491869e+01 1.0871275490728159e+01 0 0 0
290 0 1 0.0000000000000000e+00 1.0920660875384451e+01 2.1220776054626501e+01 1.0814270743576635e+01 0 0 0
272 0 1 0.0000000000000000e+00 1.3837784203959957e+01 2.0573206642291279e+01 1.0723367237845554e+01 0 0 0
390 0 1 0.0000000000000000e+00 1.4667711136499078e+01 2.3567645456859761e+01 1.0769640017340345e+01 0 0 0
394 0 1 0.0000000000000000e+00 1.7191736156175622e+01 2.0203472368997133e+01 1.0824030481062675e+01 0 0 0
210 0 1 0.0000000000000000e+00 1.7664294670849639e+01 2.3047856610157556e+01 1.1025003865253332e+01 0 -1 0
381 0 1 0.0000000000000000e+00 2.2103198496696823e+01 2.0774239058328870e+01 8.7633168205997567e+00 -1 0 0
201 0 1 0.0000000000000000e+00 2.0576545167090352e+01 2.2741034778767492e+01 1.0927251998241934e+01 -1 -1 0
321 0 1 0.0000000000000000e+00 3.5457173317663413e+00 4.3050749419456036e+00 1.3203611883177238e+01 0 0 0
324 0 1 0.0000000000000000e+00 1.7694221884931065e+00 2.8321076905150360e+00 1.5431790307090527e+01 0 0 0
304 0 1 0.0000000000000000e+00 4.8522101171062904e+00 2.1706455808408203e+00 1.5249763053979439e+01 0 0 0
204 0 1 0.0000000000000000e+00 6.8246975028813681e+00 3.7654502981925391e+00 1.3136704415256890e+01 0 0 0
305 0 1 0.0000000000000000e+00 8.1651513520460508e+00 2.2097272586016494e+00 1.5504769052072671e+01 0 0 0
202 0 1 0.0000000000000000e+00 9.9884413212921608e+00 3.5552127918997458e+00 1.3146833586056967e+01 0 0 0
307 0 1 0.0000000000000000e+00 1.1117081690542864e+01 1.6883927178416613e+00 1.5365427368510618e+01 0 0 0
306 0 1 0.0000000000000000e+00 1.1925953151196749e+01 4.9225440708583630e+00 1.5440587301176951e+01 0 0 0
333 0 1 0.0000000000000000e+00 1.2985545671986976e+01 3.0468323648869626e+00 1.3095275016493982e+01 0 0 0
340 0 1 0.0000000000000000e+00 1.4700434559029230e+01 4.0853290327665359e+00 1.5507096186290493e+01 0 0 0
213 0 1 0.0000000000000000e+00 1.6174959495120131e+01 2.5474348326594383e+00 1.3109101123975634e+01 0 0 0
314 0 1 0.0000000000000000e+00 1.9508427688674836e+01 2.1771503024703902e+00 1.3180808832743152e+01 0 0 0
335 0 1 0.0000000000000000e+00 1.7752847220010782e+01 3.9432702407254725e+00 1.5512343685691226e+01 0 0 0
239 0 1 0.0000000000000000e+00 2.2343783940547631e+01 1.6048514087954959e+00 1.3075153682470471e+01 0 0 0
318 0 1 0.0000000000000000e+00 2.1060546713454610e+01 3.3834237376342076e+00 1.5413608099955749e+01 0 0 0
337 0 1 0.0000000000000000e+00 2.2748737811746068e+01 4.7235096939094614e+00 1.3149509744144074e+01 0 0 0
243 0 1 0.0000000000000000e+00 3.9905320791796863e+00 7.2140067693494281e+00 1.3041553461722469e+01 0 0 0
322 0 1 0.0000000000000000e+00 2.0896621080757027e+00 6.1311231210256638e+00 1.5577766748265015e+01 0 0 0
127 0 1 0.0000000000000000e+00 7.2851843257713735e+00 6.7278582014272619e+00 1.3233139286096815e+01 0 0 0
222 0 1 0.0000000000000000e+00 5.2460432925096798e+00 5.5838653852125768e+00 1.5374686024938210e+01 0 0 0
208 0 1 0.0000000000000000e+00 8.5757323830156480e+00 5.2189113050461327e+00 1.5370384575055800e+01 0 0 0
245 0 1 0.0000000000000000e+00 8.8059060748296218e+00 8.2931325471531849e+00 1.5556999143216037e+01 0 0 0
251 0 1 0.0000000000000000e+00 1.0440004208814793e+01 6.7082114145369713e+00 1.3446263482598534e+01 0 0 0
332 0 1 0.0000000000000000e+00 1.2186994302468992e+01 7.9274678090968544e+00 1.5432170728341667e+01 0 0 0
326 0 1 0.0000000000000000e+00 1.3557394532836815e+01 6.2657248488808399e+00 1.3033323511265232e+01 0 0 0
355 0 1 0.0000000000000000e+00 1.5282434814776993e+01 7.4208058285462117e+00 1.5269631823657869e+01 0 0 0
216 0 1 0.0000000000000000e+00 1.6465824996273042e+01 5.6757007101068657e+00 1.3171806192481382e+01 0 0 0
336 0 1 0.0000000000000000e+00 1.9724393317088278e+01 5.2031404774315941e+00 1.3367837274505364e+01 0 0 0
212 0 1 0.0000000000000000e+00 1.7184428699317724e+01 8.8686381600108888e+00 1.3193474312541120e+01 0 0 0
279 0 1 0.0000000000000000e+00 1.8479578170540321e+01 7.2114290339665068e+00 1.5363228342433347e+01 0 0 0
353 0 1 0.0000000000000000e+00 2.0249542447754024e+01 8.2265753809846842e+00 1.3079260136465424e+01 0 0 0
259 0 1 0.0000000000000000e+00 2.3372686077166744e+01 7.7574279939152149e+00 1.3198579844740447e+01 0 0 0
458 0 1 0.0000000000000000e+00 2.1535040207341254e+01 6.3873665595606983e+00 1.5405538958186314e+01 0 0 0
339 0 1 0.0000000000000000e+00 2.6225278240979417e+00 9.1660067865690174e+00 1.5221212835744938e+01 1 0 0