LAMMPS (24 Dec 2020)
OMP_NUM_THREADS environment is not set. Defaulting to 1 thread. (src/lammps/src/comm.cpp:94)
  using 1 OpenMP thread(s) per MPI task
# created by fftool

print "Methane in TIP4P water"
Methane in TIP4P water

units real
boundary p p p

atom_style full
bond_style harmonic
angle_style harmonic
special_bonds lj/coul 0.0 0.0 0.5

read_data data.lmp
Reading data file ...
  orthogonal box = (-13.443762 -13.443762 -13.443762) to (13.443762 13.443762 13.443762)
  2 by 2 by 2 MPI processor grid
  reading atoms ...
  1085 atoms
  scanning bonds ...
  1 = max bonds/atom
  scanning angles ...
  6 = max angles/atom
  reading bonds ...
  724 bonds
  reading angles ...
  366 angles
Finding 1-2 1-3 1-4 neighbors ...
  special bond factors lj:    0        0        0.5     
  special bond factors coul:  0        0        0.5     
     4 = max # of 1-2 neighbors
     3 = max # of 1-3 neighbors
     3 = max # of 1-4 neighbors
     4 = max # of special neighbors
  special bonds CPU = 0.000 seconds
  read_data CPU = 0.008 seconds

pair_style hybrid   lj/cut/coul/long 10.0 10.0   lj/cut/tip4p/long/soft 3 4 2 2 0.125 1 0.5 10.0 10.0 10.0
pair_modify tail no
kspace_style pppm/tip4p 1.0e-4

pair_coeff    1    1  lj/cut/coul/long    0.0660   3.5000  # C4H C4H
pair_coeff    1    2  lj/cut/coul/long    0.0445   2.9580  # C4H H
pair_coeff    2    2  lj/cut/coul/long    0.0300   2.5000  # H H
pair_coeff    3    3  lj/cut/tip4p/long/soft   0.1628   3.1644  1.0  # Ow Ow
pair_coeff    3    4  lj/cut/tip4p/long/soft   0.0000   1.0000  1.0  # Ow Hw
pair_coeff    4    4  lj/cut/tip4p/long/soft   0.0000   1.0000  1.0  # Hw Hw

pair_coeff    1    3  lj/cut/tip4p/long/soft   0.1036   3.3279  1.0  # C4H Ow
pair_coeff    1    4  lj/cut/tip4p/long/soft   0.0000   1.0000  1.0  # C4H Hw
pair_coeff    2    3  lj/cut/tip4p/long/soft   0.0699   2.8126  1.0  # H Ow
pair_coeff    2    4  lj/cut/tip4p/long/soft   0.0000   1.0000  1.0  # H Hw

variable TK equal 300.0
variable PBAR equal 1.0

fix SHAKE all shake 0.0001 20 0 b 2 a 2
       0 = # of size 2 clusters
       0 = # of size 3 clusters
       0 = # of size 4 clusters
     360 = # of frozen angles
  find clusters CPU = 0.000 seconds

neighbor 2.0 bin

timestep 1.0

velocity all create ${TK} 12345
velocity all create 300 12345

thermo_style multi
thermo 5000

fix TPSTAT all npt temp ${TK} ${TK} 100 iso ${PBAR} ${PBAR} 1000
fix TPSTAT all npt temp 300 ${TK} 100 iso ${PBAR} ${PBAR} 1000
fix TPSTAT all npt temp 300 300 100 iso ${PBAR} ${PBAR} 1000
fix TPSTAT all npt temp 300 300 100 iso 1 ${PBAR} 1000
fix TPSTAT all npt temp 300 300 100 iso 1 1 1000

run 100000
PPPM initialization ...
  extracting TIP4P info from pair style
  using 12-bit tables for long-range coulomb (src/lammps/src/kspace.cpp:339)
  G vector (1/distance) = 0.27021504
  grid = 15 15 15
  stencil order = 5
  estimated absolute RMS force accuracy = 0.025872736
  estimated relative force accuracy = 7.7914976e-05
  using double precision FFTW3
  3d grid and FFT values/proc = 2744 512
Neighbor list info ...
  update every 1 steps, delay 10 steps, check yes
  max neighbors/atom: 2000, page size: 100000
  master list distance cutoff = 12.25
  ghost atom cutoff = 12.25
  binsize = 6.125, bins = 5 5 5
  3 neighbor lists, perpetual/occasional/extra = 3 0 0
  (1) pair lj/cut/coul/long, perpetual, skip from (3)
      attributes: half, newton on
      pair build: skip
      stencil: none
      bin: none
  (2) pair lj/cut/tip4p/long/soft, perpetual, skip from (3)
      attributes: half, newton on
      pair build: skip
      stencil: none
      bin: none
  (3) neighbor class addition, perpetual
      attributes: half, newton on
      pair build: half/bin/newton
      stencil: half/bin/3d/newton
      bin: standard
Per MPI rank memory allocation (min/avg/max) = 10.96 | 10.97 | 10.97 Mbytes
---------------- Step        0 ----- CPU =      0.0000 (sec) ----------------
TotEng   =       546.3302 KinEng   =       647.4319 Temp     =       300.0000 
PotEng   =      -101.1018 E_bond   =         0.0000 E_angle  =         0.1685 
E_dihed  =         0.0000 E_impro  =         0.0000 E_vdwl   =      -205.3630 
E_coul   =     29920.6270 E_long   =    -29816.5343 Press    =       788.9178 
Volume   =     19438.0383 
---------------- Step     5000 ----- CPU =     32.9972 (sec) ----------------
TotEng   =     -3249.5229 KinEng   =       677.1754 Temp     =       313.7822 
PotEng   =     -3926.6982 E_bond   =         0.4921 E_angle  =         0.6490 
E_dihed  =         0.0000 E_impro  =         0.0000 E_vdwl   =       704.6142 
E_coul   =     25384.8948 E_long   =    -30017.3484 Press    =      -566.6334 
Volume   =     11278.7440 
---------------- Step    10000 ----- CPU =     62.5781 (sec) ----------------
TotEng   =     -3276.8678 KinEng   =       662.6316 Temp     =       307.0430 
PotEng   =     -3939.4994 E_bond   =         0.6627 E_angle  =         1.0477 
E_dihed  =         0.0000 E_impro  =         0.0000 E_vdwl   =       736.4361 
E_coul   =     25339.2546 E_long   =    -30016.9004 Press    =      -584.4715 
Volume   =     11325.6159 
---------------- Step    15000 ----- CPU =     93.7426 (sec) ----------------
TotEng   =     -3311.2008 KinEng   =       658.2395 Temp     =       305.0079 
PotEng   =     -3969.4403 E_bond   =         0.7815 E_angle  =         1.1111 
E_dihed  =         0.0000 E_impro  =         0.0000 E_vdwl   =       722.0924 
E_coul   =     25325.8730 E_long   =    -30019.2983 Press    =      -749.5951 
Volume   =     11061.0213 
---------------- Step    20000 ----- CPU =    130.9096 (sec) ----------------
TotEng   =     -3254.5767 KinEng   =       642.7737 Temp     =       297.8415 
PotEng   =     -3897.3504 E_bond   =         0.6049 E_angle  =         2.7012 
E_dihed  =         0.0000 E_impro  =         0.0000 E_vdwl   =       763.3239 
E_coul   =     25350.2488 E_long   =    -30014.2292 Press    =       540.6539 
Volume   =     11192.6338 
---------------- Step    25000 ----- CPU =    182.8123 (sec) ----------------
TotEng   =     -3309.7550 KinEng   =       649.2518 Temp     =       300.8432 
PotEng   =     -3959.0067 E_bond   =         0.1166 E_angle  =         2.2399 
E_dihed  =         0.0000 E_impro  =         0.0000 E_vdwl   =       743.6953 
E_coul   =     25311.0030 E_long   =    -30016.0615 Press    =       165.9297 
Volume   =     10911.2056 
---------------- Step    30000 ----- CPU =    232.6100 (sec) ----------------
TotEng   =     -3271.1290 KinEng   =       644.3552 Temp     =       298.5743 
PotEng   =     -3915.4842 E_bond   =         1.2824 E_angle  =         1.0668 
E_dihed  =         0.0000 E_impro  =         0.0000 E_vdwl   =       736.6372 
E_coul   =     25359.6488 E_long   =    -30014.1194 Press    =       -25.2790 
Volume   =     11045.6402 
---------------- Step    35000 ----- CPU =    282.6351 (sec) ----------------
TotEng   =     -3358.2879 KinEng   =       646.9602 Temp     =       299.7814 
PotEng   =     -4005.2481 E_bond   =         1.4396 E_angle  =         0.6800 
E_dihed  =         0.0000 E_impro  =         0.0000 E_vdwl   =       723.9181 
E_coul   =     25283.7560 E_long   =    -30015.0418 Press    =      -825.9387 
Volume   =     11062.9820 
---------------- Step    40000 ----- CPU =    332.7203 (sec) ----------------
TotEng   =     -3358.7363 KinEng   =       641.3884 Temp     =       297.1996 
PotEng   =     -4000.1248 E_bond   =         0.1362 E_angle  =         1.2822 
E_dihed  =         0.0000 E_impro  =         0.0000 E_vdwl   =       780.3240 
E_coul   =     25232.5610 E_long   =    -30014.4281 Press    =       377.1957 
Volume   =     10863.9606 
---------------- Step    45000 ----- CPU =    384.2632 (sec) ----------------
TotEng   =     -3253.3446 KinEng   =       680.1977 Temp     =       315.1826 
PotEng   =     -3933.5423 E_bond   =         0.3584 E_angle  =         1.1126 
E_dihed  =         0.0000 E_impro  =         0.0000 E_vdwl   =       738.0135 
E_coul   =     25342.2382 E_long   =    -30015.2650 Press    =       384.5640 
Volume   =     10794.9551 
---------------- Step    50000 ----- CPU =    434.9909 (sec) ----------------
TotEng   =     -3306.0628 KinEng   =       668.4442 Temp     =       309.7364 
PotEng   =     -3974.5070 E_bond   =         0.1831 E_angle  =         1.0466 
E_dihed  =         0.0000 E_impro  =         0.0000 E_vdwl   =       739.2109 
E_coul   =     25302.2909 E_long   =    -30017.2385 Press    =       393.7984 
Volume   =     10721.0608 
---------------- Step    55000 ----- CPU =    485.7898 (sec) ----------------
TotEng   =     -3287.6409 KinEng   =       651.3451 Temp     =       301.8133 
PotEng   =     -3938.9861 E_bond   =         0.4086 E_angle  =         1.1786 
E_dihed  =         0.0000 E_impro  =         0.0000 E_vdwl   =       690.9002 
E_coul   =     25383.3694 E_long   =    -30014.8429 Press    =      -979.9206 
Volume   =     11094.4863 
---------------- Step    60000 ----- CPU =    535.6847 (sec) ----------------
TotEng   =     -3250.9162 KinEng   =       655.2141 Temp     =       303.6060 
PotEng   =     -3906.1303 E_bond   =         0.8848 E_angle  =         1.9456 
E_dihed  =         0.0000 E_impro  =         0.0000 E_vdwl   =       706.9929 
E_coul   =     25398.8259 E_long   =    -30014.7796 Press    =      -708.2780 
Volume   =     11216.3172 
---------------- Step    65000 ----- CPU =    587.4826 (sec) ----------------
TotEng   =     -3318.2283 KinEng   =       622.1905 Temp     =       288.3039 
PotEng   =     -3940.4188 E_bond   =         0.4604 E_angle  =         0.9267 
E_dihed  =         0.0000 E_impro  =         0.0000 E_vdwl   =       721.9024 
E_coul   =     25350.8128 E_long   =    -30014.5212 Press    =      -436.9603 
Volume   =     11001.0061 
---------------- Step    70000 ----- CPU =    639.0890 (sec) ----------------
TotEng   =     -3289.6806 KinEng   =       661.9884 Temp     =       306.7450 
PotEng   =     -3951.6690 E_bond   =         1.7859 E_angle  =         1.5718 
E_dihed  =         0.0000 E_impro  =         0.0000 E_vdwl   =       733.5478 
E_coul   =     25327.6383 E_long   =    -30016.2129 Press    =      -350.3347 
Volume   =     11051.2214 
---------------- Step    75000 ----- CPU =    689.0632 (sec) ----------------
TotEng   =     -3312.1374 KinEng   =       651.7605 Temp     =       302.0057 
PotEng   =     -3963.8979 E_bond   =         0.3076 E_angle  =         1.8688 
E_dihed  =         0.0000 E_impro  =         0.0000 E_vdwl   =       804.7034 
E_coul   =     25243.6581 E_long   =    -30014.4359 Press    =      1282.6902 
Volume   =     10948.8077 
---------------- Step    80000 ----- CPU =    740.1064 (sec) ----------------
TotEng   =     -3317.0612 KinEng   =       649.1331 Temp     =       300.7883 
PotEng   =     -3966.1944 E_bond   =         0.2876 E_angle  =         0.7633 
E_dihed  =         0.0000 E_impro  =         0.0000 E_vdwl   =       761.4099 
E_coul   =     25286.7966 E_long   =    -30015.4518 Press    =       427.2626 
Volume   =     10921.5608 
---------------- Step    85000 ----- CPU =    790.8451 (sec) ----------------
TotEng   =     -3309.6810 KinEng   =       644.4863 Temp     =       298.6351 
PotEng   =     -3954.1672 E_bond   =         0.7701 E_angle  =         2.0585 
E_dihed  =         0.0000 E_impro  =         0.0000 E_vdwl   =       780.2228 
E_coul   =     25278.8383 E_long   =    -30016.0570 Press    =       768.7683 
Volume   =     11045.4796 
---------------- Step    90000 ----- CPU =    842.2539 (sec) ----------------
TotEng   =     -3337.9398 KinEng   =       648.7464 Temp     =       300.6091 
PotEng   =     -3986.6863 E_bond   =         0.2227 E_angle  =         0.7413 
E_dihed  =         0.0000 E_impro  =         0.0000 E_vdwl   =       718.1124 
E_coul   =     25308.1384 E_long   =    -30013.9010 Press    =      -298.2057 
Volume   =     10769.7743 
---------------- Step    95000 ----- CPU =    893.9108 (sec) ----------------
TotEng   =     -3298.7314 KinEng   =       626.7861 Temp     =       290.4333 
PotEng   =     -3925.5174 E_bond   =         0.7661 E_angle  =         0.7939 
E_dihed  =         0.0000 E_impro  =         0.0000 E_vdwl   =       710.7105 
E_coul   =     25378.1814 E_long   =    -30015.9692 Press    =      -676.3619 
Volume   =     11083.1200 
---------------- Step   100000 ----- CPU =    945.4293 (sec) ----------------
TotEng   =     -3238.7176 KinEng   =       666.3859 Temp     =       308.7827 
PotEng   =     -3905.1035 E_bond   =         0.3554 E_angle  =         1.3855 
E_dihed  =         0.0000 E_impro  =         0.0000 E_vdwl   =       687.1995 
E_coul   =     25420.5059 E_long   =    -30014.5498 Press    =     -1073.6795 
Volume   =     11215.5371 
Loop time of 945.429 on 8 procs for 100000 steps with 1085 atoms

Performance: 9.139 ns/day, 2.626 hours/ns, 105.772 timesteps/s
97.9% CPU use with 8 MPI tasks x 1 OpenMP threads

MPI task timing breakdown:
Section |  min time  |  avg time  |  max time  |%varavg| %total
---------------------------------------------------------------
Pair    | 612.43     | 698.39     | 772.18     | 197.5 | 73.87
Bond    | 0.087151   | 0.12611    | 0.24481    |  13.6 |  0.01
Kspace  | 84.674     | 158.52     | 244.46     | 414.5 | 16.77
Neigh   | 15.389     | 15.392     | 15.394     |   0.0 |  1.63
Comm    | 25.481     | 26.431     | 30.092     |  27.7 |  2.80
Output  | 0.0012425  | 0.0013203  | 0.0017699  |   0.5 |  0.00
Modify  | 31.116     | 41.764     | 43.712     |  62.5 |  4.42
Other   |            | 4.808      |            |       |  0.51

Nlocal:        135.625 ave         149 max         118 min
Histogram: 1 0 1 1 0 0 2 1 0 2
Nghost:        4275.88 ave        4299 max        4254 min
Histogram: 1 0 1 2 1 0 1 0 1 1
Neighs:        1.25000 ave          10 max           0 min
Histogram: 7 0 0 0 0 0 0 0 0 1

Total # of neighbors = 10
Ave neighs/atom = 0.0092165899
Ave special neighs/atom = 2.0092166
Neighbor list builds = 4038
Dangerous builds = 1

reset_timestep 0

variable lambda equal ramp(1.0,0.0)
variable q1 equal -0.24*v_lambda
variable q2 equal  0.06*v_lambda

fix ADAPT all adapt/fep 100000   pair lj/cut/tip4p/long/soft lambda 1*2 3*4 v_lambda   atom charge 1 v_q1   atom charge 2 v_q2   after yes

fix PRINT all print 100000 "adapt  lambda = ${lambda}  q1 = ${q1}  q2 = ${q2}"

variable dlambda equal -0.002
variable dq1 equal -0.24*v_dlambda
variable dq2 equal  0.06*v_dlambda

compute FEP all fep ${TK}   pair lj/cut/tip4p/long/soft lambda 1*2 3*4 v_dlambda   atom charge 1 v_dq1   atom charge 2 v_dq2
compute FEP all fep 300   pair lj/cut/tip4p/long/soft lambda 1*2 3*4 v_dlambda   atom charge 1 v_dq1   atom charge 2 v_dq2

fix FEP all ave/time 20 4000 100000 c_FEP[1] c_FEP[2] file fdti10.fep

dump TRAJ all custom 20000 dump.lammpstrj id mol type element x y z ix iy iz
dump_modify TRAJ element C H O H

run 2000000
PPPM initialization ...
  extracting TIP4P info from pair style
  using 12-bit tables for long-range coulomb (src/lammps/src/kspace.cpp:339)
  G vector (1/distance) = 0.28510443
  grid = 15 15 15
  stencil order = 5
  estimated absolute RMS force accuracy = 0.014893999
  estimated relative force accuracy = 4.4852836e-05
  using double precision FFTW3
  3d grid and FFT values/proc = 2744 512
FEP settings ...
  temperature = 300.000000
  tail no
  lj/cut/tip4p/long/soft lambda 1-2 3-4
  1-1 charge
  2-2 charge
Neighbor list info ...
  update every 1 steps, delay 10 steps, check yes
  max neighbors/atom: 2000, page size: 100000
  master list distance cutoff = 12.25
  ghost atom cutoff = 12.25
  binsize = 6.125, bins = 4 4 4
  3 neighbor lists, perpetual/occasional/extra = 3 0 0
  (1) pair lj/cut/coul/long, perpetual, skip from (3)
      attributes: half, newton on
      pair build: skip
      stencil: none
      bin: none
  (2) pair lj/cut/tip4p/long/soft, perpetual, skip from (3)
      attributes: half, newton on
      pair build: skip
      stencil: none
      bin: none
  (3) neighbor class addition, perpetual
      attributes: half, newton on
      pair build: half/bin/newton
      stencil: half/bin/3d/newton
      bin: standard
adapt  lambda = 1  q1 = -0.24  q2 = 0.06
Per MPI rank memory allocation (min/avg/max) = 12.26 | 12.27 | 12.28 Mbytes
---------------- Step        0 ----- CPU =      0.0000 (sec) ----------------
TotEng   =     -3238.4288 KinEng   =       666.3859 Temp     =       308.7827 
PotEng   =     -3904.8147 E_bond   =         0.3554 E_angle  =         1.3855 
E_dihed  =         0.0000 E_impro  =         0.0000 E_vdwl   =       687.1995 
E_coul   =     27072.5337 E_long   =    -31666.2888 Press    =      -887.2683 
Volume   =     11215.5371 
---------------- Step     5000 ----- CPU =     51.2159 (sec) ----------------
TotEng   =     -3335.8167 KinEng   =       649.2422 Temp     =       300.8388 
PotEng   =     -3985.0589 E_bond   =         0.3227 E_angle  =         0.5748 
E_dihed  =         0.0000 E_impro  =         0.0000 E_vdwl   =       821.7935 
E_coul   =     26860.9449 E_long   =    -31668.6949 Press    =      1541.9346 
Volume   =     10821.0717 
---------------- Step    10000 ----- CPU =    103.8712 (sec) ----------------
TotEng   =     -3303.6452 KinEng   =       639.0660 Temp     =       296.1235 
PotEng   =     -3942.7113 E_bond   =         0.0996 E_angle  =         0.7205 
E_dihed  =         0.0000 E_impro  =         0.0000 E_vdwl   =       719.1501 
E_coul   =     27002.5192 E_long   =    -31665.2006 Press    =       -70.9028 
Volume   =     10716.2503 
---------------- Step    15000 ----- CPU =    157.0348 (sec) ----------------
TotEng   =     -3270.1086 KinEng   =       643.5091 Temp     =       298.1823 
PotEng   =     -3913.6177 E_bond   =         0.2313 E_angle  =         0.4289 
E_dihed  =         0.0000 E_impro  =         0.0000 E_vdwl   =       802.6937 
E_coul   =     26949.0361 E_long   =    -31666.0078 Press    =      1884.1863 
Volume   =     10850.7373 
---------------- Step    20000 ----- CPU =    209.6758 (sec) ----------------
TotEng   =     -3264.5064 KinEng   =       660.0630 Temp     =       305.8528 
PotEng   =     -3924.5694 E_bond   =         0.2620 E_angle  =         1.2314 
E_dihed  =         0.0000 E_impro  =         0.0000 E_vdwl   =       721.4062 
E_coul   =     27018.3588 E_long   =    -31665.8278 Press    =        31.8180 
Volume   =     10825.1112 
---------------- Step    25000 ----- CPU =    265.2904 (sec) ----------------
TotEng   =     -3317.2013 KinEng   =       630.1309 Temp     =       291.9833 
PotEng   =     -3947.3322 E_bond   =         0.3116 E_angle  =         0.7358 
E_dihed  =         0.0000 E_impro  =         0.0000 E_vdwl   =       749.7086 
E_coul   =     26971.0424 E_long   =    -31669.1306 Press    =       652.9826 
Volume   =     10918.1309 
---------------- Step    30000 ----- CPU =    321.4398 (sec) ----------------
TotEng   =     -3351.4168 KinEng   =       596.0266 Temp     =       276.1803 
PotEng   =     -3947.4434 E_bond   =         0.1118 E_angle  =         1.9620 
E_dihed  =         0.0000 E_impro  =         0.0000 E_vdwl   =       760.8243 
E_coul   =     26955.7253 E_long   =    -31666.0668 Press    =       498.7268 
Volume   =     10888.8544 
---------------- Step    35000 ----- CPU =    377.0210 (sec) ----------------
TotEng   =     -3371.1959 KinEng   =       633.2481 Temp     =       293.4276 
PotEng   =     -4004.4440 E_bond   =         0.2437 E_angle  =         1.0526 
E_dihed  =         0.0000 E_impro  =         0.0000 E_vdwl   =       725.4139 
E_coul   =     26936.8692 E_long   =    -31668.0235 Press    =      -878.4471 
Volume   =     10942.5746 
---------------- Step    40000 ----- CPU =    432.2822 (sec) ----------------
TotEng   =     -3300.4340 KinEng   =       671.7197 Temp     =       311.2542 
PotEng   =     -3972.1537 E_bond   =         0.2126 E_angle  =         1.1020 
E_dihed  =         0.0000 E_impro  =         0.0000 E_vdwl   =       733.4450 
E_coul   =     26961.1040 E_long   =    -31668.0174 Press    =       251.6735 
Volume   =     10708.4416 
---------------- Step    45000 ----- CPU =    488.0567 (sec) ----------------
TotEng   =     -3268.6017 KinEng   =       643.7041 Temp     =       298.2726 
PotEng   =     -3912.3057 E_bond   =         1.0686 E_angle  =         0.6610 
E_dihed  =         0.0000 E_impro  =         0.0000 E_vdwl   =       708.7519 
E_coul   =     27045.4383 E_long   =    -31668.2256 Press    =       -92.2244 
Volume   =     10836.8968 
---------------- Step    50000 ----- CPU =    543.5250 (sec) ----------------
TotEng   =     -3300.3278 KinEng   =       661.0551 Temp     =       306.3125 
PotEng   =     -3961.3829 E_bond   =         0.1381 E_angle  =         2.3022 
E_dihed  =         0.0000 E_impro  =         0.0000 E_vdwl   =       748.2770 
E_coul   =     26955.5459 E_long   =    -31667.6461 Press    =       632.0050 
Volume   =     10782.1259 
---------------- Step    55000 ----- CPU =    597.8180 (sec) ----------------
TotEng   =     -3379.3367 KinEng   =       628.5280 Temp     =       291.2405 
PotEng   =     -4007.8647 E_bond   =         0.3564 E_angle  =         1.8735 
E_dihed  =         0.0000 E_impro  =         0.0000 E_vdwl   =       787.5455 
E_coul   =     26871.2171 E_long   =    -31668.8573 Press    =       685.6225 
Volume   =     10896.4239 
---------------- Step    60000 ----- CPU =    651.8601 (sec) ----------------
TotEng   =     -3364.7945 KinEng   =       617.5017 Temp     =       286.1312 
PotEng   =     -3982.2962 E_bond   =         2.1694 E_angle  =         2.0545 
E_dihed  =         0.0000 E_impro  =         0.0000 E_vdwl   =       786.2177 
E_coul   =     26895.9607 E_long   =    -31668.6986 Press    =       787.1075 
Volume   =     10971.5820 
---------------- Step    65000 ----- CPU =    707.5543 (sec) ----------------
TotEng   =     -3322.5163 KinEng   =       608.8047 Temp     =       282.1013 
PotEng   =     -3931.3210 E_bond   =         1.0937 E_angle  =         0.7497 
E_dihed  =         0.0000 E_impro  =         0.0000 E_vdwl   =       771.2853 
E_coul   =     26960.4096 E_long   =    -31664.8593 Press    =       752.8217 
Volume   =     10866.3010 
---------------- Step    70000 ----- CPU =    762.4834 (sec) ----------------
TotEng   =     -3340.7276 KinEng   =       638.4137 Temp     =       295.8212 
PotEng   =     -3979.1413 E_bond   =         1.1463 E_angle  =         1.6793 
E_dihed  =         0.0000 E_impro  =         0.0000 E_vdwl   =       740.5208 
E_coul   =     26944.6029 E_long   =    -31667.0905 Press    =      -957.3639 
Volume   =     11408.6910 
---------------- Step    75000 ----- CPU =    817.8134 (sec) ----------------
TotEng   =     -3333.9967 KinEng   =       651.2292 Temp     =       301.7595 
PotEng   =     -3985.2259 E_bond   =         0.8435 E_angle  =         3.3756 
E_dihed  =         0.0000 E_impro  =         0.0000 E_vdwl   =       752.4684 
E_coul   =     26926.7778 E_long   =    -31668.6914 Press    =       165.6328 
Volume   =     10862.8700 
---------------- Step    80000 ----- CPU =    873.5054 (sec) ----------------
TotEng   =     -3356.4197 KinEng   =       620.3760 Temp     =       287.4631 
PotEng   =     -3976.7957 E_bond   =         1.5321 E_angle  =         0.5394 
E_dihed  =         0.0000 E_impro  =         0.0000 E_vdwl   =       736.2256 
E_coul   =     26949.7390 E_long   =    -31664.8318 Press    =      -567.7401 
Volume   =     11141.4486 
---------------- Step    85000 ----- CPU =    929.0921 (sec) ----------------
TotEng   =     -3280.6313 KinEng   =       655.3744 Temp     =       303.6803 
PotEng   =     -3936.0057 E_bond   =         1.1022 E_angle  =         3.2255 
E_dihed  =         0.0000 E_impro  =         0.0000 E_vdwl   =       695.8263 
E_coul   =     27032.6604 E_long   =    -31668.8201 Press    =     -1290.2168 
Volume   =     11170.1613 
---------------- Step    90000 ----- CPU =    984.0665 (sec) ----------------
TotEng   =     -3312.2252 KinEng   =       642.0373 Temp     =       297.5003 
PotEng   =     -3954.2625 E_bond   =         1.6095 E_angle  =         1.2538 
E_dihed  =         0.0000 E_impro  =         0.0000 E_vdwl   =       757.2828 
E_coul   =     26951.1656 E_long   =    -31665.5742 Press    =       312.9361 
Volume   =     10916.6185 
---------------- Step    95000 ----- CPU =   1038.9651 (sec) ----------------
TotEng   =     -3321.7822 KinEng   =       634.7187 Temp     =       294.1091 
PotEng   =     -3956.5009 E_bond   =         1.3923 E_angle  =         1.3670 
E_dihed  =         0.0000 E_impro  =         0.0000 E_vdwl   =       704.9508 
E_coul   =     27005.1455 E_long   =    -31669.3564 Press    =      -768.1237 
Volume   =     11123.6582 
adapt  lambda = 0.95  q1 = -0.228  q2 = 0.057
---------------- Step   100000 ----- CPU =   1094.0497 (sec) ----------------
TotEng   =     -3242.7723 KinEng   =       657.4354 Temp     =       304.6353 
PotEng   =     -3900.2077 E_bond   =         0.4630 E_angle  =         0.8479 
E_dihed  =         0.0000 E_impro  =         0.0000 E_vdwl   =       684.8003 
E_coul   =     27081.8195 E_long   =    -31668.1384 Press    =      -318.8299 
Volume   =     10871.5900 
---------------- Step   105000 ----- CPU =   1146.3711 (sec) ----------------
TotEng   =     -3295.7549 KinEng   =       663.2122 Temp     =       307.3121 
PotEng   =     -3958.9672 E_bond   =         1.1863 E_angle  =         1.5790 
E_dihed  =         0.0000 E_impro  =         0.0000 E_vdwl   =       656.3895 
E_coul   =     27052.0860 E_long   =    -31670.2078 Press    =     -1576.9773 
Volume   =     11037.5010 
---------------- Step   110000 ----- CPU =   1197.0431 (sec) ----------------
TotEng   =     -3287.0193 KinEng   =       649.1851 Temp     =       300.8123 
PotEng   =     -3936.2044 E_bond   =         1.0215 E_angle  =         2.8465 
E_dihed  =         0.0000 E_impro  =         0.0000 E_vdwl   =       691.5450 
E_coul   =     27037.5336 E_long   =    -31669.1510 Press    =     -1464.0354 
Volume   =     11321.6192 
---------------- Step   115000 ----- CPU =   1247.7716 (sec) ----------------
TotEng   =     -3311.5134 KinEng   =       658.6436 Temp     =       305.1952 
PotEng   =     -3970.1571 E_bond   =         0.6856 E_angle  =         0.7784 
E_dihed  =         0.0000 E_impro  =         0.0000 E_vdwl   =       717.2799 
E_coul   =     26978.7782 E_long   =    -31667.6790 Press    =      -852.6587 
Volume   =     11193.3207 
---------------- Step   120000 ----- CPU =   1299.1734 (sec) ----------------
TotEng   =     -3353.8475 KinEng   =       638.8277 Temp     =       296.0131 
PotEng   =     -3992.6751 E_bond   =         0.3809 E_angle  =         1.9922 
E_dihed  =         0.0000 E_impro  =         0.0000 E_vdwl   =       772.4726 
E_coul   =     26898.9044 E_long   =    -31666.4253 Press    =       192.2667 
Volume   =     10968.1679 
---------------- Step   125000 ----- CPU =   1355.2034 (sec) ----------------
TotEng   =     -3311.2379 KinEng   =       640.6164 Temp     =       296.8419 
PotEng   =     -3951.8543 E_bond   =         0.8675 E_angle  =         3.1351 
E_dihed  =         0.0000 E_impro  =         0.0000 E_vdwl   =       759.0879 
E_coul   =     26949.5552 E_long   =    -31664.5000 Press    =       465.9414 
Volume   =     11047.7837 
---------------- Step   130000 ----- CPU =   1410.9162 (sec) ----------------
TotEng   =     -3275.3458 KinEng   =       669.7630 Temp     =       310.3475 
PotEng   =     -3945.1088 E_bond   =         0.6802 E_angle  =         1.5983 
E_dihed  =         0.0000 E_impro  =         0.0000 E_vdwl   =       707.3980 
E_coul   =     27011.9268 E_long   =    -31666.7121 Press    =      -716.1341 
Volume   =     11047.4197 
---------------- Step   135000 ----- CPU =   1467.2279 (sec) ----------------
TotEng   =     -3243.0579 KinEng   =       655.5438 Temp     =       303.7588 
PotEng   =     -3898.6017 E_bond   =         0.5433 E_angle  =         0.9613 
E_dihed  =         0.0000 E_impro  =         0.0000 E_vdwl   =       747.2150 
E_coul   =     27019.3814 E_long   =    -31666.7027 Press    =       403.1722 
Volume   =     11203.9914 
---------------- Step   140000 ----- CPU =   1523.6375 (sec) ----------------
TotEng   =     -3350.4879 KinEng   =       672.8658 Temp     =       311.7853 
PotEng   =     -4023.3537 E_bond   =         0.3629 E_angle  =         1.3447 
E_dihed  =         0.0000 E_impro  =         0.0000 E_vdwl   =       758.3335 
E_coul   =     26887.5768 E_long   =    -31670.9716 Press    =       210.7947 
Volume   =     10743.4321 
---------------- Step   145000 ----- CPU =   1579.3423 (sec) ----------------
TotEng   =     -3343.6416 KinEng   =       612.8459 Temp     =       283.9739 
PotEng   =     -3956.4875 E_bond   =         0.6743 E_angle  =         1.6793 
E_dihed  =         0.0000 E_impro  =         0.0000 E_vdwl   =       827.4844 
E_coul   =     26882.7734 E_long   =    -31669.0988 Press    =      1441.0026 
Volume   =     11083.5728 
---------------- Step   150000 ----- CPU =   1633.6164 (sec) ----------------
TotEng   =     -3280.2900 KinEng   =       694.6386 Temp     =       321.8741 
PotEng   =     -3974.9287 E_bond   =         0.5583 E_angle  =         1.5379 
E_dihed  =         0.0000 E_impro  =         0.0000 E_vdwl   =       743.5503 
E_coul   =     26947.4837 E_long   =    -31668.0588 Press    =       274.4745 
Volume   =     10880.5380 
---------------- Step   155000 ----- CPU =   1690.0036 (sec) ----------------
TotEng   =     -3324.7883 KinEng   =       647.3400 Temp     =       299.9574 
PotEng   =     -3972.1283 E_bond   =         0.8767 E_angle  =         1.4087 
E_dihed  =         0.0000 E_impro  =         0.0000 E_vdwl   =       749.6817 
E_coul   =     26941.2329 E_long   =    -31665.3283 Press    =       323.3037 
Volume   =     10675.7932 
---------------- Step   160000 ----- CPU =   1746.9902 (sec) ----------------
TotEng   =     -3299.2891 KinEng   =       661.0284 Temp     =       306.3002 
PotEng   =     -3960.3174 E_bond   =         0.8343 E_angle  =         1.2199 
E_dihed  =         0.0000 E_impro  =         0.0000 E_vdwl   =       776.6775 
E_coul   =     26930.0222 E_long   =    -31669.0713 Press    =      1204.0623 
Volume   =     10697.8634 
---------------- Step   165000 ----- CPU =   1803.3718 (sec) ----------------
TotEng   =     -3321.3987 KinEng   =       653.4194 Temp     =       302.7744 
PotEng   =     -3974.8181 E_bond   =         0.5055 E_angle  =         0.6169 
E_dihed  =         0.0000 E_impro  =         0.0000 E_vdwl   =       788.6164 
E_coul   =     26904.2502 E_long   =    -31668.8070 Press    =       849.2124 
Volume   =     10904.9624 
---------------- Step   170000 ----- CPU =   1858.6677 (sec) ----------------
TotEng   =     -3331.1358 KinEng   =       647.9590 Temp     =       300.2442 
PotEng   =     -3979.0948 E_bond   =         0.9918 E_angle  =         2.2343 
E_dihed  =         0.0000 E_impro  =         0.0000 E_vdwl   =       697.8852 
E_coul   =     26988.0707 E_long   =    -31668.2767 Press    =     -1267.3062 
Volume   =     11049.4308 
---------------- Step   175000 ----- CPU =   1914.1124 (sec) ----------------
TotEng   =     -3369.4098 KinEng   =       641.2188 Temp     =       297.1210 
PotEng   =     -4010.6286 E_bond   =         0.5064 E_angle  =         2.1078 
E_dihed  =         0.0000 E_impro  =         0.0000 E_vdwl   =       786.5051 
E_coul   =     26867.1641 E_long   =    -31666.9120 Press    =        38.8437 
Volume   =     11148.5273 
---------------- Step   180000 ----- CPU =   1969.4189 (sec) ----------------
TotEng   =     -3334.4336 KinEng   =       643.4136 Temp     =       298.1380 
PotEng   =     -3977.8473 E_bond   =         0.1585 E_angle  =         1.9893 
E_dihed  =         0.0000 E_impro  =         0.0000 E_vdwl   =       752.4203 
E_coul   =     26936.0305 E_long   =    -31668.4459 Press    =      -125.1326 
Volume   =     11116.3214 
---------------- Step   185000 ----- CPU =   2025.6076 (sec) ----------------
TotEng   =     -3303.5669 KinEng   =       650.7552 Temp     =       301.5399 
PotEng   =     -3954.3221 E_bond   =         0.4152 E_angle  =         1.5748 
E_dihed  =         0.0000 E_impro  =         0.0000 E_vdwl   =       748.3623 
E_coul   =     26960.7817 E_long   =    -31665.4561 Press    =         6.1221 
Volume   =     11102.5217 
---------------- Step   190000 ----- CPU =   2081.5627 (sec) ----------------
TotEng   =     -3360.8678 KinEng   =       640.2984 Temp     =       296.6945 
PotEng   =     -4001.1662 E_bond   =         0.3345 E_angle  =         1.8199 
E_dihed  =         0.0000 E_impro  =         0.0000 E_vdwl   =       757.6720 
E_coul   =     26908.4798 E_long   =    -31669.4725 Press    =       357.1182 
Volume   =     10806.9274 
---------------- Step   195000 ----- CPU =   2135.7414 (sec) ----------------
TotEng   =     -3329.7702 KinEng   =       618.1422 Temp     =       286.4280 
PotEng   =     -3947.9124 E_bond   =         0.2600 E_angle  =         1.4125 
E_dihed  =         0.0000 E_impro  =         0.0000 E_vdwl   =       784.2150 
E_coul   =     26931.6292 E_long   =    -31665.4292 Press    =       745.3542 
Volume   =     10920.4477 
adapt  lambda = 0.9  q1 = -0.216  q2 = 0.054
---------------- Step   200000 ----- CPU =   2189.7051 (sec) ----------------
TotEng   =     -3242.9155 KinEng   =       648.7907 Temp     =       300.6296 
PotEng   =     -3891.7062 E_bond   =         0.5748 E_angle  =         0.8721 
E_dihed  =         0.0000 E_impro  =         0.0000 E_vdwl   =       694.6283 
E_coul   =     27081.1865 E_long   =    -31668.9679 Press    =      -628.7188 
Volume   =     10985.1023 
---------------- Step   205000 ----- CPU =   2240.1020 (sec) ----------------
TotEng   =     -3268.8985 KinEng   =       623.4008 Temp     =       288.8647 
PotEng   =     -3892.2993 E_bond   =         0.2744 E_angle  =         1.8840 
E_dihed  =         0.0000 E_impro  =         0.0000 E_vdwl   =       747.7305 
E_coul   =     27027.0305 E_long   =    -31669.2188 Press    =       683.3985 
Volume   =     10918.6674 
---------------- Step   210000 ----- CPU =   2290.1771 (sec) ----------------
TotEng   =     -3357.8135 KinEng   =       650.1500 Temp     =       301.2594 
PotEng   =     -4007.9634 E_bond   =         0.5337 E_angle  =         0.5313 
E_dihed  =         0.0000 E_impro  =         0.0000 E_vdwl   =       766.0418 
E_coul   =     26891.5531 E_long   =    -31666.6234 Press    =      -173.0635 
Volume   =     11136.9420 
---------------- Step   215000 ----- CPU =   2341.9620 (sec) ----------------
TotEng   =     -3277.8135 KinEng   =       652.2864 Temp     =       302.2494 
PotEng   =     -3930.1000 E_bond   =         0.2144 E_angle  =         1.1704 
E_dihed  =         0.0000 E_impro  =         0.0000 E_vdwl   =       703.2743 
E_coul   =     27031.4561 E_long   =    -31666.2152 Press    =      -783.7720 
Volume   =     11080.1234 
---------------- Step   220000 ----- CPU =   2394.1390 (sec) ----------------
TotEng   =     -3258.6810 KinEng   =       650.3197 Temp     =       301.3381 
PotEng   =     -3909.0007 E_bond   =         0.8447 E_angle  =         0.8568 
E_dihed  =         0.0000 E_impro  =         0.0000 E_vdwl   =       736.5912 
E_coul   =     27017.5288 E_long   =    -31664.8221 Press    =        10.4350 
Volume   =     11072.5036 
---------------- Step   225000 ----- CPU =   2449.7275 (sec) ----------------
TotEng   =     -3352.5051 KinEng   =       632.2203 Temp     =       292.9514 
PotEng   =     -3984.7254 E_bond   =         1.4952 E_angle  =         1.4931 
E_dihed  =         0.0000 E_impro  =         0.0000 E_vdwl   =       740.4849 
E_coul   =     26937.8603 E_long   =    -31666.0590 Press    =      -131.4237 
Volume   =     10971.6985 
---------------- Step   230000 ----- CPU =   2504.8543 (sec) ----------------
TotEng   =     -3344.0398 KinEng   =       644.2435 Temp     =       298.5226 
PotEng   =     -3988.2833 E_bond   =         0.6013 E_angle  =         0.6982 
E_dihed  =         0.0000 E_impro  =         0.0000 E_vdwl   =       748.7592 
E_coul   =     26931.4996 E_long   =    -31669.8416 Press    =      -249.9668 
Volume   =     11082.7434 
---------------- Step   235000 ----- CPU =   2559.8009 (sec) ----------------
TotEng   =     -3313.1917 KinEng   =       666.3282 Temp     =       308.7559 
PotEng   =     -3979.5198 E_bond   =         0.2061 E_angle  =         1.4350 
E_dihed  =         0.0000 E_impro  =         0.0000 E_vdwl   =       722.2036 
E_coul   =     26964.7622 E_long   =    -31668.1267 Press    =      -567.8442 
Volume   =     11008.3335 
---------------- Step   240000 ----- CPU =   2614.5414 (sec) ----------------
TotEng   =     -3296.9349 KinEng   =       644.3328 Temp     =       298.5640 
PotEng   =     -3941.2677 E_bond   =         0.2896 E_angle  =         1.7019 
E_dihed  =         0.0000 E_impro  =         0.0000 E_vdwl   =       717.5158 
E_coul   =     27005.7868 E_long   =    -31666.5618 Press    =      -480.1116 
Volume   =     11159.0381 
---------------- Step   245000 ----- CPU =   2670.0786 (sec) ----------------
TotEng   =     -3242.0932 KinEng   =       647.8857 Temp     =       300.2102 
PotEng   =     -3889.9789 E_bond   =         1.7715 E_angle  =         1.0061 
E_dihed  =         0.0000 E_impro  =         0.0000 E_vdwl   =       716.6079 
E_coul   =     27057.1342 E_long   =    -31666.4986 Press    =        94.3884 
Volume   =     11081.2836 
---------------- Step   250000 ----- CPU =   2727.0166 (sec) ----------------
TotEng   =     -3257.8677 KinEng   =       664.9930 Temp     =       308.1372 
PotEng   =     -3922.8607 E_bond   =         1.1802 E_angle  =         0.5243 
E_dihed  =         0.0000 E_impro  =         0.0000 E_vdwl   =       787.7770 
E_coul   =     26954.2681 E_long   =    -31666.6102 Press    =      1458.6951 
Volume   =     10871.9408 
---------------- Step   255000 ----- CPU =   2783.5780 (sec) ----------------
TotEng   =     -3294.3954 KinEng   =       629.9877 Temp     =       291.9169 
PotEng   =     -3924.3830 E_bond   =         0.5922 E_angle  =         1.0125 
E_dihed  =         0.0000 E_impro  =         0.0000 E_vdwl   =       706.7035 
E_coul   =     27031.1626 E_long   =    -31663.8538 Press    =      -506.2190 
Volume   =     11092.1662 
---------------- Step   260000 ----- CPU =   2839.5203 (sec) ----------------
TotEng   =     -3263.8464 KinEng   =       687.5157 Temp     =       318.5736 
PotEng   =     -3951.3622 E_bond   =         0.9475 E_angle  =         1.0739 
E_dihed  =         0.0000 E_impro  =         0.0000 E_vdwl   =       752.7915 
E_coul   =     26958.6661 E_long   =    -31664.8412 Press    =         5.4195 
Volume   =     11260.1574 
---------------- Step   265000 ----- CPU =   2894.6401 (sec) ----------------
TotEng   =     -3313.9831 KinEng   =       668.5370 Temp     =       309.7794 
PotEng   =     -3982.5202 E_bond   =         0.4702 E_angle  =         1.4305 
E_dihed  =         0.0000 E_impro  =         0.0000 E_vdwl   =       770.7670 
E_coul   =     26912.0974 E_long   =    -31667.2853 Press    =       235.2419 
Volume   =     11081.1685 
---------------- Step   270000 ----- CPU =   2950.6917 (sec) ----------------
TotEng   =     -3361.7956 KinEng   =       612.5257 Temp     =       283.8255 
PotEng   =     -3974.3213 E_bond   =         0.6447 E_angle  =         0.8808 
E_dihed  =         0.0000 E_impro  =         0.0000 E_vdwl   =       749.1675 
E_coul   =     26941.9580 E_long   =    -31666.9723 Press    =       225.5484 
Volume   =     10819.6100 
---------------- Step   275000 ----- CPU =   3005.0032 (sec) ----------------
TotEng   =     -3235.9166 KinEng   =       674.5175 Temp     =       312.5506 
PotEng   =     -3910.4341 E_bond   =         0.6148 E_angle  =         2.4868 
E_dihed  =         0.0000 E_impro  =         0.0000 E_vdwl   =       718.0128 
E_coul   =     27029.6593 E_long   =    -31661.2078 Press    =       -11.6046 
Volume   =     11075.1903 
---------------- Step   280000 ----- CPU =   3059.4066 (sec) ----------------
TotEng   =     -3309.1743 KinEng   =       639.6309 Temp     =       296.3852 
PotEng   =     -3948.8052 E_bond   =         0.7537 E_angle  =         2.0382 
E_dihed  =         0.0000 E_impro  =         0.0000 E_vdwl   =       772.9856 
E_coul   =     26941.7689 E_long   =    -31666.3516 Press    =       729.7464 
Volume   =     10868.2205 
---------------- Step   285000 ----- CPU =   3114.6345 (sec) ----------------
TotEng   =     -3345.2183 KinEng   =       652.7967 Temp     =       302.4859 
PotEng   =     -3998.0151 E_bond   =         0.9151 E_angle  =         1.0907 
E_dihed  =         0.0000 E_impro  =         0.0000 E_vdwl   =       734.6830 
E_coul   =     26930.6823 E_long   =    -31665.3862 Press    =      -768.0709 
Volume   =     11135.0905 
---------------- Step   290000 ----- CPU =   3170.1418 (sec) ----------------
TotEng   =     -3369.7247 KinEng   =       646.2058 Temp     =       299.4318 
PotEng   =     -4015.9305 E_bond   =         0.7896 E_angle  =         1.2234 
E_dihed  =         0.0000 E_impro  =         0.0000 E_vdwl   =       771.9566 
E_coul   =     26875.5124 E_long   =    -31665.4125 Press    =       164.5855 
Volume   =     10969.4532 
---------------- Step   295000 ----- CPU =   3224.6381 (sec) ----------------
TotEng   =     -3326.5567 KinEng   =       592.8117 Temp     =       274.6906 
PotEng   =     -3919.3684 E_bond   =         0.6725 E_angle  =         1.2448 
E_dihed  =         0.0000 E_impro  =         0.0000 E_vdwl   =       686.6326 
E_coul   =     27058.8533 E_long   =    -31666.7715 Press    =     -1093.1540 
Volume   =     11263.6016 
adapt  lambda = 0.85  q1 = -0.204  q2 = 0.051
---------------- Step   300000 ----- CPU =   3279.0451 (sec) ----------------
TotEng   =     -3311.9404 KinEng   =       635.9700 Temp     =       294.6889 
PotEng   =     -3947.9103 E_bond   =         1.0250 E_angle  =         2.7876 
E_dihed  =         0.0000 E_impro  =         0.0000 E_vdwl   =       735.0964 
E_coul   =     26978.1632 E_long   =    -31664.9826 Press    =      -124.4636 
Volume   =     10977.6414 
---------------- Step   305000 ----- CPU =   3330.4259 (sec) ----------------
TotEng   =     -3297.0243 KinEng   =       662.5603 Temp     =       307.0100 
PotEng   =     -3959.5846 E_bond   =         0.0465 E_angle  =         2.6438 
E_dihed  =         0.0000 E_impro  =         0.0000 E_vdwl   =       786.4372 
E_coul   =     26918.8730 E_long   =    -31667.5851 Press    =       700.4153 
Volume   =     11145.0912 
---------------- Step   310000 ----- CPU =   3380.4013 (sec) ----------------
TotEng   =     -3377.9762 KinEng   =       619.1751 Temp     =       286.9066 
PotEng   =     -3997.1513 E_bond   =         0.4824 E_angle  =         2.1661 
E_dihed  =         0.0000 E_impro  =         0.0000 E_vdwl   =       738.1327 
E_coul   =     26928.5990 E_long   =    -31666.5315 Press    =      -526.0275 
Volume   =     10979.5030 
---------------- Step   315000 ----- CPU =   3432.1943 (sec) ----------------
TotEng   =     -3333.1127 KinEng   =       655.7097 Temp     =       303.8356 
PotEng   =     -3988.8224 E_bond   =         0.3932 E_angle  =         1.5410 
E_dihed  =         0.0000 E_impro  =         0.0000 E_vdwl   =       724.7757 
E_coul   =     26951.2308 E_long   =    -31666.7631 Press    =      -133.8123 
Volume   =     10746.9844 
---------------- Step   320000 ----- CPU =   3484.3880 (sec) ----------------
TotEng   =     -3299.4780 KinEng   =       659.9422 Temp     =       305.7968 
PotEng   =     -3959.4201 E_bond   =         0.4442 E_angle  =         2.2478 
E_dihed  =         0.0000 E_impro  =         0.0000 E_vdwl   =       740.7156 
E_coul   =     26963.2501 E_long   =    -31666.0779 Press    =        70.1378 
Volume   =     10869.9332 
---------------- Step   325000 ----- CPU =   3539.7211 (sec) ----------------
TotEng   =     -3225.1913 KinEng   =       666.4041 Temp     =       308.7911 
PotEng   =     -3891.5954 E_bond   =         4.1155 E_angle  =         1.6453 
E_dihed  =         0.0000 E_impro  =         0.0000 E_vdwl   =       751.9672 
E_coul   =     27013.2292 E_long   =    -31662.5526 Press    =       525.6162 
Volume   =     11319.9930 
---------------- Step   330000 ----- CPU =   3594.5656 (sec) ----------------
TotEng   =     -3296.2514 KinEng   =       648.1589 Temp     =       300.3368 
PotEng   =     -3944.4103 E_bond   =         0.4323 E_angle  =         1.4917 
E_dihed  =         0.0000 E_impro  =         0.0000 E_vdwl   =       778.8845 
E_coul   =     26941.6726 E_long   =    -31666.8913 Press    =       569.2253 
Volume   =     11181.6489 
---------------- Step   335000 ----- CPU =   3650.3737 (sec) ----------------
TotEng   =     -3357.5736 KinEng   =       611.6395 Temp     =       283.4149 
PotEng   =     -3969.2131 E_bond   =         0.8284 E_angle  =         1.5776 
E_dihed  =         0.0000 E_impro  =         0.0000 E_vdwl   =       724.5031 
E_coul   =     26972.1062 E_long   =    -31668.2283 Press    =      -705.2135 
Volume   =     11017.6021 
---------------- Step   340000 ----- CPU =   3705.1830 (sec) ----------------
TotEng   =     -3318.8720 KinEng   =       654.4528 Temp     =       303.2532 
PotEng   =     -3973.3248 E_bond   =         0.9978 E_angle  =         3.0616 
E_dihed  =         0.0000 E_impro  =         0.0000 E_vdwl   =       810.2453 
E_coul   =     26877.8261 E_long   =    -31665.4556 Press    =      1151.6538 
Volume   =     10965.4603 
---------------- Step   345000 ----- CPU =   3759.7900 (sec) ----------------
TotEng   =     -3306.5341 KinEng   =       656.9941 Temp     =       304.4308 
PotEng   =     -3963.5282 E_bond   =         0.7370 E_angle  =         0.5374 
E_dihed  =         0.0000 E_impro  =         0.0000 E_vdwl   =       728.5988 
E_coul   =     26974.6555 E_long   =    -31668.0570 Press    =        62.7932 
Volume   =     10941.2987 
---------------- Step   350000 ----- CPU =   3815.9169 (sec) ----------------
TotEng   =     -3242.0745 KinEng   =       670.6735 Temp     =       310.7694 
PotEng   =     -3912.7481 E_bond   =         0.6554 E_angle  =         1.1886 
E_dihed  =         0.0000 E_impro  =         0.0000 E_vdwl   =       702.6668 
E_coul   =     27048.8309 E_long   =    -31666.0898 Press    =       -85.6917 
Volume   =     10929.3189 
---------------- Step   355000 ----- CPU =   3871.6877 (sec) ----------------
TotEng   =     -3269.9191 KinEng   =       646.2347 Temp     =       299.4452 
PotEng   =     -3916.1538 E_bond   =         1.0458 E_angle  =         1.1933 
E_dihed  =         0.0000 E_impro  =         0.0000 E_vdwl   =       747.7785 
E_coul   =     27002.0020 E_long   =    -31668.1733 Press    =       174.0338 
Volume   =     11134.6169 
---------------- Step   360000 ----- CPU =   3926.5439 (sec) ----------------
TotEng   =     -3304.2228 KinEng   =       614.7542 Temp     =       284.8582 
PotEng   =     -3918.9770 E_bond   =         1.8163 E_angle  =         0.8143 
E_dihed  =         0.0000 E_impro  =         0.0000 E_vdwl   =       771.0317 
E_coul   =     26976.4230 E_long   =    -31669.0623 Press    =       568.9011 
Volume   =     11084.6235 
---------------- Step   365000 ----- CPU =   3982.5312 (sec) ----------------
TotEng   =     -3268.8058 KinEng   =       672.1944 Temp     =       311.4741 
PotEng   =     -3941.0002 E_bond   =         0.8903 E_angle  =         2.1161 
E_dihed  =         0.0000 E_impro  =         0.0000 E_vdwl   =       706.6064 
E_coul   =     27011.6685 E_long   =    -31662.2815 Press    =     -1043.3859 
Volume   =     11190.2785 
---------------- Step   370000 ----- CPU =   4038.6133 (sec) ----------------
TotEng   =     -3335.2048 KinEng   =       622.6982 Temp     =       288.5392 
PotEng   =     -3957.9030 E_bond   =         1.4499 E_angle  =         1.6241 
E_dihed  =         0.0000 E_impro  =         0.0000 E_vdwl   =       765.4923 
E_coul   =     26940.7263 E_long   =    -31667.1956 Press    =       639.4420 
Volume   =     11018.1173 
---------------- Step   375000 ----- CPU =   4094.8092 (sec) ----------------
TotEng   =     -3299.7190 KinEng   =       652.7558 Temp     =       302.4669 
PotEng   =     -3952.4748 E_bond   =         1.7722 E_angle  =         2.2402 
E_dihed  =         0.0000 E_impro  =         0.0000 E_vdwl   =       736.7898 
E_coul   =     26973.7718 E_long   =    -31667.0488 Press    =       190.6581 
Volume   =     10831.9803 
---------------- Step   380000 ----- CPU =   4150.0022 (sec) ----------------
TotEng   =     -3311.0831 KinEng   =       651.0803 Temp     =       301.6905 
PotEng   =     -3962.1634 E_bond   =         2.2209 E_angle  =         1.1954 
E_dihed  =         0.0000 E_impro  =         0.0000 E_vdwl   =       686.9475 
E_coul   =     27010.4451 E_long   =    -31662.9723 Press    =     -1419.6007 
Volume   =     11087.9134 
---------------- Step   385000 ----- CPU =   4206.4699 (sec) ----------------
TotEng   =     -3410.2187 KinEng   =       579.1981 Temp     =       268.3825 
PotEng   =     -3989.4168 E_bond   =         3.9347 E_angle  =         0.8895 
E_dihed  =         0.0000 E_impro  =         0.0000 E_vdwl   =       717.3433 
E_coul   =     26956.4533 E_long   =    -31668.0376 Press    =      -612.0198 
Volume   =     10639.0176 
---------------- Step   390000 ----- CPU =   4261.7795 (sec) ----------------
TotEng   =     -3312.5874 KinEng   =       632.7135 Temp     =       293.1799 
PotEng   =     -3945.3009 E_bond   =         2.5283 E_angle  =         0.6773 
E_dihed  =         0.0000 E_impro  =         0.0000 E_vdwl   =       727.8020 
E_coul   =     26988.5273 E_long   =    -31664.8359 Press    =      -381.5326 
Volume   =     11166.7804 
---------------- Step   395000 ----- CPU =   4317.7022 (sec) ----------------
TotEng   =     -3334.8344 KinEng   =       641.1754 Temp     =       297.1009 
PotEng   =     -3976.0098 E_bond   =         1.0671 E_angle  =         0.9197 
E_dihed  =         0.0000 E_impro  =         0.0000 E_vdwl   =       753.6646 
E_coul   =     26935.2054 E_long   =    -31666.8665 Press    =        94.4417 
Volume   =     10924.6540 
adapt  lambda = 0.8  q1 = -0.192  q2 = 0.048
---------------- Step   400000 ----- CPU =   4373.7389 (sec) ----------------
TotEng   =     -3238.6581 KinEng   =       673.5246 Temp     =       312.0905 
PotEng   =     -3912.1827 E_bond   =         2.7899 E_angle  =         1.2900 
E_dihed  =         0.0000 E_impro  =         0.0000 E_vdwl   =       693.1250 
E_coul   =     27057.5651 E_long   =    -31666.9527 Press    =      -656.5921 
Volume   =     11158.9136 
---------------- Step   405000 ----- CPU =   4425.0371 (sec) ----------------
TotEng   =     -3247.4051 KinEng   =       685.7988 Temp     =       317.7780 
PotEng   =     -3933.2038 E_bond   =         1.1098 E_angle  =         0.4031 
E_dihed  =         0.0000 E_impro  =         0.0000 E_vdwl   =       712.4109 
E_coul   =     27019.0821 E_long   =    -31666.2097 Press    =      -184.9011 
Volume   =     11026.6260 
---------------- Step   410000 ----- CPU =   4477.0017 (sec) ----------------
TotEng   =     -3306.5912 KinEng   =       644.3895 Temp     =       298.5902 
PotEng   =     -3950.9807 E_bond   =         3.9852 E_angle  =         1.4771 
E_dihed  =         0.0000 E_impro  =         0.0000 E_vdwl   =       819.7305 
E_coul   =     26889.5240 E_long   =    -31665.6975 Press    =      1849.3274 
Volume   =     10788.7809 
---------------- Step   415000 ----- CPU =   4528.4110 (sec) ----------------
TotEng   =     -3279.3923 KinEng   =       635.2518 Temp     =       294.3561 
PotEng   =     -3914.6442 E_bond   =         2.4275 E_angle  =         1.9968 
E_dihed  =         0.0000 E_impro  =         0.0000 E_vdwl   =       738.2668 
E_coul   =     27007.6229 E_long   =    -31664.9582 Press    =      -220.6380 
Volume   =     11353.6689 
---------------- Step   420000 ----- CPU =   4579.1097 (sec) ----------------
TotEng   =     -3308.0565 KinEng   =       644.2791 Temp     =       298.5391 
PotEng   =     -3952.3357 E_bond   =         0.6445 E_angle  =         3.9890 
E_dihed  =         0.0000 E_impro  =         0.0000 E_vdwl   =       758.0556 
E_coul   =     26950.6747 E_long   =    -31665.6994 Press    =       714.7563 
Volume   =     10720.5758 
---------------- Step   425000 ----- CPU =   4634.5807 (sec) ----------------
TotEng   =     -3270.5926 KinEng   =       641.4313 Temp     =       297.2195 
PotEng   =     -3912.0239 E_bond   =         3.4049 E_angle  =         3.2546 
E_dihed  =         0.0000 E_impro  =         0.0000 E_vdwl   =       697.9168 
E_coul   =     27050.8541 E_long   =    -31667.4544 Press    =      -398.2223 
Volume   =     10920.7900 
---------------- Step   430000 ----- CPU =   4689.8909 (sec) ----------------
TotEng   =     -3302.1334 KinEng   =       667.1868 Temp     =       309.1538 
PotEng   =     -3969.3202 E_bond   =         0.2741 E_angle  =         1.4299 
E_dihed  =         0.0000 E_impro  =         0.0000 E_vdwl   =       728.9322 
E_coul   =     26967.9326 E_long   =    -31667.8889 Press    =      -304.8656 
Volume   =     11036.9056 
---------------- Step   435000 ----- CPU =   4746.3232 (sec) ----------------
TotEng   =     -3326.1002 KinEng   =       643.8293 Temp     =       298.3306 
PotEng   =     -3969.9295 E_bond   =         2.7265 E_angle  =         3.7387 
E_dihed  =         0.0000 E_impro  =         0.0000 E_vdwl   =       746.9342 
E_coul   =     26943.8925 E_long   =    -31667.2213 Press    =       294.4594 
Volume   =     10815.8054 
---------------- Step   440000 ----- CPU =   4802.5113 (sec) ----------------
TotEng   =     -3329.6996 KinEng   =       640.5833 Temp     =       296.8265 
PotEng   =     -3970.2829 E_bond   =         1.1200 E_angle  =         1.2129 
E_dihed  =         0.0000 E_impro  =         0.0000 E_vdwl   =       803.5801 
E_coul   =     26890.9997 E_long   =    -31667.1956 Press    =       973.4490 
Volume   =     11015.4334 
---------------- Step   445000 ----- CPU =   4857.6116 (sec) ----------------
TotEng   =     -3331.6895 KinEng   =       658.2833 Temp     =       305.0282 
PotEng   =     -3989.9728 E_bond   =         2.2518 E_angle  =         2.3666 
E_dihed  =         0.0000 E_impro  =         0.0000 E_vdwl   =       761.8192 
E_coul   =     26909.3049 E_long   =    -31665.7153 Press    =       141.8378 
Volume   =     10935.5506 
---------------- Step   450000 ----- CPU =   4912.8888 (sec) ----------------
TotEng   =     -3331.6743 KinEng   =       630.4501 Temp     =       292.1312 
PotEng   =     -3962.1244 E_bond   =         1.7273 E_angle  =         2.3680 
E_dihed  =         0.0000 E_impro  =         0.0000 E_vdwl   =       753.0327 
E_coul   =     26944.8346 E_long   =    -31664.0870 Press    =       125.6148 
Volume   =     10897.5988 
---------------- Step   455000 ----- CPU =   4967.6120 (sec) ----------------
TotEng   =     -3329.5597 KinEng   =       649.7349 Temp     =       301.0671 
PotEng   =     -3979.2946 E_bond   =         2.0772 E_angle  =         1.7278 
E_dihed  =         0.0000 E_impro  =         0.0000 E_vdwl   =       734.0854 
E_coul   =     26947.9103 E_long   =    -31665.0954 Press    =      -414.3524 
Volume   =     10995.8600 
---------------- Step   460000 ----- CPU =   5023.0846 (sec) ----------------
TotEng   =     -3379.6204 KinEng   =       619.1567 Temp     =       286.8981 
PotEng   =     -3998.7771 E_bond   =         1.4201 E_angle  =         2.1667 
E_dihed  =         0.0000 E_impro  =         0.0000 E_vdwl   =       748.6072 
E_coul   =     26914.0580 E_long   =    -31665.0291 Press    =      -252.4319 
Volume   =     10872.4329 
---------------- Step   465000 ----- CPU =   5078.5050 (sec) ----------------
TotEng   =     -3301.1408 KinEng   =       643.6139 Temp     =       298.2308 
PotEng   =     -3944.7547 E_bond   =         1.2768 E_angle  =         2.6212 
E_dihed  =         0.0000 E_impro  =         0.0000 E_vdwl   =       728.9152 
E_coul   =     26988.7890 E_long   =    -31666.3570 Press    =      -162.1364 
Volume   =     11003.9643 
---------------- Step   470000 ----- CPU =   5133.1449 (sec) ----------------
TotEng   =     -3294.9279 KinEng   =       643.7383 Temp     =       298.2885 
PotEng   =     -3938.6662 E_bond   =         2.2761 E_angle  =         2.8392 
E_dihed  =         0.0000 E_impro  =         0.0000 E_vdwl   =       730.7908 
E_coul   =     26989.8398 E_long   =    -31664.4121 Press    =      -428.5520 
Volume   =     10980.2391 
---------------- Step   475000 ----- CPU =   5187.7426 (sec) ----------------
TotEng   =     -3308.4577 KinEng   =       685.8159 Temp     =       317.7859 
PotEng   =     -3994.2736 E_bond   =         1.9560 E_angle  =         0.9429 
E_dihed  =         0.0000 E_impro  =         0.0000 E_vdwl   =       772.7780 
E_coul   =     26894.7893 E_long   =    -31664.7398 Press    =       146.4570 
Volume   =     10962.3981 
---------------- Step   480000 ----- CPU =   5243.1179 (sec) ----------------
TotEng   =     -3274.6729 KinEng   =       616.4525 Temp     =       285.6451 
PotEng   =     -3891.1254 E_bond   =         1.7482 E_angle  =         1.7069 
E_dihed  =         0.0000 E_impro  =         0.0000 E_vdwl   =       681.0573 
E_coul   =     27089.7416 E_long   =    -31665.3793 Press    =      -691.9540 
Volume   =     11091.3491 
---------------- Step   485000 ----- CPU =   5298.5418 (sec) ----------------
TotEng   =     -3370.3470 KinEng   =       644.9884 Temp     =       298.8678 
PotEng   =     -4015.3354 E_bond   =         0.7480 E_angle  =         2.7842 
E_dihed  =         0.0000 E_impro  =         0.0000 E_vdwl   =       736.1976 
E_coul   =     26913.5489 E_long   =    -31668.6141 Press    =      -710.0505 
Volume   =     10931.0493 
---------------- Step   490000 ----- CPU =   5353.1757 (sec) ----------------
TotEng   =     -3326.1893 KinEng   =       641.8742 Temp     =       297.4247 
PotEng   =     -3968.0635 E_bond   =         1.7690 E_angle  =         1.0967 
E_dihed  =         0.0000 E_impro  =         0.0000 E_vdwl   =       784.9522 
E_coul   =     26912.1594 E_long   =    -31668.0406 Press    =       467.1757 
Volume   =     11059.3317 
---------------- Step   495000 ----- CPU =   5408.2243 (sec) ----------------
TotEng   =     -3323.9051 KinEng   =       633.1894 Temp     =       293.4004 
PotEng   =     -3957.0945 E_bond   =         1.4692 E_angle  =         2.3043 
E_dihed  =         0.0000 E_impro  =         0.0000 E_vdwl   =       771.7558 
E_coul   =     26932.4150 E_long   =    -31665.0388 Press    =       156.0522 
Volume   =     11051.0015 
adapt  lambda = 0.75  q1 = -0.18  q2 = 0.045
---------------- Step   500000 ----- CPU =   5464.4946 (sec) ----------------
TotEng   =     -3346.9410 KinEng   =       647.2998 Temp     =       299.9388 
PotEng   =     -3994.2407 E_bond   =         1.5422 E_angle  =         2.9660 
E_dihed  =         0.0000 E_impro  =         0.0000 E_vdwl   =       751.5565 
E_coul   =     26913.7500 E_long   =    -31664.0554 Press    =       -19.8046 
Volume   =     10846.9729 
---------------- Step   505000 ----- CPU =   5516.7120 (sec) ----------------
TotEng   =     -3350.3705 KinEng   =       627.5256 Temp     =       290.7760 
PotEng   =     -3977.8961 E_bond   =         1.1860 E_angle  =         1.9971 
E_dihed  =         0.0000 E_impro  =         0.0000 E_vdwl   =       776.8740 
E_coul   =     26910.8946 E_long   =    -31668.8479 Press    =        92.2291 
Volume   =     10972.7478 
---------------- Step   510000 ----- CPU =   5568.7630 (sec) ----------------
TotEng   =     -3236.5258 KinEng   =       673.4383 Temp     =       312.0505 
PotEng   =     -3909.9641 E_bond   =         1.8004 E_angle  =         1.3550 
E_dihed  =         0.0000 E_impro  =         0.0000 E_vdwl   =       808.3573 
E_coul   =     26941.3496 E_long   =    -31662.8264 Press    =      1417.9705 
Volume   =     11078.1587 
---------------- Step   515000 ----- CPU =   5620.2331 (sec) ----------------
TotEng   =     -3270.5906 KinEng   =       669.8172 Temp     =       310.3727 
PotEng   =     -3940.4079 E_bond   =         0.6008 E_angle  =         2.1946 
E_dihed  =         0.0000 E_impro  =         0.0000 E_vdwl   =       744.1315 
E_coul   =     26978.0815 E_long   =    -31665.4163 Press    =       615.1712 
Volume   =     10920.4703 
---------------- Step   520000 ----- CPU =   5670.8575 (sec) ----------------
TotEng   =     -3292.9978 KinEng   =       657.0905 Temp     =       304.4755 
PotEng   =     -3950.0883 E_bond   =         1.6944 E_angle  =         2.6631 
E_dihed  =         0.0000 E_impro  =         0.0000 E_vdwl   =       726.2648 
E_coul   =     26985.1720 E_long   =    -31665.8825 Press    =      -143.4431 
Volume   =     10962.3170 
---------------- Step   525000 ----- CPU =   5725.5948 (sec) ----------------
TotEng   =     -3293.7102 KinEng   =       649.9827 Temp     =       301.1819 
PotEng   =     -3943.6929 E_bond   =         1.2451 E_angle  =         2.1819 
E_dihed  =         0.0000 E_impro  =         0.0000 E_vdwl   =       770.7637 
E_coul   =     26947.5775 E_long   =    -31665.4610 Press    =       462.2283 
Volume   =     11039.5792 
---------------- Step   530000 ----- CPU =   5780.6244 (sec) ----------------
TotEng   =     -3311.8490 KinEng   =       653.4276 Temp     =       302.7782 
PotEng   =     -3965.2766 E_bond   =         2.7811 E_angle  =         2.3489 
E_dihed  =         0.0000 E_impro  =         0.0000 E_vdwl   =       748.4936 
E_coul   =     26945.1977 E_long   =    -31664.0979 Press    =        31.6098 
Volume   =     11083.4627 
---------------- Step   535000 ----- CPU =   5835.8924 (sec) ----------------
TotEng   =     -3353.7725 KinEng   =       657.1180 Temp     =       304.4882 
PotEng   =     -4010.8905 E_bond   =         1.5063 E_angle  =         1.5013 
E_dihed  =         0.0000 E_impro  =         0.0000 E_vdwl   =       775.1199 
E_coul   =     26876.5176 E_long   =    -31665.5355 Press    =       -66.0955 
Volume   =     11031.8394 
---------------- Step   540000 ----- CPU =   5890.8930 (sec) ----------------
TotEng   =     -3364.4542 KinEng   =       637.1863 Temp     =       295.2525 
PotEng   =     -4001.6405 E_bond   =         0.2327 E_angle  =         4.1396 
E_dihed  =         0.0000 E_impro  =         0.0000 E_vdwl   =       861.6320 
E_coul   =     26796.8713 E_long   =    -31664.5161 Press    =      1830.9664 
Volume   =     10984.2866 
---------------- Step   545000 ----- CPU =   5943.9238 (sec) ----------------
TotEng   =     -3312.0382 KinEng   =       641.6934 Temp     =       297.3409 
PotEng   =     -3953.7316 E_bond   =         2.4834 E_angle  =         1.2780 
E_dihed  =         0.0000 E_impro  =         0.0000 E_vdwl   =       748.6233 
E_coul   =     26960.7498 E_long   =    -31666.8660 Press    =      -216.7845 
Volume   =     11218.4189 
---------------- Step   550000 ----- CPU =   5997.9126 (sec) ----------------
TotEng   =     -3264.2544 KinEng   =       650.0904 Temp     =       301.2318 
PotEng   =     -3914.3448 E_bond   =         1.9951 E_angle  =         1.2793 
E_dihed  =         0.0000 E_impro  =         0.0000 E_vdwl   =       713.7727 
E_coul   =     27033.7588 E_long   =    -31665.1507 Press    =      -410.2072 
Volume   =     11074.4802 
---------------- Step   555000 ----- CPU =   6053.6810 (sec) ----------------
TotEng   =     -3268.1571 KinEng   =       685.9355 Temp     =       317.8414 
PotEng   =     -3954.0926 E_bond   =         0.2439 E_angle  =         0.8163 
E_dihed  =         0.0000 E_impro  =         0.0000 E_vdwl   =       715.4395 
E_coul   =     26995.4432 E_long   =    -31666.0355 Press    =      -672.2028 
Volume   =     11136.3760 
---------------- Step   560000 ----- CPU =   6109.9092 (sec) ----------------
TotEng   =     -3307.6925 KinEng   =       626.2125 Temp     =       290.1676 
PotEng   =     -3933.9050 E_bond   =         2.0007 E_angle  =         1.2689 
E_dihed  =         0.0000 E_impro  =         0.0000 E_vdwl   =       670.6773 
E_coul   =     27057.9140 E_long   =    -31665.7660 Press    =     -1271.6820 
Volume   =     11123.8333 
---------------- Step   565000 ----- CPU =   6165.3198 (sec) ----------------
TotEng   =     -3284.0848 KinEng   =       667.6833 Temp     =       309.3838 
PotEng   =     -3951.7681 E_bond   =         0.6407 E_angle  =         1.3517 
E_dihed  =         0.0000 E_impro  =         0.0000 E_vdwl   =       699.4421 
E_coul   =     27012.1508 E_long   =    -31665.3534 Press    =      -335.6264 
Volume   =     10815.3495 
---------------- Step   570000 ----- CPU =   6220.8564 (sec) ----------------
TotEng   =     -3310.2989 KinEng   =       636.3926 Temp     =       294.8847 
PotEng   =     -3946.6915 E_bond   =         1.1423 E_angle  =         0.6467 
E_dihed  =         0.0000 E_impro  =         0.0000 E_vdwl   =       735.1889 
E_coul   =     26981.3688 E_long   =    -31665.0381 Press    =      -154.9040 
Volume   =     11092.7774 
---------------- Step   575000 ----- CPU =   6275.8379 (sec) ----------------
TotEng   =     -3313.5387 KinEng   =       644.4556 Temp     =       298.6208 
PotEng   =     -3957.9943 E_bond   =         1.9977 E_angle  =         1.7988 
E_dihed  =         0.0000 E_impro  =         0.0000 E_vdwl   =       798.8112 
E_coul   =     26906.7225 E_long   =    -31667.3244 Press    =      1256.1790 
Volume   =     10880.9202 
---------------- Step   580000 ----- CPU =   6331.5787 (sec) ----------------
TotEng   =     -3327.1254 KinEng   =       644.6287 Temp     =       298.7010 
PotEng   =     -3971.7540 E_bond   =         3.0313 E_angle  =         1.3458 
E_dihed  =         0.0000 E_impro  =         0.0000 E_vdwl   =       749.7631 
E_coul   =     26938.6236 E_long   =    -31664.5179 Press    =      -167.8054 
Volume   =     11149.8298 
---------------- Step   585000 ----- CPU =   6386.2899 (sec) ----------------
TotEng   =     -3252.9825 KinEng   =       680.5921 Temp     =       315.3654 
PotEng   =     -3933.5745 E_bond   =         2.7948 E_angle  =         1.7633 
E_dihed  =         0.0000 E_impro  =         0.0000 E_vdwl   =       792.6628 
E_coul   =     26934.6841 E_long   =    -31665.4795 Press    =      1174.8384 
Volume   =     10903.1426 
---------------- Step   590000 ----- CPU =   6440.9396 (sec) ----------------
TotEng   =     -3301.2007 KinEng   =       642.0381 Temp     =       297.5007 
PotEng   =     -3943.2388 E_bond   =         3.1860 E_angle  =         1.5967 
E_dihed  =         0.0000 E_impro  =         0.0000 E_vdwl   =       772.2811 
E_coul   =     26944.4435 E_long   =    -31664.7461 Press    =       710.6074 
Volume   =     10947.3068 
---------------- Step   595000 ----- CPU =   6496.8661 (sec) ----------------
TotEng   =     -3287.4358 KinEng   =       649.7662 Temp     =       301.0816 
PotEng   =     -3937.2020 E_bond   =         3.0508 E_angle  =         1.3188 
E_dihed  =         0.0000 E_impro  =         0.0000 E_vdwl   =       747.0436 
E_coul   =     26977.4067 E_long   =    -31666.0219 Press    =       -17.1168 
Volume   =     10907.5550 
adapt  lambda = 0.7  q1 = -0.168  q2 = 0.042
---------------- Step   600000 ----- CPU =   6552.6164 (sec) ----------------
TotEng   =     -3281.1810 KinEng   =       663.9890 Temp     =       307.6720 
PotEng   =     -3945.1700 E_bond   =         0.2975 E_angle  =         2.6069 
E_dihed  =         0.0000 E_impro  =         0.0000 E_vdwl   =       799.1129 
E_coul   =     26919.6032 E_long   =    -31666.7905 Press    =      1250.3016 
Volume   =     11083.0232 
---------------- Step   605000 ----- CPU =   6602.5000 (sec) ----------------
TotEng   =     -3301.7978 KinEng   =       665.3831 Temp     =       308.3180 
PotEng   =     -3967.1809 E_bond   =         0.9384 E_angle  =         0.4353 
E_dihed  =         0.0000 E_impro  =         0.0000 E_vdwl   =       699.3219 
E_coul   =     26995.8737 E_long   =    -31663.7502 Press    =     -1090.6992 
Volume   =     11073.8516 
---------------- Step   610000 ----- CPU =   6653.0304 (sec) ----------------
TotEng   =     -3322.1586 KinEng   =       646.1141 Temp     =       299.3894 
PotEng   =     -3968.2728 E_bond   =         0.5806 E_angle  =         1.1261 
E_dihed  =         0.0000 E_impro  =         0.0000 E_vdwl   =       763.9841 
E_coul   =     26933.4332 E_long   =    -31667.3967 Press    =        94.7401 
Volume   =     11065.0994 
---------------- Step   615000 ----- CPU =   6704.5037 (sec) ----------------
TotEng   =     -3217.8774 KinEng   =       679.5400 Temp     =       314.8779 
PotEng   =     -3897.4174 E_bond   =         2.3625 E_angle  =         1.3725 
E_dihed  =         0.0000 E_impro  =         0.0000 E_vdwl   =       722.3605 
E_coul   =     27042.0275 E_long   =    -31665.5404 Press    =        78.7259 
Volume   =     10933.4873 
---------------- Step   620000 ----- CPU =   6754.8492 (sec) ----------------
TotEng   =     -3268.9010 KinEng   =       647.2512 Temp     =       299.9162 
PotEng   =     -3916.1521 E_bond   =         1.0027 E_angle  =         1.1254 
E_dihed  =         0.0000 E_impro  =         0.0000 E_vdwl   =       702.0170 
E_coul   =     27048.8673 E_long   =    -31669.1646 Press    =      -676.2053 
Volume   =     10971.0680 
---------------- Step   625000 ----- CPU =   6810.7380 (sec) ----------------
TotEng   =     -3270.6632 KinEng   =       664.3930 Temp     =       307.8592 
PotEng   =     -3935.0562 E_bond   =         0.5235 E_angle  =         2.2611 
E_dihed  =         0.0000 E_impro  =         0.0000 E_vdwl   =       718.8157 
E_coul   =     27005.0592 E_long   =    -31661.7158 Press    =      -416.1257 
Volume   =     11080.0869 
---------------- Step   630000 ----- CPU =   6867.6284 (sec) ----------------
TotEng   =     -3304.5075 KinEng   =       677.3130 Temp     =       313.8460 
PotEng   =     -3981.8205 E_bond   =         1.4544 E_angle  =         2.2067 
E_dihed  =         0.0000 E_impro  =         0.0000 E_vdwl   =       731.8841 
E_coul   =     26947.2499 E_long   =    -31664.6156 Press    =      -509.5949 
Volume   =     10981.7115 
---------------- Step   635000 ----- CPU =   6922.8763 (sec) ----------------
TotEng   =     -3276.5528 KinEng   =       680.5910 Temp     =       315.3649 
PotEng   =     -3957.1439 E_bond   =         1.4066 E_angle  =         1.5639 
E_dihed  =         0.0000 E_impro  =         0.0000 E_vdwl   =       767.6719 
E_coul   =     26938.9140 E_long   =    -31666.7003 Press    =       932.6063 
Volume   =     10773.2345 
---------------- Step   640000 ----- CPU =   6976.7394 (sec) ----------------
TotEng   =     -3309.2080 KinEng   =       634.3162 Temp     =       293.9226 
PotEng   =     -3943.5243 E_bond   =         0.4766 E_angle  =         1.6164 
E_dihed  =         0.0000 E_impro  =         0.0000 E_vdwl   =       774.0390 
E_coul   =     26944.8734 E_long   =    -31664.5297 Press    =       903.1847 
Volume   =     10995.9710 
---------------- Step   645000 ----- CPU =   7032.5215 (sec) ----------------
TotEng   =     -3339.7806 KinEng   =       671.1090 Temp     =       310.9712 
PotEng   =     -4010.8896 E_bond   =         1.0935 E_angle  =         1.8462 
E_dihed  =         0.0000 E_impro  =         0.0000 E_vdwl   =       771.1138 
E_coul   =     26880.9528 E_long   =    -31665.8960 Press    =       285.3407 
Volume   =     10962.1361 
---------------- Step   650000 ----- CPU =   7088.1727 (sec) ----------------
TotEng   =     -3247.4698 KinEng   =       688.5096 Temp     =       319.0341 
PotEng   =     -3935.9794 E_bond   =         0.1995 E_angle  =         2.5301 
E_dihed  =         0.0000 E_impro  =         0.0000 E_vdwl   =       727.0837 
E_coul   =     27000.2021 E_long   =    -31665.9948 Press    =       315.1042 
Volume   =     10671.3384 
---------------- Step   655000 ----- CPU =   7144.1385 (sec) ----------------
TotEng   =     -3250.1446 KinEng   =       653.6386 Temp     =       302.8760 
PotEng   =     -3903.7831 E_bond   =         1.4785 E_angle  =         0.8982 
E_dihed  =         0.0000 E_impro  =         0.0000 E_vdwl   =       751.4442 
E_coul   =     27008.5693 E_long   =    -31666.1734 Press    =       468.9945 
Volume   =     11169.1291 
---------------- Step   660000 ----- CPU =   7199.0615 (sec) ----------------
TotEng   =     -3286.6978 KinEng   =       639.4716 Temp     =       296.3114 
PotEng   =     -3926.1694 E_bond   =         1.6066 E_angle  =         1.4800 
E_dihed  =         0.0000 E_impro  =         0.0000 E_vdwl   =       781.1281 
E_coul   =     26956.5271 E_long   =    -31666.9112 Press    =      1310.9153 
Volume   =     10932.3154 
---------------- Step   665000 ----- CPU =   7254.4158 (sec) ----------------
TotEng   =     -3340.4525 KinEng   =       635.2997 Temp     =       294.3783 
PotEng   =     -3975.7522 E_bond   =         0.9907 E_angle  =         1.5672 
E_dihed  =         0.0000 E_impro  =         0.0000 E_vdwl   =       777.7099 
E_coul   =     26907.9773 E_long   =    -31663.9972 Press    =       494.9100 
Volume   =     11008.5980 
---------------- Step   670000 ----- CPU =   7307.7629 (sec) ----------------
TotEng   =     -3292.4009 KinEng   =       624.5926 Temp     =       289.4169 
PotEng   =     -3916.9935 E_bond   =         0.7176 E_angle  =         1.9514 
E_dihed  =         0.0000 E_impro  =         0.0000 E_vdwl   =       732.2142 
E_coul   =     27010.9312 E_long   =    -31662.8079 Press    =       142.4258 
Volume   =     10975.9777 
---------------- Step   675000 ----- CPU =   7361.6239 (sec) ----------------
TotEng   =     -3277.0129 KinEng   =       634.4331 Temp     =       293.9767 
PotEng   =     -3911.4460 E_bond   =         1.6076 E_angle  =         1.3051 
E_dihed  =         0.0000 E_impro  =         0.0000 E_vdwl   =       743.7015 
E_coul   =     27003.2567 E_long   =    -31661.3168 Press    =        40.9110 
Volume   =     11035.9337 
---------------- Step   680000 ----- CPU =   7416.2150 (sec) ----------------
TotEng   =     -3378.1959 KinEng   =       626.3944 Temp     =       290.2518 
PotEng   =     -4004.5903 E_bond   =         0.3180 E_angle  =         0.9333 
E_dihed  =         0.0000 E_impro  =         0.0000 E_vdwl   =       725.8159 
E_coul   =     26935.7783 E_long   =    -31667.4359 Press    =      -717.8344 
Volume   =     10781.7947 
---------------- Step   685000 ----- CPU =   7471.1328 (sec) ----------------
TotEng   =     -3277.7814 KinEng   =       664.0430 Temp     =       307.6971 
PotEng   =     -3941.8244 E_bond   =         0.3277 E_angle  =         0.5570 
E_dihed  =         0.0000 E_impro  =         0.0000 E_vdwl   =       757.3954 
E_coul   =     26960.9907 E_long   =    -31661.0952 Press    =       492.7126 
Volume   =     10885.1230 
---------------- Step   690000 ----- CPU =   7525.2847 (sec) ----------------
TotEng   =     -3267.9027 KinEng   =       639.8343 Temp     =       296.4795 
PotEng   =     -3907.7369 E_bond   =         1.3995 E_angle  =         1.5297 
E_dihed  =         0.0000 E_impro  =         0.0000 E_vdwl   =       745.9625 
E_coul   =     27009.2540 E_long   =    -31665.8827 Press    =       504.4155 
Volume   =     10961.1202 
---------------- Step   695000 ----- CPU =   7580.4557 (sec) ----------------
TotEng   =     -3233.5878 KinEng   =       663.3017 Temp     =       307.3536 
PotEng   =     -3896.8895 E_bond   =         2.0066 E_angle  =         1.3472 
E_dihed  =         0.0000 E_impro  =         0.0000 E_vdwl   =       748.7038 
E_coul   =     27018.8786 E_long   =    -31667.8256 Press    =       203.0081 
Volume   =     11366.4084 
adapt  lambda = 0.65  q1 = -0.156  q2 = 0.039
---------------- Step   700000 ----- CPU =   7636.1396 (sec) ----------------
TotEng   =     -3341.3615 KinEng   =       657.4687 Temp     =       304.6507 
PotEng   =     -3998.8302 E_bond   =         1.2327 E_angle  =         2.5924 
E_dihed  =         0.0000 E_impro  =         0.0000 E_vdwl   =       738.4811 
E_coul   =     26926.3194 E_long   =    -31667.4557 Press    =      -722.9886 
Volume   =     11205.2253 
---------------- Step   705000 ----- CPU =   7686.2361 (sec) ----------------
TotEng   =     -3286.3322 KinEng   =       655.3005 Temp     =       303.6460 
PotEng   =     -3941.6327 E_bond   =         3.0706 E_angle  =         3.9854 
E_dihed  =         0.0000 E_impro  =         0.0000 E_vdwl   =       749.1254 
E_coul   =     26968.3189 E_long   =    -31666.1330 Press    =        67.3075 
Volume   =     10950.6639 
---------------- Step   710000 ----- CPU =   7738.6912 (sec) ----------------
TotEng   =     -3275.0381 KinEng   =       680.7992 Temp     =       315.4614 
PotEng   =     -3955.8373 E_bond   =         1.5341 E_angle  =         2.5603 
E_dihed  =         0.0000 E_impro  =         0.0000 E_vdwl   =       763.6282 
E_coul   =     26942.3419 E_long   =    -31665.9019 Press    =       270.6248 
Volume   =     10918.5036 
---------------- Step   715000 ----- CPU =   7791.0219 (sec) ----------------
TotEng   =     -3352.1289 KinEng   =       625.1856 Temp     =       289.6917 
PotEng   =     -3977.3145 E_bond   =         2.2417 E_angle  =         1.5897 
E_dihed  =         0.0000 E_impro  =         0.0000 E_vdwl   =       746.8584 
E_coul   =     26935.6216 E_long   =    -31663.6259 Press    =       -12.8214 
Volume   =     11038.4748 
---------------- Step   720000 ----- CPU =   7841.8057 (sec) ----------------
TotEng   =     -3295.9304 KinEng   =       634.8142 Temp     =       294.1533 
PotEng   =     -3930.7445 E_bond   =         2.4933 E_angle  =         1.2020 
E_dihed  =         0.0000 E_impro  =         0.0000 E_vdwl   =       717.2563 
E_coul   =     27016.8503 E_long   =    -31668.5463 Press    =      -776.1316 
Volume   =     11078.5788 
---------------- Step   725000 ----- CPU =   7896.3593 (sec) ----------------
TotEng   =     -3316.4107 KinEng   =       657.9574 Temp     =       304.8772 
PotEng   =     -3974.3681 E_bond   =         1.5108 E_angle  =         1.7364 
E_dihed  =         0.0000 E_impro  =         0.0000 E_vdwl   =       768.7176 
E_coul   =     26917.5659 E_long   =    -31663.8988 Press    =       651.5028 
Volume   =     10746.3663 
---------------- Step   730000 ----- CPU =   7951.5850 (sec) ----------------
TotEng   =     -3281.3780 KinEng   =       641.5781 Temp     =       297.2875 
PotEng   =     -3922.9562 E_bond   =         2.6545 E_angle  =         0.6376 
E_dihed  =         0.0000 E_impro  =         0.0000 E_vdwl   =       721.1149 
E_coul   =     27017.5235 E_long   =    -31664.8867 Press    =      -942.9722 
Volume   =     11381.5305 
---------------- Step   735000 ----- CPU =   8007.5920 (sec) ----------------
TotEng   =     -3340.8771 KinEng   =       632.8913 Temp     =       293.2623 
PotEng   =     -3973.7684 E_bond   =         0.8429 E_angle  =         3.2223 
E_dihed  =         0.0000 E_impro  =         0.0000 E_vdwl   =       745.8364 
E_coul   =     26937.5723 E_long   =    -31661.2423 Press    =      -166.9148 
Volume   =     11014.4418 
---------------- Step   740000 ----- CPU =   8059.9015 (sec) ----------------
TotEng   =     -3357.1725 KinEng   =       602.2543 Temp     =       279.0661 
PotEng   =     -3959.4268 E_bond   =         1.7437 E_angle  =         1.8999 
E_dihed  =         0.0000 E_impro  =         0.0000 E_vdwl   =       691.9336 
E_coul   =     27007.8845 E_long   =    -31662.8884 Press    =      -942.7668 
Volume   =     11028.1554 
---------------- Step   745000 ----- CPU =   8115.4071 (sec) ----------------
TotEng   =     -3321.2580 KinEng   =       630.6830 Temp     =       292.2391 
PotEng   =     -3951.9410 E_bond   =         0.5055 E_angle  =         1.7107 
E_dihed  =         0.0000 E_impro  =         0.0000 E_vdwl   =       744.4973 
E_coul   =     26968.5063 E_long   =    -31667.1608 Press    =         1.3819 
Volume   =     10961.6902 
---------------- Step   750000 ----- CPU =   8170.0197 (sec) ----------------
TotEng   =     -3308.7212 KinEng   =       624.6213 Temp     =       289.4302 
PotEng   =     -3933.3424 E_bond   =         1.2691 E_angle  =         1.4768 
E_dihed  =         0.0000 E_impro  =         0.0000 E_vdwl   =       747.7622 
[...]
Volume   =     10945.4759 
---------------- Step  1945000 ----- CPU =  21352.5642 (sec) ----------------
TotEng   =     -3263.3773 KinEng   =       677.7307 Temp     =       314.0395 
PotEng   =     -3941.1080 E_bond   =         0.8449 E_angle  =         3.6282 
E_dihed  =         0.0000 E_impro  =         0.0000 E_vdwl   =       686.8720 
E_coul   =     27033.2333 E_long   =    -31665.6864 Press    =      -724.8834 
Volume   =     10955.2074 
---------------- Step  1950000 ----- CPU =  21409.8578 (sec) ----------------
TotEng   =     -3310.7685 KinEng   =       641.2021 Temp     =       297.1133 
PotEng   =     -3951.9706 E_bond   =         1.4312 E_angle  =         0.8353 
E_dihed  =         0.0000 E_impro  =         0.0000 E_vdwl   =       699.9138 
E_coul   =     27008.4309 E_long   =    -31662.5817 Press    =     -1124.8593 
Volume   =     11007.5408 
---------------- Step  1955000 ----- CPU =  21465.4256 (sec) ----------------
TotEng   =     -3322.0777 KinEng   =       668.3289 Temp     =       309.6830 
PotEng   =     -3990.4066 E_bond   =         0.7167 E_angle  =         4.7117 
E_dihed  =         0.0000 E_impro  =         0.0000 E_vdwl   =       790.5990 
E_coul   =     26876.9239 E_long   =    -31663.3579 Press    =       612.5248 
Volume   =     10967.9098 
---------------- Step  1960000 ----- CPU =  21520.7938 (sec) ----------------
TotEng   =     -3309.2113 KinEng   =       656.1540 Temp     =       304.0416 
PotEng   =     -3965.3653 E_bond   =         1.0790 E_angle  =         1.1433 
E_dihed  =         0.0000 E_impro  =         0.0000 E_vdwl   =       771.6968 
E_coul   =     26924.3268 E_long   =    -31663.6113 Press    =       172.1668 
Volume   =     11090.8842 
---------------- Step  1965000 ----- CPU =  21576.5632 (sec) ----------------
TotEng   =     -3286.0807 KinEng   =       681.2442 Temp     =       315.6676 
PotEng   =     -3967.3250 E_bond   =         1.1179 E_angle  =         2.3449 
E_dihed  =         0.0000 E_impro  =         0.0000 E_vdwl   =       767.7612 
E_coul   =     26926.5623 E_long   =    -31665.1112 Press    =       860.9468 
Volume   =     10542.8407 
---------------- Step  1970000 ----- CPU =  21631.8372 (sec) ----------------
TotEng   =     -3201.5711 KinEng   =       674.6630 Temp     =       312.6180 
PotEng   =     -3876.2341 E_bond   =         0.3835 E_angle  =         3.7961 
E_dihed  =         0.0000 E_impro  =         0.0000 E_vdwl   =       726.4928 
E_coul   =     27053.3884 E_long   =    -31660.2949 Press    =       -34.4229 
Volume   =     11028.3727 
---------------- Step  1975000 ----- CPU =  21686.2616 (sec) ----------------
TotEng   =     -3341.2522 KinEng   =       620.8443 Temp     =       287.6801 
PotEng   =     -3962.0965 E_bond   =         0.4086 E_angle  =         3.3545 
E_dihed  =         0.0000 E_impro  =         0.0000 E_vdwl   =       714.6069 
E_coul   =     26981.5227 E_long   =    -31661.9892 Press    =      -786.5663 
Volume   =     10967.9502 
---------------- Step  1980000 ----- CPU =  21741.1863 (sec) ----------------
TotEng   =     -3356.9101 KinEng   =       653.1698 Temp     =       302.6588 
PotEng   =     -4010.0799 E_bond   =         2.7772 E_angle  =         1.4362 
E_dihed  =         0.0000 E_impro  =         0.0000 E_vdwl   =       768.8995 
E_coul   =     26884.4380 E_long   =    -31667.6308 Press    =      -416.6091 
Volume   =     11050.0587 
---------------- Step  1985000 ----- CPU =  21798.2238 (sec) ----------------
TotEng   =     -3357.1642 KinEng   =       647.9748 Temp     =       300.2515 
PotEng   =     -4005.1389 E_bond   =         1.4281 E_angle  =         3.3403 
E_dihed  =         0.0000 E_impro  =         0.0000 E_vdwl   =       761.7547 
E_coul   =     26893.4688 E_long   =    -31665.1309 Press    =       186.5038 
Volume   =     10707.2452 
---------------- Step  1990000 ----- CPU =  21853.9952 (sec) ----------------
TotEng   =     -3380.8066 KinEng   =       627.8377 Temp     =       290.9206 
PotEng   =     -4008.6443 E_bond   =         0.7221 E_angle  =         3.1707 
E_dihed  =         0.0000 E_impro  =         0.0000 E_vdwl   =       733.9034 
E_coul   =     26919.1039 E_long   =    -31665.5444 Press    =     -1068.4474 
Volume   =     11026.7485 
---------------- Step  1995000 ----- CPU =  21909.4965 (sec) ----------------
TotEng   =     -3329.7316 KinEng   =       637.6888 Temp     =       295.4853 
PotEng   =     -3967.4204 E_bond   =         1.1799 E_angle  =         2.0628 
E_dihed  =         0.0000 E_impro  =         0.0000 E_vdwl   =       723.8259 
E_coul   =     26970.1476 E_long   =    -31664.6365 Press    =      -224.8194 
Volume   =     10812.1309 
adapt  lambda = 0  q1 = -0  q2 = 0
---------------- Step  2000000 ----- CPU =  21964.7311 (sec) ----------------
TotEng   =     -3336.7667 KinEng   =       618.0878 Temp     =       286.4028 
PotEng   =     -3954.8545 E_bond   =         1.0415 E_angle  =         2.3742 
E_dihed  =         0.0000 E_impro  =         0.0000 E_vdwl   =       772.4424 
E_coul   =     26935.2999 E_long   =    -31666.0124 Press    =      -137.5629 
Volume   =     11143.2691 
Loop time of 21964.7 on 8 procs for 2000000 steps with 1085 atoms

Performance: 7.867 ns/day, 3.051 hours/ns, 91.055 timesteps/s
98.0% CPU use with 8 MPI tasks x 1 OpenMP threads

MPI task timing breakdown:
Section |  min time  |  avg time  |  max time  |%varavg| %total
---------------------------------------------------------------
Pair    | 14279      | 16153      | 17880      | 910.9 | 73.54
Bond    | 2.5347     | 2.8059     | 3.1082     |  13.0 |  0.01
Kspace  | 2140.8     | 3870.9     | 5745.9     |1862.1 | 17.62
Neigh   | 338.44     | 338.55     | 338.71     |   0.5 |  1.54
Comm    | 554.75     | 576.97     | 653.89     | 126.3 |  2.63
Output  | 0.099457   | 0.10079    | 0.1098     |   1.1 |  0.00
Modify  | 670.55     | 896.25     | 944.22     | 287.8 |  4.08
Other   |            | 126.4      |            |       |  0.58

Nlocal:        135.625 ave         147 max         129 min
Histogram: 2 1 1 1 0 2 0 0 0 1
Nghost:        4325.00 ave        4397 max        4285 min
Histogram: 2 1 0 2 1 1 0 0 0 1
Neighs:        1.25000 ave           7 max           0 min
Histogram: 6 0 0 0 1 0 0 0 0 1

Total # of neighbors = 10
Ave neighs/atom = 0.0092165899
Ave special neighs/atom = 2.0092166
Neighbor list builds = 80625
Dangerous builds = 0

unfix ADAPT

variable lambda equal 0.002
pair_coeff    1    3  lj/cut/tip4p/long/soft   0.1036   3.3279  ${lambda}  # C4H Ow
pair_coeff    1    3  lj/cut/tip4p/long/soft   0.1036   3.3279  0.002  
pair_coeff    1    4  lj/cut/tip4p/long/soft   0.0000   1.0000  ${lambda}  # C4H Hw
pair_coeff    1    4  lj/cut/tip4p/long/soft   0.0000   1.0000  0.002  
pair_coeff    2    3  lj/cut/tip4p/long/soft   0.0699   2.8126  ${lambda}  # H Ow
pair_coeff    2    3  lj/cut/tip4p/long/soft   0.0699   2.8126  0.002  
pair_coeff    2    4  lj/cut/tip4p/long/soft   0.0000   1.0000  ${lambda}  # H Hw
pair_coeff    2    4  lj/cut/tip4p/long/soft   0.0000   1.0000  0.002  

variable q1 equal -0.24*v_lambda
variable q2 equal  0.06*v_lambda

set type 1 charge ${q1}
set type 1 charge -0.00048
Setting atom values ...
  1 settings made for charge
set type 2 charge ${q2}
set type 2 charge 0.00012
Setting atom values ...
  4 settings made for charge

run 100000
PPPM initialization ...
  extracting TIP4P info from pair style
  using 12-bit tables for long-range coulomb (src/lammps/src/kspace.cpp:339)
  G vector (1/distance) = 0.2852746
  grid = 15 15 15
  stencil order = 5
  estimated absolute RMS force accuracy = 0.014795825
  estimated relative force accuracy = 4.4557189e-05
  using double precision FFTW3
  3d grid and FFT values/proc = 2744 512
Neighbor list info ...
  update every 1 steps, delay 10 steps, check yes
  max neighbors/atom: 2000, page size: 100000
  master list distance cutoff = 12.25
  ghost atom cutoff = 12.25
  binsize = 6.125, bins = 4 4 4
  3 neighbor lists, perpetual/occasional/extra = 3 0 0
  (1) pair lj/cut/coul/long, perpetual, skip from (3)
      attributes: half, newton on
      pair build: skip
      stencil: none
      bin: none
  (2) pair lj/cut/tip4p/long/soft, perpetual, skip from (3)
      attributes: half, newton on
      pair build: skip
      stencil: none
      bin: none
  (3) neighbor class addition, perpetual
      attributes: half, newton on
      pair build: half/bin/newton
      stencil: half/bin/3d/newton
      bin: standard
adapt  lambda = 0.002  q1 = -0.00048  q2 = 0.00012
Per MPI rank memory allocation (min/avg/max) = 12.26 | 12.27 | 12.28 Mbytes
---------------- Step  2000000 ----- CPU =      0.0000 (sec) ----------------
TotEng   =     -3336.9068 KinEng   =       618.0878 Temp     =       286.4028 
PotEng   =     -3954.9947 E_bond   =         1.0415 E_angle  =         2.3742 
E_dihed  =         0.0000 E_impro  =         0.0000 E_vdwl   =       772.3043 
E_coul   =     26954.1627 E_long   =    -31684.8773 Press    =      -162.9194 
Volume   =     11143.2691 
---------------- Step  2005000 ----- CPU =     51.5141 (sec) ----------------
TotEng   =     -3278.7513 KinEng   =       661.6356 Temp     =       306.5815 
PotEng   =     -3940.3868 E_bond   =         1.1592 E_angle  =         4.9466 
E_dihed  =         0.0000 E_impro  =         0.0000 E_vdwl   =       760.2430 
E_coul   =     26976.8807 E_long   =    -31683.6163 Press    =       917.8655 
Volume   =     10767.8354 
---------------- Step  2010000 ----- CPU =    102.5418 (sec) ----------------
TotEng   =     -3272.8067 KinEng   =       695.4629 Temp     =       322.2561 
PotEng   =     -3968.2696 E_bond   =         2.2827 E_angle  =         2.7321 
E_dihed  =         0.0000 E_impro  =         0.0000 E_vdwl   =       722.1227 
E_coul   =     26989.2795 E_long   =    -31684.6866 Press    =      -261.2774 
Volume   =     11035.8731 
---------------- Step  2015000 ----- CPU =    154.1130 (sec) ----------------
TotEng   =     -3329.9196 KinEng   =       641.3813 Temp     =       297.1963 
PotEng   =     -3971.3009 E_bond   =         0.2282 E_angle  =         2.6924 
E_dihed  =         0.0000 E_impro  =         0.0000 E_vdwl   =       728.9862 
E_coul   =     26979.6401 E_long   =    -31682.8479 Press    =      -617.0706 
Volume   =     10985.6722 
---------------- Step  2020000 ----- CPU =    206.2874 (sec) ----------------
TotEng   =     -3350.0914 KinEng   =       642.0038 Temp     =       297.4848 
PotEng   =     -3992.0952 E_bond   =         0.3854 E_angle  =         1.9935 
E_dihed  =         0.0000 E_impro  =         0.0000 E_vdwl   =       797.5639 
E_coul   =     26891.7118 E_long   =    -31683.7499 Press    =      1008.1989 
Volume   =     10698.5120 
---------------- Step  2025000 ----- CPU =    261.1340 (sec) ----------------
TotEng   =     -3355.9516 KinEng   =       655.4873 Temp     =       303.7326 
PotEng   =     -4011.4389 E_bond   =         0.2986 E_angle  =         3.3414 
E_dihed  =         0.0000 E_impro  =         0.0000 E_vdwl   =       831.4469 
E_coul   =     26837.2389 E_long   =    -31683.7647 Press    =      1221.1857 
Volume   =     10951.0712 
---------------- Step  2030000 ----- CPU =    316.9698 (sec) ----------------
TotEng   =     -3308.7873 KinEng   =       633.7997 Temp     =       293.6832 
PotEng   =     -3942.5870 E_bond   =         0.8184 E_angle  =         4.9599 
E_dihed  =         0.0000 E_impro  =         0.0000 E_vdwl   =       777.9578 
E_coul   =     26954.9926 E_long   =    -31681.3157 Press    =       492.8836 
Volume   =     11115.5825 
---------------- Step  2035000 ----- CPU =    372.8536 (sec) ----------------
TotEng   =     -3329.3742 KinEng   =       655.5178 Temp     =       303.7467 
PotEng   =     -3984.8920 E_bond   =         0.3887 E_angle  =         1.8486 
E_dihed  =         0.0000 E_impro  =         0.0000 E_vdwl   =       736.4747 
E_coul   =     26960.7726 E_long   =    -31684.3766 Press    =      -644.9853 
Volume   =     10982.9001 
---------------- Step  2040000 ----- CPU =    428.5986 (sec) ----------------
TotEng   =     -3359.0034 KinEng   =       614.6847 Temp     =       284.8259 
PotEng   =     -3973.6880 E_bond   =         0.8163 E_angle  =         4.9766 
E_dihed  =         0.0000 E_impro  =         0.0000 E_vdwl   =       770.7090 
E_coul   =     26932.5890 E_long   =    -31682.7788 Press    =       484.0745 
Volume   =     10917.5151 
---------------- Step  2045000 ----- CPU =    484.1162 (sec) ----------------
TotEng   =     -3331.2004 KinEng   =       660.7385 Temp     =       306.1658 
PotEng   =     -3991.9389 E_bond   =         0.5272 E_angle  =         2.7331 
E_dihed  =         0.0000 E_impro  =         0.0000 E_vdwl   =       784.6071 
E_coul   =     26905.3279 E_long   =    -31685.1342 Press    =       448.8707 
Volume   =     10925.7186 
---------------- Step  2050000 ----- CPU =    540.0024 (sec) ----------------
TotEng   =     -3295.4499 KinEng   =       670.2465 Temp     =       310.5716 
PotEng   =     -3965.6965 E_bond   =         0.9801 E_angle  =         2.5627 
E_dihed  =         0.0000 E_impro  =         0.0000 E_vdwl   =       750.7794 
E_coul   =     26963.4476 E_long   =    -31683.4662 Press    =        83.7800 
Volume   =     10931.6003 
---------------- Step  2055000 ----- CPU =    594.8024 (sec) ----------------
TotEng   =     -3342.1756 KinEng   =       657.8611 Temp     =       304.8326 
PotEng   =     -4000.0367 E_bond   =         3.7519 E_angle  =         1.5147 
E_dihed  =         0.0000 E_impro  =         0.0000 E_vdwl   =       731.6598 
E_coul   =     26948.1088 E_long   =    -31685.0720 Press    =      -862.8963 
Volume   =     10810.9191 
---------------- Step  2060000 ----- CPU =    651.8083 (sec) ----------------
TotEng   =     -3333.4929 KinEng   =       667.8716 Temp     =       309.4711 
PotEng   =     -4001.3645 E_bond   =         0.9036 E_angle  =         3.4591 
E_dihed  =         0.0000 E_impro  =         0.0000 E_vdwl   =       812.2752 
E_coul   =     26862.7171 E_long   =    -31680.7194 Press    =       833.6481 
Volume   =     10834.7651 
---------------- Step  2065000 ----- CPU =    709.1562 (sec) ----------------
TotEng   =     -3400.2503 KinEng   =       600.0759 Temp     =       278.0567 
PotEng   =     -4000.3262 E_bond   =         0.4703 E_angle  =         4.0575 
E_dihed  =         0.0000 E_impro  =         0.0000 E_vdwl   =       731.7683 
E_coul   =     26948.5307 E_long   =    -31685.1529 Press    =      -609.3504 
Volume   =     10877.4508 
---------------- Step  2070000 ----- CPU =    765.3239 (sec) ----------------
TotEng   =     -3266.2786 KinEng   =       638.7385 Temp     =       295.9717 
PotEng   =     -3905.0171 E_bond   =         0.5838 E_angle  =         4.2752 
E_dihed  =         0.0000 E_impro  =         0.0000 E_vdwl   =       737.9952 
E_coul   =     27032.0299 E_long   =    -31679.9013 Press    =       401.4291 
Volume   =     10878.1390 
---------------- Step  2075000 ----- CPU =    819.5152 (sec) ----------------
TotEng   =     -3281.5573 KinEng   =       635.4862 Temp     =       294.4647 
PotEng   =     -3917.0435 E_bond   =         1.3144 E_angle  =         2.2451 
E_dihed  =         0.0000 E_impro  =         0.0000 E_vdwl   =       744.7358 
E_coul   =     27018.9413 E_long   =    -31684.2801 Press    =       442.4511 
Volume   =     10885.0901 
---------------- Step  2080000 ----- CPU =    873.2274 (sec) ----------------
TotEng   =     -3310.8614 KinEng   =       681.4130 Temp     =       315.7458 
PotEng   =     -3992.2744 E_bond   =         1.7451 E_angle  =         1.6718 
E_dihed  =         0.0000 E_impro  =         0.0000 E_vdwl   =       793.3973 
E_coul   =     26897.7111 E_long   =    -31686.7997 Press    =      1160.8678 
Volume   =     10755.4855 
---------------- Step  2085000 ----- CPU =    929.0727 (sec) ----------------
TotEng   =     -3374.2837 KinEng   =       617.2640 Temp     =       286.0211 
PotEng   =     -3991.5477 E_bond   =         0.6708 E_angle  =         1.5283 
E_dihed  =         0.0000 E_impro  =         0.0000 E_vdwl   =       719.1531 
E_coul   =     26971.4833 E_long   =    -31684.3831 Press    =      -552.3824 
Volume   =     10709.3412 
---------------- Step  2090000 ----- CPU =    985.8244 (sec) ----------------
TotEng   =     -3352.2107 KinEng   =       631.5205 Temp     =       292.6271 
PotEng   =     -3983.7313 E_bond   =         3.5282 E_angle  =         1.9075 
E_dihed  =         0.0000 E_impro  =         0.0000 E_vdwl   =       732.8526 
E_coul   =     26962.0175 E_long   =    -31684.0371 Press    =      -954.2491 
Volume   =     10942.6624 
---------------- Step  2095000 ----- CPU =   1041.4175 (sec) ----------------
TotEng   =     -3251.4050 KinEng   =       642.8790 Temp     =       297.8903 
PotEng   =     -3894.2840 E_bond   =         0.2373 E_angle  =         2.9757 
E_dihed  =         0.0000 E_impro  =         0.0000 E_vdwl   =       701.8381 
E_coul   =     27081.4269 E_long   =    -31680.7620 Press    =      -219.3154 
Volume   =     10929.9387 
adapt  lambda = 0.002  q1 = -0.00048  q2 = 0.00012
---------------- Step  2100000 ----- CPU =   1097.1460 (sec) ----------------
TotEng   =     -3301.3883 KinEng   =       663.3629 Temp     =       307.3819 
PotEng   =     -3964.7512 E_bond   =         0.2515 E_angle  =         2.9146 
E_dihed  =         0.0000 E_impro  =         0.0000 E_vdwl   =       792.6339 
E_coul   =     26923.2390 E_long   =    -31683.7902 Press    =       539.1404 
Volume   =     11227.0792 
Loop time of 1097.15 on 8 procs for 100000 steps with 1085 atoms

Performance: 7.875 ns/day, 3.048 hours/ns, 91.146 timesteps/s
98.0% CPU use with 8 MPI tasks x 1 OpenMP threads

MPI task timing breakdown:
Section |  min time  |  avg time  |  max time  |%varavg| %total
---------------------------------------------------------------
Pair    | 733.25     | 814.2      | 902.9      | 193.3 | 74.21
Bond    | 0.12474    | 0.12794    | 0.13168    |   0.6 |  0.01
Kspace  | 98.696     | 187.48     | 268.5      | 403.0 | 17.09
Neigh   | 16.805     | 16.808     | 16.814     |   0.1 |  1.53
Comm    | 26.951     | 28.07      | 31.917     |  28.7 |  2.56
Output  | 0.0048921  | 0.004953   | 0.0053598  |   0.2 |  0.00
Modify  | 32.993     | 44.356     | 46.787     |  65.1 |  4.04
Other   |            | 6.093      |            |       |  0.56

Nlocal:        135.625 ave         148 max         118 min
Histogram: 1 0 0 0 1 2 0 2 1 1
Nghost:        4234.00 ave        4342 max        4148 min
Histogram: 1 1 0 2 1 1 0 1 0 1
Neighs:        1.25000 ave           7 max           0 min
Histogram: 6 0 0 0 1 0 0 0 0 1

Total # of neighbors = 10
Ave neighs/atom = 0.0092165899
Ave special neighs/atom = 2.0092166
Neighbor list builds = 4016
Dangerous builds = 0

# write_restart restart.*.lmp
write_data data.*.lmp
System init for write_data ...
PPPM initialization ...
  extracting TIP4P info from pair style
  using 12-bit tables for long-range coulomb (src/lammps/src/kspace.cpp:339)
  G vector (1/distance) = 0.28507733
  grid = 15 15 15
  stencil order = 5
  estimated absolute RMS force accuracy = 0.014907585
  estimated relative force accuracy = 4.4893749e-05
  using double precision FFTW3
  3d grid and FFT values/proc = 2744 512
Neighbor list info ...
  update every 1 steps, delay 10 steps, check yes
  max neighbors/atom: 2000, page size: 100000
  master list distance cutoff = 12.25
  ghost atom cutoff = 12.25
  binsize = 6.125, bins = 4 4 4
  3 neighbor lists, perpetual/occasional/extra = 3 0 0
  (1) pair lj/cut/coul/long, perpetual, skip from (3)
      attributes: half, newton on
      pair build: skip
      stencil: none
      bin: none
  (2) pair lj/cut/tip4p/long/soft, perpetual, skip from (3)
      attributes: half, newton on
      pair build: skip
      stencil: none
      bin: none
  (3) neighbor class addition, perpetual
      attributes: half, newton on
      pair build: half/bin/newton
      stencil: half/bin/3d/newton
      bin: standard
Total wall time: 6:40:07
