LAMMPS description

3910    atoms
512     bonds
384     angles

5       atom types
3       bond types
3       angle types

-27.712999 27.712999 xlo xhi
-27.712999 27.712999 ylo yhi
-200.000000 200.000000 zlo zhi

Atoms

1 1 1 -0.1118 -21.3730 31.4700 51.8330 # SO4
2 1 2  0.0000 -20.5380 28.2430 54.1480 # CM
3 1 2  0.0000 -18.9420 25.8370 55.3690 # CM
4 1 2  0.0000 -17.9450 23.5570 57.3970 # CM
5 1 3  0.0000 -19.3990 20.5650 58.4030 # CT
6 2 1 -0.1118 -11.2290 20.2680 46.9790 # SO4
7 2 2  0.0000 -11.1000 22.3610 50.0810 # CM
8 2 2  0.0000 -9.5420 24.8800 52.1370 # CM
9 2 2  0.0000 -10.6230 28.0850 53.9460 # CM
10 2 3  0.0000 -12.2370 28.7490 57.2930 # CT
11 3 1 -0.1118 -27.1710 23.8860 47.1150 # SO4
12 3 2  0.0000 -26.6140 25.5650 50.3340 # CM
13 3 2  0.0000 -25.6690 25.7780 53.8120 # CM
14 3 2  0.0000 -24.4270 24.5780 56.9690 # CM
15 3 3  0.0000 -23.8520 25.2970 60.4950 # CT
16 4 1 -0.1118 20.7910 -25.7340 47.5850 # SO4
17 4 2  0.0000 22.9330 -26.0020 50.3870 # CM
18 4 2  0.0000 25.0200 -27.2330 53.5180 # CM
19 4 2  0.0000 26.0920 -27.3070 57.0130 # CM
20 4 3  0.0000 26.7770 -26.7980 60.1220 # CT
21 5 1 -0.1118 -16.5360 24.8720 46.7610 # SO4
22 5 2  0.0000 -14.7700 24.5890 50.3260 # CM
23 5 2  0.0000 -14.7590 24.8060 53.8100 # CM
24 5 2  0.0000 -13.5400 22.6060 56.2070 # CM
25 5 3  0.0000 -12.8950 21.8610 59.8950 # CT
26 6 1 -0.1118 -3.3980 -18.2560 49.6800 # SO4
27 6 2  0.0000 -4.5230 -20.7800 51.8270 # CM
28 6 2  0.0000 -5.3960 -24.1210 53.1750 # CM
29 6 2  0.0000 -6.4920 -26.5200 55.7600 # CM
30 6 3  0.0000 -8.1780 -29.2640 57.2030 # CT
31 7 1 -0.1118 -13.7190 -23.4730 47.9650 # SO4
32 7 2  0.0000 -13.3840 -26.5730 50.0430 # CM
33 7 2  0.0000 -13.6460 -23.9670 52.6710 # CM
34 7 2  0.0000 -12.8640 -21.4240 55.0860 # CM
35 7 3  0.0000 -9.1990 -21.3110 55.1300 # CT
36 8 1 -0.1118 -7.2690  8.8800 50.9720 # SO4
37 8 2  0.0000 -6.4120  9.5840 54.5100 # CM
38 8 2  0.0000 -6.7860 11.8660 57.3940 # CM
39 8 2  0.0000 -7.8380  9.4450 59.5560 # CM
40 8 3  0.0000 -10.0890  7.6410 62.1090 # CT
41 9 1 -0.1118 19.9270 15.0910 47.7040 # SO4
42 9 2  0.0000 18.0910 16.7330 50.4270 # CM
43 9 2  0.0000 16.6770 16.2370 54.2940 # CM
44 9 2  0.0000 13.8880 14.2030 55.3240 # CM
45 9 3  0.0000 10.1870 15.1820 55.2810 # CT
46 10 1 -0.1118 -27.6330 14.3010 51.1990 # SO4
47 10 2  0.0000 -26.8150 15.1920 54.7110 # CM
48 10 2  0.0000 -26.6560 15.2370 58.2440 # CM
49 10 2  0.0000 -23.4870 16.7190 59.9450 # CM
50 10 3  0.0000 -20.0540 15.5140 60.6920 # CT
51 11 1 -0.1118 22.5600 -21.3630 47.3110 # SO4
52 11 2  0.0000 22.4610 -21.5280 50.7140 # CM
53 11 2  0.0000 24.8260 -22.1500 52.9290 # CM
54 11 2  0.0000 25.9460 -22.3150 56.4220 # CM
55 11 3  0.0000 25.7280 -18.9520 58.0450 # CT
56 12 1 -0.1118 24.2480  7.2210 48.3660 # SO4
57 12 2  0.0000 25.1680  6.4650 51.5690 # CM
58 12 2  0.0000 27.3580  4.4590 53.9490 # CM
59 12 2  0.0000 27.8930  4.4910 57.3160 # CM
60 12 3  0.0000 27.4150  5.4010 61.0870 # CT
61 13 1 -0.1118  0.1610 -21.4520 47.9920 # SO4
62 13 2  0.0000  0.3070 -23.2500 51.0120 # CM
63 13 2  0.0000  1.9570 -24.4140 53.4760 # CM
64 13 2  0.0000  2.4820 -22.2900 55.8410 # CM
65 13 3  0.0000  1.9760 -19.7720 58.2260 # CT
66 14 1 -0.1118 -7.1870 27.2300 47.6610 # SO4
67 14 2  0.0000 -5.0650 27.5460 50.3100 # CM
68 14 2  0.0000 -2.4070 26.4780 52.9420 # CM
69 14 2  0.0000 -1.3090 27.2950 56.3990 # CM
70 14 3  0.0000 -2.4660 28.8580 59.6180 # CT
71 15 1 -0.1118 11.1220 -24.7920 50.7240 # SO4
72 15 2  0.0000 12.1810 -26.6720 53.7410 # CM
73 15 2  0.0000 13.8390 -28.8400 55.9690 # CM
74 15 2  0.0000 17.3900 -29.1120 56.0920 # CM
75 15 3  0.0000 20.5950 -30.5350 57.3790 # CT
76 16 1 -0.1118 21.0680 -16.9970 45.1080 # SO4
77 16 2  0.0000 21.9410 -17.1300 48.5390 # CM
78 16 2  0.0000 23.7280 -17.2160 51.5120 # CM
79 16 2  0.0000 26.8890 -15.8700 52.8850 # CM
80 16 3  0.0000 29.6770 -15.6740 55.1510 # CT
81 17 1 -0.1118 16.3550 25.4290 47.8670 # SO4
82 17 2  0.0000 19.0520 25.4320 50.0270 # CM
83 17 2  0.0000 22.0050 24.7250 51.3420 # CM
84 17 2  0.0000 24.5590 22.9210 53.8390 # CM
85 17 3  0.0000 26.4580 23.1880 57.0110 # CT
86 18 1 -0.1118 -6.2850 -13.6470 47.4460 # SO4
87 18 2  0.0000 -4.8760 -13.2500 50.8710 # CM
88 18 2  0.0000 -3.6690 -12.9610 54.2450 # CM
89 18 2  0.0000 -1.6830 -14.0060 56.8830 # CM
90 18 3  0.0000 -3.1690 -12.4970 59.7200 # CT
91 19 1 -0.1118  6.8640 -6.1630 56.5530 # SO4
92 19 2  0.0000  5.2640 -9.0960 55.4880 # CM
93 19 2  0.0000  3.4820 -12.0320 55.4950 # CM
94 19 2  0.0000  4.0760 -14.9740 57.0540 # CM
95 19 3  0.0000  5.7420 -18.0750 56.0910 # CT
96 20 1 -0.1118 12.3480 -22.2270 46.6050 # SO4
97 20 2  0.0000 13.7700 -21.3060 50.0670 # CM
98 20 2  0.0000 15.8060 -22.6300 52.6190 # CM
99 20 2  0.0000 18.1470 -24.2790 55.1120 # CM
100 20 3  0.0000 21.6150 -24.4940 55.5180 # CT
101 21 1 -0.1118 -4.8780 -0.7150 48.3680 # SO4
102 21 2  0.0000 -3.8870 -1.5860 51.6420 # CM
103 21 2  0.0000 -5.7050  0.6080 53.9560 # CM
104 21 2  0.0000 -8.2570  1.7840 55.9510 # CM
105 21 3  0.0000 -11.2400  3.1840 57.6050 # CT
106 22 1 -0.1118 10.2340 -24.9990 43.5800 # SO4
107 22 2  0.0000  8.6680 -25.8110 46.6520 # CM
108 22 2  0.0000  6.9030 -25.7600 50.3330 # CM
109 22 2  0.0000  6.7320 -25.1270 54.1680 # CM
110 22 3  0.0000  4.5600 -26.6070 56.4740 # CT
111 23 1 -0.1118 15.0580 19.5160 45.4120 # SO4
112 23 2  0.0000 15.1220 20.5510 49.0360 # CM
113 23 2  0.0000 17.2290 20.8780 52.3920 # CM
114 23 2  0.0000 19.7190 21.1380 55.1770 # CM
115 23 3  0.0000 22.7490 19.4570 56.9180 # CT
116 24 1 -0.1118 18.8870  8.9350 49.2910 # SO4
117 24 2  0.0000 20.9940  7.3490 51.7800 # CM
118 24 2  0.0000 21.9570  7.3150 55.0870 # CM
119 24 2  0.0000 21.4990  5.0370 57.3520 # CM
120 24 3  0.0000 19.5840  2.0700 57.6050 # CT
121 25 1 -0.1118 20.8540 -7.8050 42.6680 # SO4
122 25 2  0.0000 21.1070 -7.9040 46.4230 # CM
123 25 2  0.0000 21.3640 -6.8430 49.7490 # CM
124 25 2  0.0000 19.8050 -6.5140 53.0430 # CM
125 25 3  0.0000 16.3410 -5.8150 54.1170 # CT
126 26 1 -0.1118 -12.8900 10.9920 47.0540 # SO4
127 26 2  0.0000 -14.1450 12.7620 49.9110 # CM
128 26 2  0.0000 -14.8480 14.8040 53.1490 # CM
129 26 2  0.0000 -15.4860 16.3310 56.0720 # CM
130 26 3  0.0000 -16.0850 17.5830 59.0820 # CT
131 27 1 -0.1118 -20.0960 -17.0160 46.8590 # SO4
132 27 2  0.0000 -20.2440 -18.6080 50.1730 # CM
133 27 2  0.0000 -17.9930 -19.9220 52.9480 # CM
134 27 2  0.0000 -18.8270 -23.1330 55.2680 # CM
135 27 3  0.0000 -20.2440 -24.3660 58.6130 # CT
136 28 1 -0.1118 -12.5960 -16.0160 49.6130 # SO4
137 28 2  0.0000 -12.6090 -16.4200 53.1450 # CM
138 28 2  0.0000 -15.5870 -16.2950 55.8240 # CM
139 28 2  0.0000 -17.2850 -16.1800 59.2370 # CM
140 28 3  0.0000 -19.5340 -14.5480 61.9600 # CT
141 29 1 -0.1118 -9.2480 -4.2800 51.8920 # SO4
142 29 2  0.0000 -8.6760 -2.8290 55.1570 # CM
143 29 2  0.0000 -5.1780 -3.5280 56.4350 # CM
144 29 2  0.0000 -2.3740 -2.8990 58.6300 # CM
145 29 3  0.0000  0.1720 -4.8490 60.3570 # CT
146 30 1 -0.1118 -0.2680  8.1910 48.5350 # SO4
147 30 2  0.0000  0.3430  5.4160 50.4410 # CM
148 30 2  0.0000  0.4380  2.0370 52.1280 # CM
149 30 2  0.0000 -0.7820  1.1540 55.3540 # CM
150 30 3  0.0000 -3.3550  1.5480 57.8450 # CT
151 31 1 -0.1118 27.6240 -6.6300 46.1950 # SO4
152 31 2  0.0000 26.0400 -6.4850 49.7370 # CM
153 31 2  0.0000 25.3710 -4.4940 52.5120 # CM
154 31 2  0.0000 24.3660 -2.7440 55.7770 # CM
155 31 3  0.0000 23.8580 -0.2860 58.4820 # CT
156 32 1 -0.1118 13.0660 -11.7810 45.8520 # SO4
157 32 2  0.0000 14.3570 -14.1810 48.2100 # CM
158 32 2  0.0000 16.1120 -16.7740 49.7000 # CM
159 32 2  0.0000 18.9660 -18.3050 52.0680 # CM
160 32 3  0.0000 20.1370 -19.9370 54.4850 # CT
161 33 1 -0.1118 -19.1890 -10.2550 46.2510 # SO4
162 33 2  0.0000 -19.8070 -9.4730 49.8650 # CM
163 33 2  0.0000 -21.3170 -7.1890 52.4250 # CM
164 33 2  0.0000 -22.0800 -6.3710 55.5250 # CM
165 33 3  0.0000 -22.3410 -6.2590 59.4010 # CT
166 34 1 -0.1118  5.2260 -1.5420 51.6040 # SO4
167 34 2  0.0000  4.7660  0.9120 54.1530 # CM
168 34 2  0.0000  3.6850  2.9230 57.0890 # CM
169 34 2  0.0000  2.1420  5.0060 59.7830 # CM
170 34 3  0.0000  0.9200  7.7980 61.5090 # CT
171 35 1 -0.1118 -11.4330  1.0520 52.7000 # SO4
172 35 2  0.0000 -14.2430  1.2250 55.0600 # CM
173 35 2  0.0000 -14.4490  4.9400 54.8790 # CM
174 35 2  0.0000 -16.0400  7.3630 56.9630 # CM
175 35 3  0.0000 -18.5540  7.1210 59.0450 # CT
176 36 1 -0.1118 21.0140 -12.5350 43.3320 # SO4
177 36 2  0.0000 21.3180 -12.7430 46.5800 # CM
178 36 2  0.0000 22.3920 -11.6720 49.6750 # CM
179 36 2  0.0000 25.7640 -11.1970 50.3560 # CM
180 36 3  0.0000 28.7620 -11.2490 52.5260 # CT
181 37 1 -0.1118 -20.0270  4.0620 45.4890 # SO4
182 37 2  0.0000 -19.0410  4.5310 48.7510 # CM
183 37 2  0.0000 -19.9580  5.8470 52.3800 # CM
184 37 2  0.0000 -21.8700  8.0000 54.7150 # CM
185 37 3  0.0000 -24.2040  7.8060 57.4550 # CT
186 38 1 -0.1118 -22.7020 -2.7800 47.7920 # SO4
187 38 2  0.0000 -24.3630 -5.2090 49.6650 # CM
188 38 2  0.0000 -25.2900 -4.4820 52.5770 # CM
189 38 2  0.0000 -26.1960 -4.4390 56.1640 # CM
190 38 3  0.0000 -27.1640 -3.2510 59.2600 # CT
191 39 1 -0.1118 23.3340 -0.5730 45.4830 # SO4
192 39 2  0.0000 22.1820 -2.6120 48.3300 # CM
193 39 2  0.0000 20.9610 -2.2400 51.8600 # CM
194 39 2  0.0000 19.3660 -2.1280 54.7480 # CM
195 39 3  0.0000 17.5560 -2.2130 57.7370 # CT
196 40 1 -0.1118  6.6510 -16.9180 48.7160 # SO4
197 40 2  0.0000  8.2070 -16.6230 51.8460 # CM
198 40 2  0.0000 10.1070 -19.1550 54.0220 # CM
199 40 2  0.0000 11.5460 -22.2480 55.1440 # CM
200 40 3  0.0000 12.2860 -23.7420 58.3580 # CT
201 41 1 -0.1118 12.5900  9.8110 46.3650 # SO4
202 41 2  0.0000 13.3980  9.4010 49.8090 # CM
203 41 2  0.0000 15.3810  8.9720 52.6310 # CM
204 41 2  0.0000 16.0300  9.6080 56.3690 # CM
205 41 3  0.0000 18.8910  9.8030 58.1620 # CT
206 42 1 -0.1118 -1.1940 -5.9340 45.9940 # SO4
207 42 2  0.0000 -2.1010 -5.3390 49.5450 # CM
208 42 2  0.0000 -4.2890 -6.0220 51.8880 # CM
209 42 2  0.0000 -6.4650 -7.9940 54.3820 # CM
210 42 3  0.0000 -9.5320 -7.3760 55.9190 # CT
211 43 1 -0.1118 -14.9360  5.2470 48.3110 # SO4
212 43 2  0.0000 -16.0940  7.7070 50.3540 # CM
213 43 2  0.0000 -16.0930 10.0340 52.6930 # CM
214 43 2  0.0000 -17.8760 11.1340 55.4450 # CM
215 43 3  0.0000 -17.1740 12.4190 58.8300 # CT
216 44 1 -0.1118  5.5470 -3.1120 47.6300 # SO4
217 44 2  0.0000  6.8910 -5.8310 49.4890 # CM
218 44 2  0.0000  8.0700 -7.2130 51.9960 # CM
219 44 2  0.0000  9.5790 -9.7050 54.5560 # CM
220 44 3  0.0000  9.0520 -12.8850 55.8900 # CT
221 45 1 -0.1118 13.5430  2.8320 49.4830 # SO4
222 45 2  0.0000 11.4080  3.8630 52.1490 # CM
223 45 2  0.0000  8.9330  3.2240 54.4180 # CM
224 45 2  0.0000  7.4810  5.6740 56.3130 # CM
225 45 3  0.0000  6.0440  9.1770 56.5670 # CT
226 46 1 -0.1118 -24.4950 -18.4570 47.2430 # SO4
227 46 2  0.0000 -25.2430 -20.6390 49.7800 # CM
228 46 2  0.0000 -26.5870 -20.3070 52.7370 # CM
229 46 2  0.0000 -24.4860 -20.1610 55.2910 # CM
230 46 3  0.0000 -21.6160 -18.5260 57.9340 # CT
231 47 1 -0.1118 -19.4130 18.2810 46.3180 # SO4
232 47 2  0.0000 -19.8920 18.9950 49.6360 # CM
233 47 2  0.0000 -20.0610 17.2300 53.1510 # CM
234 47 2  0.0000 -21.0770 15.4850 56.2940 # CM
235 47 3  0.0000 -22.7420 12.1820 56.2400 # CT
236 48 1 -0.1118  1.7090 27.0520 42.4900 # SO4
237 48 2  0.0000  1.2060 27.0320 46.0760 # CM
238 48 2  0.0000  2.4870 27.8580 49.4800 # CM
239 48 2  0.0000  2.7430 26.5970 52.7000 # CM
240 48 3  0.0000  2.3120 24.3050 55.2370 # CT
241 49 1 -0.1118 -21.6230 -25.1880 46.5860 # SO4
242 49 2  0.0000 -24.2470 -25.5610 49.0750 # CM
243 49 2  0.0000 -26.1100 -25.5210 52.2170 # CM
244 49 2  0.0000 -25.0970 -25.1800 55.0580 # CM
245 49 3  0.0000 -24.6300 -24.0010 58.5880 # CT
246 50 1 -0.1118 -1.0690 16.3570 49.1170 # SO4
247 50 2  0.0000 -3.4580 17.9300 51.1420 # CM
248 50 2  0.0000 -6.0930 18.6790 53.4090 # CM
249 50 2  0.0000 -6.7980 21.6540 55.1900 # CM
250 50 3  0.0000 -3.8200 22.8080 56.4910 # CT
251 51 1 -0.1118 25.2930 -8.0750 55.5070 # SO4
252 51 2  0.0000 22.5500 -8.8330 57.9520 # CM
253 51 2  0.0000 20.1510 -11.8090 58.0520 # CM
254 51 2  0.0000 16.2730 -12.4110 58.1560 # CM
255 51 3  0.0000 14.0410 -13.0000 55.5660 # CT
256 52 1 -0.1118 -1.0570  5.5120 54.5170 # SO4
257 52 2  0.0000 -4.5010  5.4330 54.2910 # CM
258 52 2  0.0000 -8.1120  5.4650 53.1970 # CM
259 52 2  0.0000 -10.1040  7.4260 55.1650 # CM
260 52 3  0.0000 -12.1720 10.5820 55.8660 # CT
261 53 1 -0.1118  6.2110 22.1930 51.7030 # SO4
262 53 2  0.0000  5.3530 19.3200 53.7150 # CM
263 53 2  0.0000  4.6980 17.5690 56.8510 # CM
264 53 2  0.0000  2.5640 15.3180 58.3110 # CM
265 53 3  0.0000  2.5690 11.4820 58.6490 # CT
266 54 1 -0.1118 22.5970  2.3750 50.3590 # SO4
267 54 2  0.0000 24.2100  0.8850 52.9390 # CM
268 54 2  0.0000 27.5990 -0.5250 53.6470 # CM
269 54 2  0.0000 30.7820  0.2400 55.2460 # CM
270 54 3  0.0000 30.9290  1.1130 58.3790 # CT
271 55 1 -0.1118 -8.6730 -17.9650 47.2680 # SO4
272 55 2  0.0000 -7.6540 -17.1890 50.6410 # CM
273 55 2  0.0000 -6.4170 -16.1960 54.1010 # CM
274 55 2  0.0000 -5.5170 -18.1820 56.6930 # CM
275 55 3  0.0000 -2.9840 -20.5050 56.9490 # CT
276 56 1 -0.1118 -18.9030 13.7330 46.1220 # SO4
277 56 2  0.0000 -19.3190 12.5140 49.3940 # CM
278 56 2  0.0000 -21.9070 12.7640 51.4800 # CM
279 56 2  0.0000 -24.7900 10.8210 52.8290 # CM
280 56 3  0.0000 -27.9380  9.4580 54.3600 # CT
281 57 1 -0.1118  5.5440  3.8390 42.6610 # SO4
282 57 2  0.0000  7.1550  3.1430 46.1750 # CM
283 57 2  0.0000  8.6640  0.8470 49.0360 # CM
284 57 2  0.0000 10.4580 -0.8110 51.6390 # CM
285 57 3  0.0000  8.7770 -2.9200 53.8930 # CT
286 58 1 -0.1118 -23.8170 21.4780 50.5970 # SO4
287 58 2  0.0000 -21.4770 23.5310 51.9720 # CM
288 58 2  0.0000 -18.2720 22.6470 52.2930 # CM
289 58 2  0.0000 -15.6760 20.2640 53.2310 # CM
290 58 3  0.0000 -12.4830 19.2360 52.8110 # CT
291 59 1 -0.1118 -7.8500 12.9910 47.7850 # SO4
292 59 2  0.0000 -8.7650 13.8120 51.0020 # CM
293 59 2  0.0000 -9.6080 14.2700 54.3970 # CM
294 59 2  0.0000 -9.5280 17.2770 56.8420 # CM
295 59 3  0.0000 -9.6650 18.3970 60.0050 # CT
296 60 1 -0.1118 -12.7270 -10.6420 53.8750 # SO4
297 60 2  0.0000 -16.4440 -11.6700 53.1390 # CM
298 60 2  0.0000 -20.1530 -12.3730 54.0490 # CM
299 60 2  0.0000 -22.7900 -11.6000 56.3320 # CM
300 60 3  0.0000 -22.8900 -11.0670 59.9830 # CT
301 61 1 -0.1118  6.3450 11.9800 50.2440 # SO4
302 61 2  0.0000  8.5090 10.2310 52.7310 # CM
303 61 2  0.0000 10.7690  9.9700 55.6390 # CM
304 61 2  0.0000 12.0680  6.9410 55.7770 # CM
305 61 3  0.0000 12.9370  3.7780 57.1230 # CT
306 62 1 -0.1118 13.0080 -1.8490 44.2670 # SO4
307 62 2  0.0000 14.0020 -0.4850 47.1330 # CM
308 62 2  0.0000 14.8350 -1.5080 50.4410 # CM
309 62 2  0.0000 14.7270 -0.6230 53.8120 # CM
310 62 3  0.0000 12.7500 -1.6370 56.3250 # CT
311 63 1 -0.1118 15.1660 -5.0320 47.5160 # SO4
312 63 2  0.0000 15.8500 -8.4370 49.2630 # CM
313 63 2  0.0000 17.2490 -10.9110 51.4900 # CM
314 63 2  0.0000 19.5020 -13.6250 52.7670 # CM
315 63 3  0.0000 21.5660 -15.1470 55.3600 # CT
316 64 1 -0.1118 -1.1740 -13.7390 48.9040 # SO4
317 64 2  0.0000 -0.1610 -10.6920 50.6520 # CM
318 64 2  0.0000 -1.3880 -8.6350 53.3990 # CM
319 64 2  0.0000 -2.6060 -8.2340 57.1370 # CM
320 64 3  0.0000 -5.6410 -8.6350 58.8580 # CT
321 65 1 -0.1118  8.1520 21.4410 -42.6700 # SO4
322 65 2  0.0000  9.8880 19.8130 -45.7080 # CM
323 65 2  0.0000 10.1430 18.6330 -48.5530 # CM
324 65 2  0.0000 10.2630 18.8420 -52.2360 # CM
325 65 3  0.0000 10.0890 20.4990 -55.4110 # CT
326 66 1 -0.1118 -13.7650 -14.2710 -42.4290 # SO4
327 66 2  0.0000 -11.1600 -13.0880 -44.9000 # CM
328 66 2  0.0000 -8.6500 -13.0690 -46.9280 # CM
329 66 2  0.0000 -6.0780 -11.9990 -49.5460 # CM
330 66 3  0.0000 -3.5220 -10.6300 -52.3740 # CT
331 67 1 -0.1118 -8.4150 -8.4050 -45.1330 # SO4
332 67 2  0.0000 -5.8650 -6.7100 -46.6860 # CM
333 67 2  0.0000 -3.8090 -6.3650 -49.7050 # CM
334 67 2  0.0000 -5.0040 -3.5280 -51.7100 # CM
335 67 3  0.0000 -7.7960 -1.2890 -51.7240 # CT
336 68 1 -0.1118  9.2590 -10.2790 -42.9360 # SO4
337 68 2  0.0000  8.9850 -10.4600 -46.4190 # CM
338 68 2  0.0000  7.0730 -11.4080 -48.9760 # CM
339 68 2  0.0000  5.4700 -11.7140 -52.5360 # CM
340 68 3  0.0000  6.9000 -14.4750 -54.6350 # CT
341 69 1 -0.1118 24.8260 -8.6000 -49.0560 # SO4
342 69 2  0.0000 21.8650 -10.8570 -50.2760 # CM
343 69 2  0.0000 19.0650 -12.8910 -51.4320 # CM
344 69 2  0.0000 16.0290 -13.4910 -52.8790 # CM
345 69 3  0.0000 13.1020 -14.1320 -55.2070 # CT
346 70 1 -0.1118 -24.9310 22.1640 -43.9380 # SO4
347 70 2  0.0000 -22.5820 21.2730 -46.3080 # CM
348 70 2  0.0000 -21.4350 20.3530 -49.4580 # CM
349 70 2  0.0000 -18.5970 18.8850 -52.3320 # CM
350 70 3  0.0000 -15.0460 17.4050 -52.9970 # CT
351 71 1 -0.1118  1.7590 -5.2310 -41.3730 # SO4
352 71 2  0.0000  1.5680 -5.4800 -44.8390 # CM
353 71 2  0.0000 -0.2620 -4.3690 -47.5920 # CM
354 71 2  0.0000 -0.1020 -4.4890 -51.3680 # CM
355 71 3  0.0000 -0.1070 -3.1290 -54.4770 # CT
356 72 1 -0.1118  5.4540 -20.8890 -44.0220 # SO4
357 72 2  0.0000  5.9150 -17.7580 -45.8490 # CM
358 72 2  0.0000  3.7920 -17.1770 -48.7290 # CM
359 72 2  0.0000  2.4180 -15.0270 -51.4160 # CM
360 72 3  0.0000 -0.1560 -14.0330 -53.8210 # CT
361 73 1 -0.1118 -12.0500 -23.9280 -48.8940 # SO4
362 73 2  0.0000 -9.0210 -22.3660 -49.8800 # CM
363 73 2  0.0000 -9.3340 -19.1320 -50.8000 # CM
364 73 2  0.0000 -8.5780 -15.3520 -51.6230 # CM
365 73 3  0.0000 -4.8530 -15.1130 -52.9500 # CT
366 74 1 -0.1118 14.3260  1.9080 -45.8240 # SO4
367 74 2  0.0000 14.2810  2.0210 -49.5970 # CM
368 74 2  0.0000 12.0610  2.4580 -52.4940 # CM
369 74 2  0.0000  9.6670  1.9210 -55.2150 # CM
370 74 3  0.0000  9.8310 -1.8270 -55.8200 # CT
371 75 1 -0.1118 -20.3500 11.4760 -46.0790 # SO4
372 75 2  0.0000 -18.4410 11.0810 -49.1940 # CM
373 75 2  0.0000 -18.6450 11.6530 -52.7280 # CM
374 75 2  0.0000 -19.1680 14.3110 -54.8820 # CM
375 75 3  0.0000 -18.9260 16.7490 -57.5150 # CT
376 76 1 -0.1118 -12.0430 23.0260 -46.3570 # SO4
377 76 2  0.0000 -10.8420 22.3050 -49.4960 # CM
378 76 2  0.0000 -9.4430 19.5170 -51.2870 # CM
379 76 2  0.0000 -7.4760 19.1370 -53.8540 # CM
380 76 3  0.0000 -4.8290 19.4180 -55.9750 # CT
381 77 1 -0.1118  1.3850 26.3510 -44.7780 # SO4
382 77 2  0.0000  0.3580 24.2190 -47.5050 # CM
383 77 2  0.0000  1.4410 23.3600 -50.1840 # CM
384 77 2  0.0000  2.8870 23.3600 -53.2720 # CM
385 77 3  0.0000  6.4900 22.9880 -53.8270 # CT
386 78 1 -0.1118 -7.6920 -26.3330 -46.2400 # SO4
387 78 2  0.0000 -7.0550 -27.0680 -49.7400 # CM
388 78 2  0.0000 -7.8000 -28.6710 -52.8740 # CM
389 78 2  0.0000 -10.8290 -27.7250 -53.7610 # CM
390 78 3  0.0000 -12.7860 -24.5020 -53.4560 # CT
391 79 1 -0.1118 18.8980 12.1240 -42.5430 # SO4
392 79 2  0.0000 16.1580 12.0940 -44.9600 # CM
393 79 2  0.0000 14.7350 13.0890 -48.1680 # CM
394 79 2  0.0000 11.8700 12.4960 -50.3840 # CM
395 79 3  0.0000  9.1040 13.9960 -51.3640 # CT
396 80 1 -0.1118 -25.2050 -19.2510 -45.4820 # SO4
397 80 2  0.0000 -26.3960 -18.1710 -48.9260 # CM
398 80 2  0.0000 -27.6840 -18.5880 -52.3330 # CM
399 80 2  0.0000 -24.9880 -17.2350 -54.5550 # CM
400 80 3  0.0000 -23.0040 -16.5820 -57.1300 # CT
401 81 1 -0.1118  0.6160 -16.7790 -39.5140 # SO4
402 81 2  0.0000  0.1560 -16.0750 -43.3590 # CM
403 81 2  0.0000  0.6600 -13.6090 -46.2290 # CM
404 81 2  0.0000  0.8580 -11.2970 -49.1930 # CM
405 81 3  0.0000  0.9670 -9.9710 -52.3510 # CT
406 82 1 -0.1118 14.5770 -5.4750 -42.6920 # SO4
407 82 2  0.0000 16.6640 -5.5420 -45.7690 # CM
408 82 2  0.0000 17.2180 -6.4200 -49.3490 # CM
409 82 2  0.0000 19.0650 -7.4640 -52.9450 # CM
410 82 3  0.0000 22.4200 -6.8450 -54.1520 # CT
411 83 1 -0.1118 -26.4490 14.9000 -49.6980 # SO4
412 83 2  0.0000 -25.9150 11.2640 -50.4820 # CM
413 83 2  0.0000 -24.3220  9.3470 -52.4980 # CM
414 83 2  0.0000 -23.5430  6.0200 -51.9260 # CM
415 83 3  0.0000 -22.1680  3.6030 -49.3810 # CT
416 84 1 -0.1118 15.2620 -22.3210 -43.7180 # SO4
417 84 2  0.0000 14.0380 -22.6310 -46.5770 # CM
418 84 2  0.0000 11.8660 -24.1110 -49.3170 # CM
419 84 2  0.0000  8.8230 -25.9420 -49.1550 # CM
420 84 3  0.0000  6.7810 -28.7350 -49.9600 # CT
421 85 1 -0.1118 -16.7630 -11.5660 -43.9770 # SO4
422 85 2  0.0000 -14.8230 -10.9250 -46.8850 # CM
423 85 2  0.0000 -12.6600 -12.5820 -49.4670 # CM
424 85 2  0.0000 -13.8990 -14.9840 -51.7130 # CM
425 85 3  0.0000 -12.9350 -17.7960 -53.6360 # CT
426 86 1 -0.1118 -13.3940 -9.2470 -40.5500 # SO4
427 86 2  0.0000 -13.3840 -8.1440 -43.6210 # CM
428 86 2  0.0000 -14.2580 -5.9390 -46.3290 # CM
429 86 2  0.0000 -14.0300 -3.3490 -48.7500 # CM
430 86 3  0.0000 -12.9490 -1.8770 -51.8910 # CT
431 87 1 -0.1118 12.0910 -14.3940 -40.5010 # SO4
432 87 2  0.0000 10.1110 -14.5620 -43.6910 # CM
433 87 2  0.0000  9.7080 -14.9980 -47.0550 # CM
434 87 2  0.0000  9.8370 -16.2800 -50.5340 # CM
435 87 3  0.0000 10.3720 -18.5380 -52.9520 # CT
436 88 1 -0.1118 22.9420  6.6390 -44.6500 # SO4
437 88 2  0.0000 22.3250  5.1110 -47.8800 # CM
438 88 2  0.0000 20.6880  4.2720 -50.6930 # CM
439 88 2  0.0000 18.7330  1.9130 -52.1950 # CM
440 88 3  0.0000 18.8220 -1.5600 -52.5820 # CT
441 89 1 -0.1118  1.1770 19.2810 -45.1700 # SO4
442 89 2  0.0000 -1.8610 19.3760 -47.3570 # CM
443 89 2  0.0000 -1.9150 19.5550 -51.0840 # CM
444 89 2  0.0000 -0.2130 20.0700 -54.2950 # CM
445 89 3  0.0000 -0.6160 22.9210 -56.5030 # CT
446 90 1 -0.1118 -21.9890 -4.8980 -44.4700 # SO4
447 90 2  0.0000 -21.1870 -2.7140 -47.2550 # CM
448 90 2  0.0000 -21.8430 -1.4830 -50.6770 # CM
449 90 2  0.0000 -24.4420  0.1740 -51.8970 # CM
450 90 3  0.0000 -26.5860  1.4790 -54.3000 # CT
451 91 1 -0.1118 10.3200  9.3110 -44.8020 # SO4
452 91 2  0.0000  9.0270  9.5160 -48.1080 # CM
453 91 2  0.0000  9.8980  8.2830 -51.4060 # CM
454 91 2  0.0000 13.5140  7.9730 -51.4780 # CM
455 91 3  0.0000 16.4100  7.9280 -53.6800 # CT
456 92 1 -0.1118 10.2940 26.3890 -45.8990 # SO4
457 92 2  0.0000 11.4490 23.6980 -48.0430 # CM
458 92 2  0.0000 13.6460 22.5540 -50.3400 # CM
459 92 2  0.0000 16.5740 23.1540 -52.2750 # CM
460 92 3  0.0000 20.2900 23.3070 -52.9640 # CT
461 93 1 -0.1118 -19.6030  1.9800 -42.7220 # SO4
462 93 2  0.0000 -18.8940  1.4060 -46.4210 # CM
463 93 2  0.0000 -17.9970  1.4690 -49.7450 # CM
464 93 2  0.0000 -18.0920  4.0200 -52.7500 # CM
465 93 3  0.0000 -19.1350  6.7860 -54.3290 # CT
466 94 1 -0.1118 13.1850 14.9330 -41.3030 # SO4
467 94 2  0.0000 11.6740 14.1750 -44.3040 # CM
468 94 2  0.0000  8.7820 14.5900 -46.4690 # CM
469 94 2  0.0000  6.0560 16.0540 -48.0840 # CM
470 94 3  0.0000  3.6950 17.2970 -50.2840 # CT
471 95 1 -0.1118 -25.3410 -25.7150 -49.5540 # SO4
472 95 2  0.0000 -24.7630 -22.7390 -51.6730 # CM
473 95 2  0.0000 -25.5360 -21.9460 -55.0480 # CM
474 95 2  0.0000 -25.8720 -23.0580 -58.3770 # CM
475 95 3  0.0000 -25.3470 -24.5820 -61.6450 # CT
476 96 1 -0.1118 18.0170  5.7860 -46.8620 # SO4
477 96 2  0.0000 18.6820  8.4850 -48.8890 # CM
478 96 2  0.0000 20.7380 10.0100 -51.3710 # CM
479 96 2  0.0000 22.1660 13.2170 -52.6540 # CM
480 96 3  0.0000 24.8860 14.7050 -53.6020 # CT
481 97 1 -0.1118 14.2090 27.4730 -41.6830 # SO4
482 97 2  0.0000 14.6650 28.3540 -45.1070 # CM
483 97 2  0.0000 14.5340 27.8090 -48.7300 # CM
484 97 2  0.0000 14.2010 27.2390 -51.8210 # CM
485 97 3  0.0000 12.2510 24.9060 -53.9330 # CT
486 98 1 -0.1118 19.2380 -12.6120 -44.2440 # SO4
487 98 2  0.0000 17.0860 -11.5800 -47.2340 # CM
488 98 2  0.0000 13.9810 -11.8210 -48.3510 # CM
489 98 2  0.0000 11.8020 -10.6950 -50.9140 # CM
490 98 3  0.0000  9.8970 -7.9410 -52.2270 # CT
491 99 1 -0.1118 -2.7430 -19.8110 -42.6160 # SO4
492 99 2  0.0000 -1.0900 -20.4490 -45.9880 # CM
493 99 2  0.0000  1.7180 -20.9840 -48.3010 # CM
494 99 2  0.0000  4.7880 -22.2090 -49.1000 # CM
495 99 3  0.0000  6.1590 -22.0770 -52.8380 # CT
496 100 1 -0.1118 25.5230 -16.8520 -45.3990 # SO4
497 100 2  0.0000 24.0090 -17.1410 -48.4850 # CM
498 100 2  0.0000 22.7290 -16.7900 -51.8160 # CM
499 100 2  0.0000 24.2890 -16.4430 -54.7390 # CM
500 100 3  0.0000 25.0080 -16.2180 -58.7830 # CT
501 101 1 -0.1118 -0.6100 -11.4920 -42.1010 # SO4
502 101 2  0.0000  2.0730 -10.0200 -43.7500 # CM
503 101 2  0.0000  4.3130 -8.8750 -46.1130 # CM
504 101 2  0.0000  5.6000 -6.9540 -48.6770 # CM
505 101 3  0.0000  5.0900 -5.8950 -51.9590 # CT
506 102 1 -0.1118 -25.2260 -0.2170 -47.5240 # SO4
507 102 2  0.0000 -26.9330  2.8040 -48.8850 # CM
508 102 2  0.0000 -28.6950  5.0470 -51.0520 # CM
509 102 2  0.0000 -30.1600  7.6760 -53.4910 # CM
510 102 3  0.0000 -29.8680  9.9410 -56.2130 # CT
511 103 1 -0.1118 -20.6010  6.5020 -41.2810 # SO4
512 103 2  0.0000 -19.8810  6.0950 -44.9110 # CM
513 103 2  0.0000 -17.9000  5.9140 -47.8770 # CM
514 103 2  0.0000 -14.6450  5.1030 -49.4610 # CM
515 103 3  0.0000 -13.0520  4.1150 -52.5790 # CT
516 104 1 -0.1118 -12.5860 14.1040 -46.3170 # SO4
517 104 2  0.0000 -15.1140 15.3430 -48.7570 # CM
518 104 2  0.0000 -18.6730 15.7620 -49.5670 # CM
519 104 2  0.0000 -21.7400 15.1090 -50.9650 # CM
520 104 3  0.0000 -23.9810 15.0690 -53.5840 # CT
521 105 1 -0.1118 -6.0190 -18.3150 -46.7170 # SO4
522 105 2  0.0000 -5.0560 -21.7920 -48.0700 # CM
523 105 2  0.0000 -2.4470 -23.0760 -50.2690 # CM
524 105 2  0.0000 -1.0180 -21.7640 -53.3870 # CM
525 105 3  0.0000  2.0910 -21.8460 -55.1060 # CT
526 106 1 -0.1118  2.0770 -1.2800 -43.9030 # SO4
527 106 2  0.0000  3.1550 -1.4720 -47.4340 # CM
528 106 2  0.0000  3.0580 -0.3190 -50.7790 # CM
529 106 2  0.0000  3.1890  1.4800 -53.7250 # CM
530 106 3  0.0000  2.0760  4.7370 -55.4070 # CT
531 107 1 -0.1118 -6.8470 20.2680 -44.7820 # SO4
532 107 2  0.0000 -6.2930 17.7800 -47.2260 # CM
533 107 2  0.0000 -6.0600 15.6280 -49.8910 # CM
534 107 2  0.0000 -6.4860 12.5510 -52.1900 # CM
535 107 3  0.0000 -9.4530 10.3640 -51.9520 # CT
536 108 1 -0.1118 10.5020 -1.5640 -41.9050 # SO4
537 108 2  0.0000 10.5400 -2.4420 -45.4080 # CM
538 108 2  0.0000 11.8260 -1.8620 -48.6290 # CM
539 108 2  0.0000 13.8330 -2.7680 -51.7860 # CM
540 108 3  0.0000 13.4780 -4.3490 -54.8830 # CT
541 109 1 -0.1118 -20.1020 25.4560 -45.0600 # SO4
542 109 2  0.0000 -19.3020 23.8340 -48.3270 # CM
543 109 2  0.0000 -16.1190 23.9320 -50.1670 # CM
544 109 2  0.0000 -14.1470 23.5920 -53.2720 # CM
545 109 3  0.0000 -12.9770 22.2070 -56.2660 # CT
546 110 1 -0.1118  2.5580  3.7830 -44.6210 # SO4
547 110 2  0.0000  0.0050  2.3880 -46.6860 # CM
548 110 2  0.0000  1.2400  3.8790 -49.7210 # CM
549 110 2  0.0000  4.3080  5.7520 -50.8530 # CM
550 110 3  0.0000  7.6110  3.9930 -51.0990 # CT
551 111 1 -0.1118 -1.7610 -2.0990 -43.5950 # SO4
552 111 2  0.0000 -3.1210 -0.9580 -46.9030 # CM
553 111 2  0.0000 -1.6910 -0.2570 -50.1540 # CM
554 111 2  0.0000 -2.2640  1.6540 -52.8880 # CM
555 111 3  0.0000 -2.3950  3.3620 -56.3170 # CT
556 112 1 -0.1118 -8.1860  3.6910 -43.8690 # SO4
557 112 2  0.0000 -5.3520  3.6300 -46.2180 # CM
558 112 2  0.0000 -2.9890  5.4550 -48.2060 # CM
559 112 2  0.0000 -2.2950  6.5980 -51.4850 # CM
560 112 3  0.0000 -2.0640  8.2940 -54.6330 # CT
561 113 1 -0.1118 22.7880 23.0390 -44.2150 # SO4
562 113 2  0.0000 21.8990 21.2690 -47.2270 # CM
563 113 2  0.0000 19.7790 19.6350 -49.1680 # CM
564 113 2  0.0000 21.6720 18.2300 -51.5270 # CM
565 113 3  0.0000 24.5900 19.9300 -53.1000 # CT
566 114 1 -0.1118 -14.9310  8.2760 -44.1800 # SO4
567 114 2  0.0000 -14.0170  9.3180 -47.6640 # CM
568 114 2  0.0000 -14.2140 10.5210 -51.2120 # CM
569 114 2  0.0000 -12.8900 13.0980 -53.6780 # CM
570 114 3  0.0000 -10.4660 15.3240 -55.1160 # CT
571 115 1 -0.1118  2.6850 14.4140 -43.1490 # SO4
572 115 2  0.0000  1.1460 15.2250 -46.3910 # CM
573 115 2  0.0000 -0.1990 14.6330 -49.5720 # CM
574 115 2  0.0000 -1.1530 14.4720 -53.3700 # CM
575 115 3  0.0000 -3.5750 14.5040 -56.1320 # CT
576 116 1 -0.1118 -15.9230 -17.8580 -41.0620 # SO4
577 116 2  0.0000 -16.2620 -17.3630 -44.5560 # CM
578 116 2  0.0000 -16.7910 -15.3540 -47.7880 # CM
579 116 2  0.0000 -19.2700 -13.8910 -49.6910 # CM
580 116 3  0.0000 -20.4640 -10.7790 -51.7900 # CT
581 117 1 -0.1118 -4.5480 15.3080 -39.8010 # SO4
582 117 2  0.0000 -4.1360 15.5670 -43.0290 # CM
583 117 2  0.0000 -3.8620 13.1640 -45.7790 # CM
584 117 2  0.0000 -4.7680 10.4710 -48.0400 # CM
585 117 3  0.0000 -7.7990  7.8320 -48.4720 # CT
586 118 1 -0.1118 -15.7470 -0.5500 -41.8770 # SO4
587 118 2  0.0000 -14.2920 -0.0610 -45.2750 # CM
588 118 2  0.0000 -12.0740  1.2310 -48.1870 # CM
589 118 2  0.0000 -9.3310  2.8240 -50.7110 # CM
590 118 3  0.0000 -7.4910  3.1400 -54.0580 # CT
591 119 1 -0.1118 15.2340 -14.3330 -44.0190 # SO4
592 119 2  0.0000 14.6970 -15.8910 -47.2940 # CM
593 119 2  0.0000 14.8280 -17.8570 -50.4440 # CM
594 119 2  0.0000 16.8950 -19.4340 -52.4200 # CM
595 119 3  0.0000 19.6350 -19.2000 -54.9970 # CT
596 120 1 -0.1118 24.9190 -2.2200 -46.3450 # SO4
597 120 2  0.0000 25.5170 -0.5120 -49.4860 # CM
598 120 2  0.0000 24.3420  0.6880 -52.7440 # CM
599 120 2  0.0000 22.6270  1.5430 -55.6380 # CM
600 120 3  0.0000 21.3540  3.9460 -57.3740 # CT
601 121 1 -0.1118 20.5750 15.5000 -46.0440 # SO4
602 121 2  0.0000 18.8120 14.5960 -49.3030 # CM
603 121 2  0.0000 17.0770 13.9260 -52.4350 # CM
604 121 2  0.0000 14.1490 13.4980 -54.7480 # CM
605 121 3  0.0000 11.2130 11.2400 -56.2080 # CT
606 122 1 -0.1118  3.5970 28.8690 -47.4290 # SO4
607 122 2  0.0000  0.7190 28.7760 -49.4880 # CM
608 122 2  0.0000 -1.4330 26.9400 -51.5670 # CM
609 122 2  0.0000 -3.7390 24.0920 -52.0770 # CM
610 122 3  0.0000 -5.2620 21.9940 -49.6190 # CT
611 123 1 -0.1118 29.7830 -14.1010 -46.4500 # SO4
612 123 2  0.0000 27.3890 -12.9460 -48.6580 # CM
613 123 2  0.0000 26.8710 -12.3780 -52.1590 # CM
614 123 2  0.0000 24.5820 -11.2740 -54.7900 # CM
615 123 3  0.0000 21.2950 -10.5320 -56.3340 # CT
616 124 1 -0.1118 -8.3380 -0.6920 -45.6490 # SO4
617 124 2  0.0000 -9.7770 -3.2640 -47.6280 # CM
618 124 2  0.0000 -9.8580 -6.6300 -49.0260 # CM
619 124 2  0.0000 -8.0340 -8.1500 -51.8300 # CM
620 124 3  0.0000 -6.3760 -7.5010 -55.0400 # CT
621 125 1 -0.1118 -19.8220 28.9530 -48.2430 # SO4
622 125 2  0.0000 -20.7210 27.3100 -51.6780 # CM
623 125 2  0.0000 -20.6320 23.9150 -53.2840 # CM
624 125 2  0.0000 -22.4070 21.0320 -53.9430 # CM
625 125 3  0.0000 -25.2930 19.3380 -52.3650 # CT
626 126 1 -0.1118 16.1550 20.7720 -40.7630 # SO4
627 126 2  0.0000 14.5720 19.0620 -43.8020 # CM
628 126 2  0.0000 14.7130 18.7700 -47.0950 # CM
629 126 2  0.0000 14.3610 18.2360 -50.2420 # CM