LAMMPS (29 Oct 2020)
OMP_NUM_THREADS environment is not set. Defaulting to 1 thread. (src/lammps/src/comm.cpp:94)
  using 1 OpenMP thread(s) per MPI task
Reading data file ...
  orthogonal box = (0.0000000 0.0000000 0.0000000) to (29.204526 29.204526 29.204526)
  2 by 2 by 3 MPI processor grid
  reading atoms ...
  1800 atoms
  scanning bonds ...
  1 = max bonds/atom
  scanning angles ...
  1 = max angles/atom
  reading bonds ...
  1200 bonds
  reading angles ...
  600 angles
Finding 1-2 1-3 1-4 neighbors ...
  special bond factors lj:    0        0        0.5     
  special bond factors coul:  0        0        0.5     
     2 = max # of 1-2 neighbors
     1 = max # of 1-3 neighbors
     1 = max # of 1-4 neighbors
     2 = max # of special neighbors
  special bonds CPU = 0.001 seconds
  read_data CPU = 0.033 seconds
Finding SHAKE clusters ...
       0 = # of size 2 clusters
     600 = # of size 3 clusters
       0 = # of size 4 clusters
       0 = # of frozen angles
  find clusters CPU = 0.001 seconds
Setting atom values ...
  3 settings made for charge
PPPM initialization ...
  using 12-bit tables for long-range coulomb (src/lammps/src/kspace.cpp:339)
  G vector (1/distance) = 0.25066829
  grid = 20 20 20
  stencil order = 5
  estimated absolute RMS force accuracy = 0.0030719151
  estimated relative force accuracy = 9.250981e-06
  using double precision FFTW3
  3d grid and FFT values/proc = 3757 800
Neighbor list info ...
  update every 1 steps, delay 10 steps, check yes
  max neighbors/atom: 2000, page size: 100000
  master list distance cutoff = 14
  ghost atom cutoff = 14
  binsize = 7, bins = 5 5 5
  3 neighbor lists, perpetual/occasional/extra = 3 0 0
  (1) pair lj/cut/coul/long, perpetual, skip from (3)
      attributes: half, newton on
      pair build: skip
      stencil: none
      bin: none
  (2) pair lj/cut/soft, perpetual, skip from (3)
      attributes: half, newton on
      pair build: skip
      stencil: none
      bin: none
  (3) neighbor class addition, perpetual
      attributes: half, newton on
      pair build: half/bin/newton
      stencil: half/bin/3d/newton
      bin: standard
Setting up Verlet run ...
  Unit style    : real
  Current step  : 0
  Time step     : 1
Per MPI rank memory allocation (min/avg/max) = 9.477 | 9.489 | 9.507 Mbytes
Step CPU TotEng KinEng PotEng E_vdwl E_coul E_long Temp Press Volume Density 
       0            0    1344.0739     1251.046    93.027896    53.823145    30049.554   -30010.349          300    10284.878    24908.667   0.72058313 
    5000    26.829054   -5531.3966    1246.7673    -6778.164    1430.5662    21645.326   -30297.767    298.97398    343.00879    17939.671    1.0005069 
   10000    60.375331   -5491.2737    1280.0525   -6771.3262    1384.6297    21688.032   -30298.393    306.95574   -300.16806    18083.581   0.99254483 
   15000    94.076576   -5632.0108    1185.0761   -6817.0868    1373.1572    21657.834   -30299.165    284.18046   -509.30462    17853.507    1.0053356 
   20000    126.53271   -5557.9837    1273.3985   -6831.3822    1276.3348    21807.204   -30296.619    305.36012   -1423.8804     17810.87    1.0077422 
   25000    159.26926   -5561.3614    1271.5975   -6832.9588    1454.6816    21523.277   -30299.954    304.92823    245.53675    17839.133    1.0061456 
   30000    191.17362   -5569.1628    1224.4664   -6793.6292    1459.7735     21613.44   -30298.475    293.62623    1166.8411    17466.628    1.0276033 
   35000    225.54672   -5505.5765    1289.9333   -6795.5098    1374.8138    21675.444   -30297.568    309.32515   -277.00241    17845.641    1.0057787 
   40000    259.24748   -5529.8329    1222.5071     -6752.34     1368.482    21714.343   -30299.714    293.15639   -48.777351    17595.097    1.0201004 
   45000    292.69855   -5541.3772    1261.5499   -6802.9272    1371.5857    21681.912   -30295.814    302.51884   -335.65528    17817.714    1.0073551 
   50000    326.91392   -5573.7012    1222.2121   -6795.9133    1327.6979    21746.391   -30299.712    293.08565   -955.31142    17840.793     1.006052 
   55000    361.16613    -5449.164    1267.4384   -6716.6024    1412.1093        21720    -30299.63     303.9309    428.04385    18036.511   0.99513513 
   60000    393.91884   -5546.8912     1190.623   -6737.5143    1330.3252    21806.541   -30300.582    285.51061   -430.37809    17636.451    1.0177085 
   65000    428.22428   -5622.5584    1259.3301   -6881.8885    1509.1614    21478.163   -30299.496    301.98652    975.06072    17605.779    1.0194815 
   70000    462.45487    -5570.183    1218.0018   -6788.1847    1354.4694    21727.024   -30300.976    292.07602   -258.76822    17759.422    1.0106616 
   75000    496.90314    -5627.876    1230.7285   -6858.6045    1476.5693    21530.846   -30297.953    295.12788    553.50896    17749.215    1.0112428 
   80000    531.33879   -5494.2101     1259.607   -6753.8171     1380.283    21711.161   -30298.881    302.05292    211.62464    17627.074    1.0182499 
   85000    564.97941   -5519.5052    1245.7068    -6765.212    1413.8079    21662.496   -30297.084    298.71966    464.57065     17574.97    1.0212686 
   90000    597.70815   -5541.7394    1221.3799   -6763.1193     1438.245    21673.718   -30296.608     292.8861    594.92053    17785.328    1.0091894 
   95000    630.00979   -5506.2477    1292.8624   -6799.1101    1435.7457    21640.887   -30297.759    310.02754    746.74628    17535.628    1.0235599 
  100000     664.4401    -5517.294    1249.4101   -6766.7041    1435.9513    21681.832   -30299.249    299.60772     863.4493    17594.707     1.020123 
Loop time of 664.44 on 12 procs for 100000 steps with 1800 atoms

Performance: 13.003 ns/day, 1.846 hours/ns, 150.503 timesteps/s
95.1% CPU use with 12 MPI tasks x 1 OpenMP threads

MPI task timing breakdown:
Section |  min time  |  avg time  |  max time  |%varavg| %total
---------------------------------------------------------------
Pair    | 354.67     | 370.51     | 389.45     |  60.8 | 55.76
Bond    | 1.2832     | 1.3258     | 1.3684     |   2.3 |  0.20
Kspace  | 122.53     | 141.54     | 156.98     |  99.1 | 21.30
Neigh   | 28.973     | 29.038     | 29.092     |   0.6 |  4.37
Comm    | 42.452     | 45.845     | 51.532     |  54.0 |  6.90
Output  | 0.0013313  | 0.0013703  | 0.0017405  |   0.3 |  0.00
Modify  | 48.441     | 63.192     | 71.445     | 115.5 |  9.51
Other   |            | 12.99      |            |       |  1.95

Nlocal:        150.000 ave         163 max         141 min
Histogram: 2 3 2 0 1 0 1 0 2 1
Nghost:        6146.42 ave        6218 max        6094 min
Histogram: 3 3 0 0 0 0 4 0 1 1
Neighs:        87791.7 ave       98973 max       80440 min
Histogram: 2 0 3 3 0 2 0 1 0 1

Total # of neighbors = 1053500
Ave neighs/atom = 585.27778
Ave special neighs/atom = 2.0000000
Neighbor list builds = 4499
Dangerous builds = 9
PPPM initialization ...
  using 12-bit tables for long-range coulomb (src/lammps/src/kspace.cpp:339)
  G vector (1/distance) = 0.2513327
  grid = 18 18 18
  stencil order = 5
  estimated absolute RMS force accuracy = 0.0034853969
  estimated relative force accuracy = 1.0496169e-05
  using double precision FFTW3
  3d grid and FFT values/proc = 3328 648
FEP settings ...
  temperature = 300.000000
  tail no
  lj/cut/soft lambda 1-2 3-4
Neighbor list info ...
  update every 1 steps, delay 10 steps, check yes
  max neighbors/atom: 2000, page size: 100000
  master list distance cutoff = 14
  ghost atom cutoff = 14
  binsize = 7, bins = 4 4 4
  3 neighbor lists, perpetual/occasional/extra = 3 0 0
  (1) pair lj/cut/coul/long, perpetual, skip from (3)
      attributes: half, newton on
      pair build: skip
      stencil: none
      bin: none
  (2) pair lj/cut/soft, perpetual, skip from (3)
      attributes: half, newton on
      pair build: skip
      stencil: none
      bin: none
  (3) neighbor class addition, perpetual
      attributes: half, newton on
      pair build: half/bin/newton
      stencil: half/bin/3d/newton
      bin: standard
Setting up Verlet run ...
  Unit style    : real
  Current step  : 0
  Time step     : 1
Per MPI rank memory allocation (min/avg/max) = 9.472 | 9.556 | 10.27 Mbytes
Step TotEng KinEng PotEng E_vdwl E_coul E_long Temp Press Density v_lambda 
       0   -5517.3031    1249.4101   -6766.7132    1435.9513    21762.036   -30379.462    299.60772     824.0149     1.020123            1 
    5000   -5558.3835    1278.7173   -6837.1007    1334.2641    21745.448   -30378.941    306.63556   -767.88312    1.0259151       0.9975 
   10000   -5536.0094     1281.998   -6818.0074    1400.7848    21722.638   -30382.662    307.42228    286.89597    1.0190965        0.995 
   15000   -5481.3474    1257.9731   -6739.3206    1399.5036    21761.099    -30377.92    301.66113     181.6173    1.0045157       0.9925 
   20000   -5576.3444    1286.5841   -6862.9285    1415.5303     21648.92   -30380.138    308.52201   -153.48635    1.0085717         0.99 
   25000   -5514.2625    1300.4887   -6814.7513    1407.9812     21728.21   -30379.084    311.85634    425.39113     1.018525       0.9875 
   30000   -5547.7134    1261.8317   -6809.5451    1380.2714    21733.843   -30375.593    302.58642   -17.777892    1.0150161        0.985 
   35000   -5477.5978    1281.4333   -6759.0311    1368.0059    21793.139   -30378.187    307.28686   -71.109919    1.0111779       0.9825 
   40000   -5508.6633    1240.2261   -6748.8893    1315.5039    21866.643    -30379.36    297.40539   -903.80351    1.0010855         0.98 
   45000   -5549.0382    1255.1907   -6804.2289    1427.4722    21710.804   -30378.942     300.9939    585.69847    1.0195923       0.9775 
   50000   -5475.0264    1312.3734   -6787.3998    1297.1559    21838.086   -30379.004    314.70627    -1273.035    1.0008054        0.975 
   55000   -5491.7123    1248.8257    -6740.538    1363.4371    21862.536   -30380.311    299.46758    99.128465    1.0180508       0.9725 
   60000    -5609.488     1190.986    -6800.474    1436.0545    21719.642   -30378.046    285.59765    701.33839    1.0113551         0.97 
   65000   -5518.7824    1259.5561   -6778.3385    1358.5984    21791.343   -30380.334    302.04072   -321.61092     1.023541       0.9675 
   70000   -5494.8931    1242.4517   -6737.3448    1305.9749    21912.178   -30379.338     297.9391   -630.02692    1.0139124        0.965 
   75000    -5546.698    1230.9889   -6777.6869    1335.3375    21837.661   -30375.416    295.19033   -852.37291    0.9905341       0.9625 
   80000    -5539.855    1242.8348   -6782.6898    1419.4903    21739.313   -30377.932    298.03096    412.87427      1.01156         0.96 
   85000   -5539.3458    1252.4243   -6791.7701    1324.7893    21793.186   -30381.357    300.33052   -863.18781     1.008687       0.9575 
   90000    -5481.581    1307.2598   -6788.8408    1346.6475    21844.712   -30381.327    313.48005   -408.54122    1.0084955        0.955 
   95000   -5529.9471    1250.3938   -6780.3409    1375.6186    21766.839   -30380.379    299.84361   -208.47283    1.0041284       0.9525 
  100000   -5611.8507    1205.3447   -6817.1954    1432.4671    21667.619   -30379.262    289.04087    575.38545    1.0196531         0.95 
  105000   -5516.1732    1249.0519   -6765.2251    1510.0799    21652.904   -30376.319    299.52182    1595.0527    1.0142387       0.9475 
  110000   -5465.4173    1258.6931   -6724.1103    1349.0925    21850.539   -30376.601    301.83377    -603.2308   0.98281583        0.945 
  115000   -5551.5788     1260.591   -6812.1698    1512.1661    21629.589   -30379.324    302.28889    1408.8013    1.0119216       0.9425 
  120000    -5507.219    1271.1602   -6778.3792    1287.9978    21860.629   -30381.307    304.82338   -1063.0529    1.0271704         0.94 
  125000     -5537.13    1258.8105   -6795.9405    1382.8613    21762.733   -30377.383    301.86193   -158.02523    1.0108426       0.9375 
  130000   -5549.0946    1266.6866   -6815.7812    1372.5433     21748.74   -30377.189    303.75061   -643.27667   0.99432531        0.935 
  135000   -5573.4448    1286.5394   -6859.9842    1446.9417    21606.202   -30379.095    308.51131    579.59371    1.0183103       0.9325 
  140000   -5486.2607    1218.2948   -6704.5555    1391.8317    21866.056   -30379.705    292.14629    239.66325    1.0017938         0.93 
  145000   -5528.1392    1237.3437   -6765.4829    1343.2831    21851.228    -30378.61    296.71421   -443.27605    1.0094072       0.9275 
  150000   -5524.9227    1258.9283    -6783.851    1371.8204    21782.513   -30377.396    301.89018   -100.72793    1.0162581        0.925 
  155000   -5559.5874    1249.0683   -6808.6557    1298.8221    21822.678   -30380.108    299.52576   -1283.9404    1.0098295       0.9225 
  160000   -5574.1599    1259.0423   -6833.2022    1386.5012    21768.271   -30378.898    301.91751   -274.81981    1.0036715         0.92 
  165000   -5558.2274    1268.7313   -6826.9587    1366.6284    21720.826    -30379.54    304.24093   -723.57468    1.0031713       0.9175 
  170000   -5558.0458    1243.1304   -6801.1762     1359.415    21794.026   -30377.538    298.10185   -284.08503    1.0125849        0.915 
  175000   -5557.9939    1250.5207   -6808.5146    1344.1211    21819.765   -30375.934    299.87403   -742.04372     1.008519       0.9125 
  180000   -5562.2438    1245.4126   -6807.6564    1442.5917    21688.098   -30381.444    298.64912    834.40431    1.0283372         0.91 
  185000   -5494.5329    1238.0904   -6732.6233    1374.4489    21815.526   -30379.394    296.89325   -127.96552    1.0129962       0.9075 
  190000   -5512.3632    1282.3603   -6794.7235    1331.0347    21826.906   -30381.177    307.50916   -975.48387   0.99030439        0.905 
  195000   -5555.5139    1268.6099   -6824.1238    1579.0357    21509.544   -30380.501    304.21181    2298.8088    1.0238224       0.9025 
  200000   -5561.6068    1235.0747   -6796.6815    1341.7814    21791.238   -30377.819     296.1701   -569.19717    1.0181737          0.9 
  205000   -5408.9255     1277.421   -6686.3465    1384.0288    21847.016   -30376.919     306.3247    306.84932    1.0058379       0.8975 
  210000   -5574.4209    1249.0534   -6823.4743    1390.0917    21708.289   -30375.252    299.52217   -137.92578     1.020659        0.895 
  215000   -5533.5343    1256.0469   -6789.5812    1397.7965    21759.307   -30379.639    301.19922   -167.33553   0.99448086       0.8925 
  220000   -5525.1497    1272.4337   -6797.5834    1349.1947    21798.064    -30375.86    305.12875   -636.29714    1.0040906         0.89 
  225000   -5504.1279    1280.7318   -6784.8598    1373.0777    21811.329   -30381.594    307.11864   -109.03674    1.0126578       0.8875 
  230000   -5556.0721    1227.0604   -6783.1325    1460.4513    21700.918   -30378.062    294.24828    1031.1913    1.0144785        0.885 
  235000   -5579.4548    1223.0151     -6802.47    1383.0244    21742.747   -30378.065    293.27823   -444.73244   0.99883895       0.8825 
  240000   -5478.8969    1256.3704   -6735.2673    1379.5164    21844.649   -30379.291     301.2768     134.8168    1.0086341         0.88 
  245000   -5473.7115    1247.7991   -6721.5106    1377.2785    21845.407   -30379.554    299.22139    152.12047    1.0028516       0.8775 
  250000   -5511.3331    1252.6671   -6764.0002     1391.242    21767.929   -30377.767    300.38874    42.815705    1.0071501        0.875 
  255000   -5527.2234    1305.1549   -6832.3783    1450.6004    21675.372   -30380.236    312.97529    568.31787    1.0194011       0.8725 
  260000   -5599.9408    1267.0163   -6866.9571    1414.5319    21681.001   -30380.447    303.82967   -296.86382   0.99844118         0.87 
  265000   -5609.1575    1202.8066   -6811.9641    1422.9683    21708.562   -30377.312    288.43224    396.28769    1.0282155       0.8675 
  270000   -5514.4973    1238.2917    -6752.789    1478.2795    21711.681   -30377.388    296.94154    987.01375   0.99825963        0.865 
  275000   -5511.4623    1255.7444   -6767.2068    1360.2011    21806.795   -30378.728    301.12669   -323.15359    1.0062462       0.8625 
  280000   -5552.1793    1259.5205   -6811.6998    1349.3495    21816.208   -30382.584    302.03219   -349.89702    1.0176732         0.86 
  285000   -5533.2625    1244.4885    -6777.751    1329.1246     21846.62   -30381.164    298.42752   -459.22534    1.0226658       0.8575 
  290000   -5567.8243    1241.1772   -6809.0015    1399.9451    21749.571   -30379.349    297.63346    22.543027    1.0110614        0.855 
  295000   -5557.5037    1238.0302   -6795.5339    1338.4732    21820.049   -30378.884    296.87882   -618.59847    1.0068859       0.8525 
  300000    -5489.886    1256.7172   -6746.6033    1363.8733    21840.359   -30378.014    301.35996   -70.896612    1.0126564         0.85 
  305000   -5572.9241     1240.321    -6813.245    1460.9673     21642.12   -30380.518    297.42815     481.8838    1.0057691       0.8475 
  310000    -5488.162    1258.2317   -6746.3936    1445.6895    21758.579   -30378.851    301.72313    872.39978    1.0085289        0.845 
  315000   -5522.8931    1237.6936   -6760.5868    1394.4464    21761.506   -30375.489    296.79811    209.47881    1.0172465       0.8425 
  320000   -5536.6098    1282.2086   -6818.8184    1354.2609     21746.18   -30376.821    307.47278   -800.05482     1.001315         0.84 
  325000   -5531.7735    1280.9795    -6812.753    1415.0442    21718.513   -30376.752    307.17804    140.19074    1.0033268       0.8375 
  330000   -5610.5654    1255.9186   -6866.4839     1439.716    21627.111   -30376.917    301.16845    217.00726    1.0106958        0.835 
  335000   -5544.1968    1262.8047   -6807.0015    1411.1851    21727.544   -30379.348    302.81973   -110.66815   0.99018265       0.8325 
  340000   -5475.3641    1226.3203   -6701.6844    1319.0089    21921.241   -30376.884    294.07079   -282.11126    1.0213371         0.83 
  345000   -5553.4383    1194.8379   -6748.2762    1355.9404    21856.676    -30381.74    286.52133     -362.738    1.0061755       0.8275 
  350000   -5584.6493    1235.7595   -6820.4088    1352.8128    21761.048   -30380.806    296.33432   -874.17129    0.9931264        0.825 
  355000   -5621.2604    1217.1919   -6838.4523     1372.941    21733.863   -30375.651    291.88181   -584.44984   0.99879817       0.8225 
  360000   -5615.0717    1231.0617   -6846.1334    1429.3525    21680.466   -30380.519    295.20778    330.32191    1.0138088         0.82 
  365000   -5589.4166    1229.8012   -6819.2178    1445.1399    21656.389   -30379.255    294.90552     421.5138    1.0090829       0.8175 
  370000   -5651.5079     1193.437   -6844.9449    1435.9396    21645.199   -30380.798    286.18541    256.92768    1.0192016        0.815 
  375000   -5552.4603    1258.4199   -6810.8802    1378.5865    21748.986   -30378.675    301.76827   -383.52078   0.99353397       0.8125 
  380000   -5504.5385    1251.8059   -6756.3444    1356.5769    21819.021   -30380.364    300.18223   -269.24879    1.0038731         0.81 
  385000   -5555.4347    1224.5956   -6780.0303    1375.7528    21743.978   -30382.275    293.65722    150.61285     1.033997       0.8075 
  390000   -5476.7978    1301.5154   -6778.3132    1470.6852    21684.408   -30378.178    312.10253    1146.8841    1.0219575        0.805 
  395000   -5396.8713    1298.4198   -6695.2912    1317.1078    21924.316   -30374.204    311.36022   -823.77541   0.98553613       0.8025 
  400000   -5629.6891    1238.2653   -6867.9544    1428.4096    21673.519   -30377.557     296.9352    206.26016    1.0115683          0.8 
  405000   -5428.7589     1278.424   -6707.1828    1331.4932    21893.287   -30377.714    306.56523   -353.63082    1.0124706       0.7975 
  410000   -5507.5696    1237.8639   -6745.4335    1298.4114    21901.188   -30379.626    296.83895   -973.92318    1.0037112        0.795 
  415000   -5484.2415    1270.2855    -6754.527    1441.5793    21749.552   -30375.284    304.61361    840.14191    1.0121738       0.7925 
  420000   -5495.6378    1258.7861   -6754.4239    1353.3243    21849.806   -30381.941    301.85607    59.331351    1.0246191         0.79 
  425000   -5552.4141    1228.8708   -6781.2849    1317.4814    21842.189   -30380.175    294.68241   -836.50476    1.0135725       0.7875 
  430000   -5477.5725    1254.5002   -6732.0727    1367.7274    21841.064   -30380.543    300.82831    88.637178     1.011139        0.785 
  435000   -5476.7143    1264.4344   -6741.1487    1375.6575    21790.072   -30378.636    303.21053    2.6220187    1.0159663       0.7825 
  440000   -5565.7547    1202.2639   -6768.0186    1376.2632    21836.685   -30377.795    288.30208    -159.4843    1.0101374         0.78 
  445000    -5482.073    1263.9755   -6746.0485    1298.6972    21912.114     -30380.1    303.10049   -837.55689     1.009925       0.7775 
  450000   -5471.1641    1270.7405   -6741.9046    1327.0686    21843.353     -30380.6    304.72273   -812.71837    1.0073281        0.775 
  455000   -5575.8919    1237.6557   -6813.5477    1403.2693    21726.183    -30378.18    296.78902   -58.778086    1.0052848       0.7725 
  460000   -5483.7083    1255.8916   -6739.5999    1386.2234    21823.459   -30378.531    301.16198     150.3882    1.0047493         0.77 
  465000   -5605.7393    1229.0621   -6834.8014    1326.0846    21768.021    -30377.81    294.72828   -577.61705     1.038623       0.7675 
  470000   -5550.9894    1229.8014   -6780.7909    1437.1655    21776.095   -30380.267    294.90557    774.11419    1.0140737        0.765 
  475000   -5523.3444    1300.4873   -6823.8318    1327.0338    21792.331   -30381.352      311.856   -970.02145    1.0142989       0.7625 
  480000   -5531.1145    1240.4904   -6771.6049    1371.1764    21817.322   -30375.833    297.46877    232.38091    1.0354183         0.76 
  485000   -5586.0909     1228.566   -6814.6569    1331.4521     21783.37   -30375.359    294.60932   -830.78206    1.0182576       0.7575 
  490000   -5529.1137    1267.8457   -6796.9594    1413.3701     21752.62   -30377.127    304.02856    442.05038    1.0159886        0.755 
  495000   -5555.6588    1216.5915   -6772.2503    1419.8591    21749.535   -30380.057    291.73784    304.69606    1.0095655       0.7525 
  500000   -5621.0389    1231.8288   -6852.8678    1474.6487    21612.415   -30378.168    295.39174    323.36029    1.0077507         0.75 
  505000   -5546.0577    1251.7571   -6797.8148      1367.67     21795.98   -30376.544    300.17053   -455.53831    1.0072369       0.7475 
  510000   -5582.9058     1221.373   -6804.2787    1350.5321     21782.21   -30381.612    292.88444   -772.87812    1.0034727        0.745 
  515000   -5541.3247    1255.4485   -6796.7732    1414.1242    21706.658   -30381.741    301.05573     2.928327   0.99672686       0.7425 
  520000   -5508.7799    1259.6743   -6768.4541    1380.3991    21741.143   -30380.532    302.06906    -203.6546    1.0136344         0.74 
  525000   -5539.6518    1197.3021   -6736.9538    1404.1918    21779.603    -30380.69    287.11225    145.06485     1.003219       0.7375 
  530000   -5624.3435    1217.1528   -6841.4963    1452.7693    21662.529   -30380.236    291.87243    638.82307    1.0215612        0.735 
  535000   -5529.8222    1254.4932   -6784.3155    1406.2098    21740.849   -30378.658    300.82665    94.641198    1.0065968       0.7325 
  540000   -5568.7637    1261.6812   -6830.4449    1387.5129    21733.157   -30379.551    302.55032   -405.87495    1.0104021         0.73 
  545000   -5524.6427    1291.6553    -6816.298    1444.7739     21695.48   -30380.734    309.73809    823.06856    1.0215824       0.7275 
  550000   -5545.8811     1294.844    -6840.725    1393.6405    21689.154   -30381.254    310.50273   -155.25174    1.0231418        0.725 
  555000    -5524.836    1234.4479   -6759.2838    1356.4213    21802.616    -30369.49    296.01978   -368.99982    1.0143158       0.7225 
  560000   -5604.2588    1246.9449   -6851.2037    1434.9571    21646.273   -30381.555    299.01658    256.97524    1.0137294         0.72 
  565000   -5568.3972    1224.1467   -6792.5439    1448.4206    21684.449   -30378.954    293.54958    556.78887    1.0032844       0.7175 
  570000   -5594.4587    1230.6686   -6825.1274     1435.707    21681.561   -30379.685    295.11353    473.82707    1.0198226        0.715 
  575000   -5488.4667    1277.4643    -6765.931    1404.5892    21784.485   -30376.117     306.3351    362.86154    1.0003658       0.7125 
  580000   -5547.1998    1264.7062    -6811.906    1393.9582    21720.572   -30378.614    303.27571   -137.91377    1.0172504         0.71 
  585000   -5606.6441    1252.6018   -6859.2459    1419.0008    21663.205   -30378.365    300.37309    66.460552     1.021903       0.7075 
  590000   -5512.7176    1269.3615   -6782.0791    1408.1893    21757.063   -30379.393    304.39205    644.37249    1.0364827        0.705 
  595000   -5608.6134    1228.9868   -6837.6002    1433.5598    21649.995    -30378.63    294.71023    32.723185    1.0054794       0.7025 
  600000   -5552.3005    1223.3003   -6775.6008    1369.5223    21840.904    -30379.11    293.34662   -395.91281   0.99377694          0.7 
  605000   -5536.8925    1270.6202   -6807.5127    1323.5731    21800.775   -30378.632    304.69388   -977.46567    1.0071163       0.6975 
  610000   -5464.7705    1275.0987   -6739.8692    1367.5489    21824.895   -30377.252    305.76782   -387.65672   0.99109537        0.695 
  615000   -5609.4125    1262.2387   -6871.6513    1408.4333    21658.685   -30377.411    302.68401    22.836181    1.0270818       0.6925 
  620000   -5531.8104    1274.3728   -6806.1831    1377.4975     21766.69    -30379.63    305.59376   -285.65697    1.0117261         0.69 
  625000   -5474.4189    1278.1649   -6752.5838     1333.798    21868.283    -30379.65     306.5031   -521.91598    1.0102571       0.6875 
  630000   -5538.9642      1225.28   -6764.2442    1389.7032    21773.906   -30378.718    293.82133    254.50002    1.0208426        0.685 
  635000   -5508.4261    1280.6282   -6789.0543    1401.0525    21750.972    -30379.98    307.09381    234.86257    1.0110397       0.6825 
  640000   -5540.8089    1244.3064   -6785.1153    1417.4663    21726.439   -30376.915    298.38384    150.36017    1.0001641         0.68 
  645000   -5515.8042     1236.468   -6752.2723    1402.2548    21790.109   -30379.114    296.50422    531.96132     1.020622       0.6775 
  650000   -5462.1993    1257.9462   -6720.1454     1268.863    21936.688   -30379.734    301.65466   -1017.4425    1.0216886        0.675 
  655000   -5486.7934    1301.7279   -6788.5213    1355.2019    21810.937   -30378.882     312.1535   -617.30085   0.99817188       0.6725 
  660000   -5534.9148      1263.11   -6798.0248     1378.272    21775.106   -30376.702    302.89295   -223.77151    1.0075378         0.67 
  665000   -5581.7219    1234.0612   -6815.7831    1428.1581    21716.123   -30378.571    295.92706    44.290152   0.99842109       0.6675 
  670000   -5488.6526    1269.5454    -6758.198    1367.3963    21828.425   -30380.546    304.43615   -348.95619    1.0000298        0.665 
  675000    -5465.914    1263.3905   -6729.3045    1336.7565    21880.293   -30376.633    302.96021   -485.33842     1.003274       0.6625 
  680000    -5472.168    1264.3649    -6736.533    1448.9293    21749.791   -30379.242    303.19388     831.6918    1.0029436         0.66 
  685000    -5520.395    1250.1857   -6770.5807    1401.6986    21805.009   -30376.553    299.79371   -41.384636   0.99397705       0.6575 
  690000   -5480.0792    1289.9138    -6769.993    1420.5975    21783.734   -30378.473    309.32048    460.10945    1.0106925        0.655 
  695000   -5589.3538    1224.5521   -6813.9059    1451.0824    21702.734   -30376.351    293.64678    738.57116    1.0153307       0.6525 
  700000   -5472.8453    1308.7177    -6781.563     1423.187    21741.303   -30378.197    313.82963     612.6714    1.0166905         0.65 
  705000   -5569.7342    1255.2584   -6824.9926    1389.4201    21710.248   -30380.297    301.01013    -172.7884    1.0148878       0.6475 
  710000   -5596.1426    1238.2633   -6834.4059    1357.9019    21745.397   -30380.137    296.93471   -538.38313    1.0209937        0.645 
  715000   -5507.4206    1239.2393   -6746.6599    1403.4807    21781.313   -30378.667    297.16877    248.26197    1.0116725       0.6425 
  720000   -5497.1275    1287.2767   -6784.4042    1414.7207    21756.731   -30379.238    308.68811    341.59938    1.0131454         0.64 
  725000   -5496.5836    1286.0241   -6782.6077    1399.7439    21764.503   -30379.835    308.38773   -62.342241   0.99678722       0.6375 
  730000    -5536.977    1243.2012   -6780.1782    1317.0319    21827.887   -30379.541    298.11883   -1280.4499   0.99058396        0.635 
  735000   -5549.9255    1278.5327   -6828.4582    1466.7074     21634.42   -30377.429     306.5913    700.98665    1.0145657       0.6325 
  740000   -5496.3831    1282.2407   -6778.6238    1324.4366     21812.16     -30377.5    307.48047   -793.87783    1.0141821         0.63 
  745000   -5500.4874    1275.7087   -6776.1962    1310.7145    21869.953   -30378.837    305.91411    -886.8993    1.0111339       0.6275 
  750000   -5500.9475    1276.7305    -6777.678    1395.7077     21776.63    -30380.09    306.15913    192.19564    1.0108423        0.625 
  755000    -5551.394    1240.5899   -6791.9839     1454.451    21659.096   -30378.918    297.49265    498.47384    1.0007052       0.6225 
  760000   -5528.5295    1245.9619   -6774.4915    1447.3278    21723.641   -30377.888    298.78085    515.39703     1.005014         0.62 
  765000   -5475.7763    1268.2993   -6744.0756    1335.9202    21904.289   -30375.821    304.13733   -285.98001    1.0140331       0.6175 
  770000   -5571.7813    1239.3782   -6811.1595    1445.9375     21665.43   -30380.469    297.20208    428.18308    1.0025023        0.615 
  775000   -5501.6766    1254.1992   -6755.8758    1320.6755    21872.392    -30377.78    300.75613   -619.04607    1.0168732       0.6125 
  780000   -5546.2901    1244.0883   -6790.3785    1387.3647    21762.273   -30378.875    298.33156   -132.28122    1.0042433         0.61 
  785000   -5472.3472    1281.5277   -6753.8748    1347.5012    21865.731   -30381.351    307.30949   -155.27002    1.0077831       0.6075 
  790000   -5537.4018    1231.8299   -6769.2317    1348.3549    21856.185    -30381.91      295.392     -210.503    1.0194699        0.605 
  795000   -5566.3088    1261.8098   -6828.1186    1449.2851     21688.44   -30377.026    302.58115    1001.4476    1.0322702       0.6025 
  800000   -5471.8234    1303.4049   -6775.2283    1398.6426    21772.653   -30379.166    312.55564    217.87426    1.0135949          0.6 
  805000   -5586.6474    1220.6453   -6807.2927    1409.1848    21676.401   -30378.777    292.70993    241.46493    1.0243302       0.5975 
  810000   -5612.0552    1215.6221   -6827.6773    1363.5428    21759.362   -30378.853    291.50537   -711.05271    1.0076206        0.595 
  815000   -5584.3197    1224.7552   -6809.0749    1469.9794     21677.26   -30382.578    293.69549    789.61759    1.0091541       0.5925 
  820000   -5552.9536     1270.928   -6823.8816    1395.5282    21729.655   -30380.525    304.76769    132.06866    1.0153299         0.59 
  825000   -5524.6445    1255.7384   -6780.3829    1467.1114    21702.335   -30380.146    301.12523    1094.8403    1.0124363       0.5875 
  830000   -5519.9763    1283.1177    -6803.094    1359.1241    21781.756   -30378.661    307.69078   -269.55156     1.011247        0.585 
  835000   -5574.5608    1268.1186   -6842.6794    1453.1708    21651.026   -30378.923    304.09401    440.04367    1.0063498       0.5825 
  840000   -5593.1298    1263.5752    -6856.705    1437.8518      21679.6   -30380.449    303.00449    786.15751    1.0315038         0.58 
  845000   -5474.6027    1278.2525   -6752.8552    1345.4766    21857.636   -30379.511    306.52411   -375.02983    1.0081416       0.5775 
  850000   -5421.5672    1307.2683   -6728.8355    1354.7412    21860.822   -30377.514    313.48207   -176.84475    1.0001495        0.575 
  855000   -5523.8453    1251.0854   -6774.9307    1424.8602    21729.911    -30380.62    300.00944    567.62922    1.0185387       0.5725 
  860000   -5540.1719    1247.9292   -6788.1011    1338.1786    21819.946   -30380.808    299.25259    -980.8771   0.98328196         0.57 
  865000   -5500.9874    1294.2799   -6795.2673    1365.5005    21798.964   -30380.394    310.36746   -312.14623    1.0038906       0.5675 
  870000   -5513.3883    1253.1896   -6766.5779    1403.6774     21770.72   -30379.858    300.51403   -249.64253   0.98661096        0.565 
  875000   -5577.3005    1213.9579   -6791.2584    1373.5687    21767.892   -30379.213    291.10631   -32.675529    1.0214726       0.5625 
  880000   -5520.6187    1235.4014   -6756.0201    1414.0406    21755.825   -30377.065    296.24843    539.88708    1.0112853         0.56 
  885000   -5506.5962    1242.8121   -6749.4082    1313.1296    21895.863   -30377.787    298.02552   -810.01171    1.0046804       0.5575 
  890000   -5574.2541    1264.4641   -6838.7182    1462.9071    21672.919   -30379.655    303.21767    725.59742    1.0127452        0.555 
  895000    -5552.393    1266.4737   -6818.8667    1451.4529    21687.174   -30377.823    303.69956     515.3533    1.0046976       0.5525 
  900000    -5493.546    1268.8835   -6762.4295     1390.089    21773.231   -30379.297    304.27743     323.6865    1.0191801         0.55 
  905000   -5568.8411    1251.4696   -6820.3107    1415.2346    21698.664   -30379.466    300.10159    142.08451    1.0164587       0.5475 
  910000   -5472.0573     1255.734   -6727.7913    1371.5728    21814.959    -30376.67    301.12419    71.603808    1.0152894        0.545 
  915000   -5546.7758    1266.2377   -6813.0135    1394.2902     21729.23   -30378.982    303.64295   -277.04292   0.99838613       0.5425 
  920000   -5485.1925    1260.6795   -6745.8719    1335.4147    21840.054   -30376.213     302.3101   -706.48845   0.99982968         0.54 
  925000   -5569.2581    1268.7997   -6838.0578    1425.5561    21688.585    -30376.69    304.25734    440.61245    1.0276647       0.5375 
  930000      -5436.2    1309.4362   -6745.6361    1360.6477    21779.291   -30375.596    314.00193   -153.76175    1.0060773        0.535 
  935000   -5511.9611    1283.1051   -6795.0662    1472.8015    21686.056   -30378.591    307.68775     830.7404    1.0035227       0.5325 
  940000   -5525.2952    1250.2261   -6775.5212    1382.7242    21797.489    -30378.43    299.80339    411.53116    1.0379394         0.53 
  945000   -5479.6309    1302.2216   -6781.8525    1392.5574    21734.537   -30380.406    312.27189   -109.18487    1.0077314       0.5275 
  950000   -5432.2038    1264.9369   -6697.1407    1350.3293    21930.966   -30376.591    303.33102    181.11895    1.0110981        0.525 
  955000   -5560.8112    1217.4105   -6778.2217    1444.1975    21748.915   -30379.038    291.93423    713.37875    1.0089567       0.5225 
  960000   -5522.7277    1295.5111   -6818.2388    1463.1361    21672.625   -30375.593    310.66272    497.12398   0.99359159         0.52 
  965000   -5476.6514    1255.7119   -6732.3633    1454.9215    21761.733   -30377.381    301.11888     891.7686    1.0003201       0.5175 
  970000   -5554.9486     1260.713   -6815.6616    1444.2112    21699.023   -30376.601    302.31814    734.59668    1.0255112        0.515 
  975000   -5537.0867    1297.5833   -6834.6701    1454.7241    21625.665   -30378.948    311.15963    884.84024     1.026448       0.5125 
  980000   -5546.2148     1224.275   -6770.4898    1333.2213    21873.175   -30378.024    293.58034    -493.4515     1.012591         0.51 
  985000   -5520.9359    1217.3655   -6738.3014    1343.6097      21870.6   -30375.709    291.92345   -263.92883    1.0149279       0.5075 
  990000   -5592.7447    1215.8757   -6808.6205    1440.2464    21666.537   -30374.994     291.5662    587.54768    1.0234674        0.505 
  995000   -5533.0301    1262.5102   -6795.5404    1279.6793    21920.053   -30380.017    302.74912   -1341.8752    1.0002809       0.5025 
 1000000   -5551.0164    1238.3305   -6789.3469    1391.9315    21798.137   -30377.817    296.95085   -113.77494    1.0094761          0.5 
 1005000   -5549.2261    1237.9081   -6787.1342     1320.049    21844.294   -30382.381    296.84955   -634.07433    1.0208379       0.4975 
 1010000   -5529.9238    1239.8968   -6769.8205    1389.9921    21747.565   -30379.146    297.32642  -0.90599205   0.99978793        0.495 
 1015000   -5489.9865    1252.1385   -6742.1251    1398.0166    21799.294   -30379.371      300.262    241.56608    1.0076692       0.4925 
 1020000   -5576.0301    1272.5378   -6848.5679    1416.7164    21667.174   -30378.805    305.15372    -33.86377   0.99969748         0.49 
 1025000   -5591.0562    1246.2942   -6837.3504     1438.919     21638.67   -30378.781    298.86053    482.55574    1.0162828       0.4875 
 1030000   -5548.1877    1217.7539   -6765.9416    1362.9837    21806.283   -30381.163    292.01659   -427.99018   0.99163938        0.485 
 1035000   -5522.7032    1310.9673   -6833.6704    1454.9127    21653.869   -30379.885    314.36908    738.25531    1.0236085       0.4825 
 1040000   -5589.4653     1211.212   -6800.6774    1396.8117    21735.372   -30375.228    290.44785   -167.16934    1.0043731         0.48 
 1045000   -5584.8632    1213.0589   -6797.9222    1345.4118    21771.193   -30380.486    290.89073   -797.43246    1.0092941       0.4775 
 1050000   -5507.4502    1224.5435   -6731.9938    1326.4546    21912.141   -30377.193    293.64473   -497.19203    1.0032709        0.475 
 1055000   -5493.9189    1230.8729   -6724.7919    1385.1499    21849.807    -30375.98    295.16252    218.46916   0.99861109       0.4725 
 1060000   -5555.3241    1241.6789    -6797.003    1384.3354    21771.345   -30377.318    297.75379   -237.59628   0.99873701         0.47 
 1065000   -5550.2811    1282.7371   -6833.0182    1548.4595    21554.165   -30376.611    307.59951      1670.18    1.0096302       0.4675 
 1070000    -5535.527    1254.4489   -6789.9759    1438.3778    21690.349   -30376.448    300.81601     491.9271    1.0179693        0.465 
 1075000   -5537.4925    1273.5683   -6811.0609    1437.8103    21688.987   -30379.423    305.40085    802.67013    1.0289308       0.4625 
 1080000   -5570.3365    1249.4877   -6819.8242    1420.2567     21697.63   -30374.946    299.62632    180.96347    1.0118406         0.46 
 1085000   -5585.0345    1210.3922   -6795.4267    1467.9551    21664.251   -30378.174    290.25124    794.72418    1.0055281       0.4575 
 1090000   -5508.2604    1219.7555   -6728.0159    1352.4211    21869.903   -30377.463    292.49657   -357.12347    1.0108237        0.455 
 1095000   -5518.5734    1279.9107   -6798.4841    1448.7068    21686.898   -30379.086    306.92175    722.82217    1.0109523       0.4525 
 1100000   -5525.8416     1250.687   -6776.5287    1414.8834    21735.488   -30379.591    299.91393    197.94954    1.0154492         0.45 
 1105000   -5521.8723    1246.6246    -6768.497    1401.1347      21814.8   -30376.034    298.93976    117.88115   0.99889954       0.4475 
 1110000   -5554.5946    1270.4005   -6824.9951     1365.948    21741.545    -30380.13    304.64121   -662.90851   0.99998764        0.445 
 1115000   -5545.4198    1250.2667   -6795.6866    1348.0742    21791.444   -30381.204    299.81314    -724.2404    1.0103995       0.4425 
 1120000   -5559.3322    1197.8416   -6757.1738    1355.7143    21850.726   -30380.054    287.24162   -181.20192    1.0173846         0.44 
 1125000   -5542.1037    1234.4106   -6776.5142    1379.6262    21797.166   -30380.781    296.01084   -507.86039   0.99365362       0.4375 
 1130000   -5437.0102    1287.5891   -6724.5993    1282.7916    21954.329   -30381.096    308.76302   -1126.2965   0.99901743        0.435 
 1135000   -5538.9176    1238.9073   -6777.8249    1364.7683    21805.703    -30379.16    297.08916   -680.37057    0.9996137       0.4325 
 1140000   -5570.4962    1213.8459   -6784.3421     1340.606    21805.103   -30379.425    291.07945   -596.29765    1.0134925         0.43 
 1145000   -5547.5904    1230.6761   -6778.2665    1420.8752    21738.324   -30378.751    295.11533    246.41006     1.006487       0.4275 
 1150000   -5548.2808    1213.8732    -6762.154    1421.7664    21766.257   -30379.185    291.08599    570.07885    1.0218796        0.425 
 1155000   -5521.4144    1267.3636    -6788.778    1398.1887    21770.241   -30379.549    303.91295    2.9983687    1.0076686       0.4225 
 1160000   -5534.9879    1244.8652   -6779.8532    1440.4749    21715.397   -30378.941    298.51786     679.4149    1.0207784         0.42 
 1165000   -5484.3721    1244.6856   -6729.0577    1417.7678    21735.834    -30377.46     298.4748    629.57345    1.0215953       0.4175 
 1170000   -5524.3406    1277.2058   -6801.5464     1389.395    21753.644   -30381.276    306.27312    85.448076    1.0175567        0.415 
 1175000   -5573.4085    1245.0919   -6818.5004     1464.992    21672.608   -30376.328    298.57221    727.70962    1.0151094       0.4125 
 1180000   -5567.9892    1220.0499    -6788.039    1355.1799    21757.217    -30379.53    292.56716   -589.39342    1.0129301         0.41 
 1185000   -5493.5883    1254.9729   -6748.5612    1378.5484    21787.909   -30376.087    300.94166    75.165141    1.0184138       0.4075 
 1190000   -5479.2948    1260.2407   -6739.5356    1356.4075    21814.922   -30377.304     302.2049   -460.01063    1.0009331        0.405 
 1195000   -5457.6359    1238.4178   -6696.0537    1364.6441    21884.995   -30379.875    296.97177    3.5756347    1.0001974       0.4025 
 1200000   -5469.0842    1241.7112   -6710.7954    1406.1586    21802.207   -30379.157    297.76153    438.48868    1.0195469          0.4 
 1205000   -5549.5458    1240.8355   -6790.3813     1358.959    21808.604   -30379.225    297.55153   -594.51594    1.0074724       0.3975 
 1210000   -5585.1155    1238.9458   -6824.0613    1456.1794     21691.63   -30379.186    297.09838    1167.2584    1.0397342        0.395 
 1215000   -5533.2061     1246.371   -6779.5771    1439.4805    21720.932   -30378.201    298.87894    526.47308    1.0105713       0.3925 
 1220000   -5543.7123    1246.3605   -6790.0728    1445.4823    21714.058   -30379.216    298.87643    677.38399    1.0072857         0.39 
 1225000   -5474.7986    1269.4558   -6744.2544    1364.5803    21848.038    -30377.16    304.41467   -87.090524    1.0086417       0.3875 
 1230000   -5541.2817     1308.326   -6849.6077     1415.265    21695.861   -30381.038    313.73572    71.444446    1.0192522        0.385 
 1235000   -5542.6225    1244.4364   -6787.0589    1381.0607    21784.705   -30380.057    298.41502    214.57658    1.0258239       0.3825 
 1240000   -5555.7484    1274.2793   -6830.0277    1489.2232    21617.829   -30378.278    305.57134    876.45857     1.008025         0.38 
 1245000   -5512.6649    1274.3059   -6786.9708    1382.4273    21743.608   -30378.966    305.57772   -122.08537     1.020499       0.3775 
 1250000   -5589.2861    1219.0535   -6808.3396     1360.303    21791.212   -30380.132    292.32822   -128.28745    1.0295553        0.375 
 1255000   -5535.2523    1239.0819   -6774.3342    1352.7449    21789.218   -30378.876    297.13101   -679.25947   0.99401271       0.3725 
 1260000    -5570.865    1227.2408   -6798.1058    1427.1345    21699.292   -30378.045    294.29153    327.24356     1.006499         0.37 
 1265000   -5471.9137    1290.8466   -6762.7604    1381.3429    21818.652   -30379.538    309.54417     14.98415    1.0111953       0.3675 
 1270000   -5450.4791    1305.5008     -6755.98    1370.0496    21830.174   -30379.524    313.05824   -293.10433   0.99617081        0.365 
 1275000   -5471.3926    1284.8849   -6756.2775    1367.9952    21845.798   -30374.717    308.11454   -307.10586   0.99444636       0.3625 
 1280000   -5520.0507    1269.7599   -6789.8106    1386.8953    21790.683   -30379.921    304.48759    10.244879    1.0094059         0.36 
 1285000    -5595.952    1204.1409   -6800.0929    1398.6057    21718.538   -30379.702     288.7522    -276.8686     1.006966       0.3575 
 1290000   -5486.8122    1246.1647   -6732.9769    1363.6203    21823.272   -30379.685    298.82947   -464.78674   0.99243587        0.355 
 1295000   -5497.4179     1237.867   -6735.2849    1346.8425    21891.759   -30377.608    296.83969   -140.11806    1.0151073       0.3525 
 1300000   -5639.1001    1243.6172   -6882.7173    1457.7891    21616.148    -30378.09    298.21857    342.48703     1.009843         0.35 
 1305000   -5556.8881     1221.543    -6778.431    1335.1406    21849.077   -30378.112     292.9252   -716.76985    1.0013082       0.3475 
 1310000   -5442.7105    1258.3829   -6701.0934    1285.9237     21964.62    -30375.49     301.7594   -1058.1451     1.000375        0.345 
 1315000   -5547.5333    1248.6602   -6796.1935     1434.312    21690.442   -30376.481    299.42789    417.77084    1.0108828       0.3425 
 1320000   -5556.5722     1245.995   -6802.5672    1406.0367     21716.81   -30378.518    298.78879    -44.59583    1.0029205         0.34 
 1325000   -5492.2298    1210.0413    -6702.271    1306.7266    21930.848   -30379.189     290.1671   -360.17536    1.0193503       0.3375 
 1330000   -5529.1732    1201.8706   -6731.0438    1320.2689    21891.221   -30378.853    288.20777   -823.47174    1.0023972        0.335 
 1335000   -5516.1513    1284.0936   -6800.2449    1456.3194    21648.152   -30382.511     307.9248    816.27591    1.0172669       0.3325 
 1340000   -5524.1288    1244.1823   -6768.3111    1437.1822    21726.149   -30377.547     298.3541     659.0745     1.018629         0.33 
 1345000   -5508.6037    1238.7015   -6747.3052    1400.1328    21792.993    -30375.67     297.0398    319.94593    1.0148916       0.3275 
 1350000   -5527.1475    1258.9192   -6786.0666    1356.8947    21794.455   -30379.738    301.88799   -335.38354    1.0081011        0.325 
 1355000   -5538.0487    1250.8881   -6788.9368     1453.457    21678.809   -30378.902    299.96214    769.52717    1.0229997       0.3225 
 1360000    -5476.898    1309.4028   -6786.3009    1427.2196    21697.827   -30381.824    313.99394    803.67442    1.0294179         0.32 
 1365000   -5509.3513      1232.51   -6741.8613    1307.4439    21886.932     -30380.5    295.55508   -1043.7167    1.0072445       0.3175 
 1370000   -5540.0675    1251.3688   -6791.4363    1379.1587    21758.664   -30378.636    300.07741   -156.99758    1.0200723        0.315 
 1375000   -5578.6206    1239.6891   -6818.3097    1350.1415    21780.413   -30376.511    297.27662   -854.76394     1.001508       0.3125 
 1380000    -5463.107    1290.9919   -6754.0989    1444.3422    21730.857   -30378.895      309.579    772.67327    1.0122494         0.31 
 1385000   -5499.3844    1239.3068   -6738.6912    1462.7244     21771.34   -30375.733    297.18495    1283.3351    1.0145078       0.3075 
 1390000   -5636.4741    1214.4694   -6850.9434     1383.584    21682.318   -30380.751    291.22895   -240.05624    1.0213867        0.305 
 1395000   -5537.6011    1252.6604   -6790.2615    1420.8477    21717.595    -30379.56    300.38714    182.01588    1.0064129       0.3025 
 1400000   -5548.9864    1240.0253   -6789.0117    1387.3366     21714.14   -30378.119    297.35725   -395.53785   0.99660636          0.3 
 1405000   -5631.6836    1213.3931   -6845.0766    1394.0426    21727.204    -30380.58    290.97086   -140.02628    1.0191589       0.2975 
 1410000   -5570.2405    1202.1725    -6772.413    1446.4137    21746.694   -30376.362    288.28018    565.38216   0.99852339        0.295 
 1415000   -5513.6068    1260.5019   -6774.1087     1317.293    21880.318   -30377.852    302.26752   -425.54191    1.0260955       0.2925 
 1420000   -5571.7578    1268.6051   -6840.3629    1403.6298    21714.791   -30378.169    304.21066    54.465307    1.0173764         0.29 
 1425000   -5638.9053    1227.4178   -6866.3231    1369.4019    21716.414    -30381.21    294.33398   -489.07663    1.0231539       0.2875 
 1430000   -5484.9163    1258.5341   -6743.4504    1417.5799    21781.385    -30379.25    301.79564    495.28585    1.0123172        0.285 
 1435000   -5513.5471    1284.6685   -6798.2156    1407.8452    21711.668   -30376.834    308.06266    295.19088    1.0173205       0.2825 
 1440000   -5580.8299    1250.3744   -6831.2043    1479.6654     21646.68   -30378.997    299.83895     761.0399    1.0106045         0.28 
 1445000   -5635.3122    1252.8496   -6888.1618     1504.565    21532.223   -30380.129    300.43251    513.57698    1.0076633       0.2775 
 1450000   -5486.7362    1308.6032   -6795.3394    1397.0887    21765.068   -30376.175    313.80218   -99.824485    1.0020521        0.275 
 1455000   -5561.0636    1264.4229   -6825.4865     1399.449    21674.063   -30381.988    303.20778   -415.08661    1.0044893       0.2725 
 1460000   -5602.6724    1237.4201   -6840.0926    1360.0506    21713.944   -30376.542    296.73254   -569.29884    1.0196217         0.27 
 1465000   -5557.9048    1243.4073   -6801.3121    1419.2761    21696.901   -30378.642    298.16825    94.910341    1.0027966       0.2675 
 1470000   -5578.3575    1264.4044    -6842.762    1474.4303     21627.06   -30379.312    303.20335    942.68042    1.0250842        0.265 
 1475000   -5548.4324    1227.8513   -6776.2837    1424.1369     21760.42   -30377.249    294.43793     474.1116    1.0105851       0.2625 
 1480000   -5546.8794    1248.7847   -6795.6641    1341.2731    21811.099   -30381.049    299.45774   -537.89777    1.0220907         0.26 
 1485000   -5469.9253    1303.2112   -6773.1365    1372.6674    21770.592   -30375.734    312.50919   -79.452797    1.0087945       0.2575 
 1490000    -5509.538    1255.0642   -6764.6022    1327.3994    21822.784   -30377.213    300.96356   -808.75259    1.0229172        0.255 
 1495000   -5590.1476    1245.1426   -6835.2902    1380.5927    21711.336   -30377.291    298.58436   -454.99232    1.0007932       0.2525 
 1500000   -5503.2146    1243.1634    -6746.378     1336.568    21869.966   -30374.521    298.10976   -673.77429     1.005844         0.25 
 1505000    -5515.316    1210.9868   -6726.3028    1360.9575    21896.046   -30377.596    290.39383   -117.70175    1.0026611       0.2475 
 1510000   -5466.2688    1291.4793   -6757.7481     1432.113     21744.77   -30378.609    309.69588    559.59585    1.0094784        0.245 
 1515000   -5515.4116    1280.3987   -6795.8103    1454.1004    21725.579   -30379.794    307.03876    976.71744    1.0146273       0.2425 
 1520000    -5566.844    1258.7589   -6825.6029    1328.5982    21795.623   -30380.868    301.84957   -1235.7229   0.99399834         0.24 
 1525000   -5502.8424    1233.1097   -6735.9521     1375.339    21854.059    -30380.66     295.6989    80.767849    1.0122901       0.2375 
 1530000   -5611.7566    1233.4818   -6845.2384    1381.3109    21681.348   -30379.585    295.78811   -497.77083    1.0061235        0.235 
 1535000   -5561.4562      1276.04   -6837.4963    1405.3468    21730.358   -30379.422    305.99356    125.46821    1.0175592       0.2325 
 1540000   -5672.2966    1217.9014    -6890.198    1401.5066    21670.118   -30381.384    292.05195   -243.55974    1.0176228         0.23 
 1545000   -5548.9594    1241.3504   -6790.3098    1322.6254    21791.955   -30377.275    297.67501   -897.01748    1.0094888       0.2275 
 1550000   -5525.9751    1264.4516   -6790.4267    1400.0967    21769.593   -30378.747    303.21467    299.75833    1.0203862        0.225 
 1555000   -5563.0098    1263.0206   -6826.0304    1351.2173    21793.229   -30380.937     302.8715   -578.02252    1.0116829       0.2225 
 1560000    -5485.253    1266.3745   -6751.6275    1368.2641    21821.234   -30376.163    303.67577   -108.52063    1.0065978         0.22 
 1565000   -5536.2445    1243.8651   -6780.1096     1399.694    21773.453   -30381.063    298.27802    155.48476    1.0078165       0.2175 
 1570000   -5571.4171    1246.4551   -6817.8722    1490.8638    21645.287   -30377.619    298.89911    1260.7223    1.0285327        0.215 
 1575000   -5507.1892    1262.1705   -6769.3597    1379.3818    21800.029   -30379.196    302.66766    219.90904    1.0190579       0.2125 
 1580000   -5475.5755    1214.2346   -6689.8101    1360.6564    21878.095   -30381.808    291.17266    162.20674    1.0197691         0.21 
 1585000   -5549.8015    1219.9274   -6769.7289    1406.4392    21759.735   -30380.967    292.53778    283.79685    1.0216043       0.2075 
 1590000   -5469.2857    1251.6933   -6720.9791     1296.634    21940.466   -30375.947    300.15524   -679.87352    1.0116393        0.205 
 1595000   -5551.6405    1237.1996   -6788.8401    1368.9711     21784.35   -30379.239    296.67965     -24.5855    1.0261732       0.2025 
 1600000   -5535.5989    1244.5073   -6780.1062    1458.1539    21706.069   -30377.198    298.43204    755.64074    1.0032465          0.2 
 1605000   -5491.9754    1260.0285   -6752.0039    1392.3315    21805.533   -30375.962    302.15401    223.68891    1.0102672       0.1975 
 1610000   -5502.4313    1282.3536   -6784.7849    1378.1879    21791.234   -30378.942    307.50754    72.219761    1.0226788        0.195 
 1615000   -5434.7653    1258.9645   -6693.7297    1326.2408    21939.287   -30377.143    301.89885   -186.32112    1.0130596       0.1925 
 1620000   -5585.2504    1257.3165   -6842.5669    1345.5246    21744.374    -30378.94    301.50366   -588.30621    1.0274457         0.19 
 1625000   -5528.9293    1241.3212   -6770.2505    1385.8564    21799.552    -30378.87      297.668    -27.78124    1.0087198       0.1875 
 1630000   -5512.0803    1249.7669   -6761.8472    1409.4021    21756.949    -30379.03    299.69328    598.07578    1.0209223        0.185 
 1635000   -5554.4113    1257.7462   -6812.1575    1429.7636    21689.998   -30381.983     301.6067    637.58768    1.0296191       0.1825 
 1640000   -5528.3295    1282.7202   -6811.0497    1425.6194    21721.951   -30382.144    307.59546    201.65193    1.0054558         0.18 
 1645000   -5415.0306    1296.1562   -6711.1868    1359.5794    21836.685   -30373.985     310.8174   -122.49014    1.0025163       0.1775 
 1650000    -5472.535    1279.0671   -6751.6021    1334.4733    21816.614   -30381.683    306.71945   -1149.2916   0.98751404        0.175 
 1655000     -5501.82    1268.5575   -6770.3775     1377.245    21798.047   -30376.936    304.19926    1.7461216    1.0198116       0.1725 
 1660000   -5574.8853    1242.4084   -6817.2937     1402.801    21721.393   -30374.675     297.9287     -368.176   0.98829371         0.17 
 1665000   -5573.5235    1222.8083   -6796.3318    1398.8053    21724.515   -30373.998    293.22863   -34.053733    1.0103876       0.1675 
 1670000   -5465.9501     1315.885   -6781.8351    1342.4906    21789.764   -30380.929    315.54835   -711.01584    1.0050507        0.165 
 1675000   -5587.4957    1204.8035   -6792.2993    1411.9342    21755.712   -30382.222    288.91109    512.51181    1.0285941       0.1625 
 1680000   -5505.6492    1268.1162   -6773.7654    1373.3072    21795.716   -30381.924    304.09344    -65.28487    1.0177793         0.16 
 1685000   -5570.1242    1234.0295   -6804.1537    1333.3621    21779.517    -30377.13    295.91945    -832.3622    1.0233325       0.1575 
 1690000   -5491.4354    1286.9136    -6778.349     1302.901    21867.464   -30379.461    308.60103   -1091.2681    1.0076038        0.155 
 1695000   -5557.2902    1233.4916   -6790.7818    1475.5133    21645.505   -30381.225    295.79047     467.6176   0.98611211       0.1525 
 1700000   -5529.5608    1273.3267   -6802.8875     1385.957    21733.221   -30380.457    305.34291   -234.85874    1.0141094         0.15 
 1705000   -5598.2612    1252.9529   -6851.2142    1368.7434    21746.044   -30380.367    300.45729    -357.4882    1.0229005       0.1475 
 1710000   -5606.2821    1252.1505   -6858.4326    1441.0675    21619.641   -30382.217    300.26485    291.84925    1.0172756        0.145 
 1715000    -5470.884    1270.4438   -6741.3278    1314.3499     21888.17   -30382.544    304.65158   -536.78432    1.0181209       0.1425 
 1720000   -5458.4566    1270.3827   -6728.8393    1414.9094    21772.276   -30379.283    304.63694    383.28792    1.0017567         0.14 
 1725000   -5542.1103     1245.834   -6787.9443    1406.8781     21710.67   -30381.427    298.75018   -196.66899   0.99533902       0.1375 
 1730000   -5546.8538    1225.5416   -6772.3954    1414.5675    21764.375   -30378.796    293.88406    292.19762    1.0062057        0.135 
 1735000    -5533.254     1230.492   -6763.7459    1356.4861    21781.616   -30381.207    295.07116   -279.51002    1.0177131       0.1325 
 1740000   -5516.3203    1269.3866   -6785.7069    1382.6887    21778.338   -30380.038    304.39806   -41.211787    1.0184863         0.13 
 1745000   -5601.6102    1211.6668   -6813.2769     1457.856    21646.431   -30379.268    290.55689    321.57165    1.0044935       0.1275 
 1750000     -5464.07    1262.7335   -6726.8035    1388.3238    21807.797    -30381.51    302.80266    347.94977    1.0199363        0.125 
 1755000   -5609.8158    1220.0117   -6829.8275    1449.8857    21660.858   -30381.398    292.55801    423.13734    1.0091913       0.1225 
 1760000   -5403.3906    1295.0506   -6698.4412    1376.6218    21890.749   -30379.696    310.55227    307.40852    1.0147058         0.12 
 1765000    -5516.242    1249.2409   -6765.4828     1382.647    21758.198   -30377.246    299.56714    167.93234    1.0231885       0.1175 
 1770000   -5582.0367    1264.8589   -6846.8955    1451.9857     21613.33   -30377.524    303.31232    595.73197    1.0185845        0.115 
 1775000   -5537.7575    1229.4186   -6767.1761    1369.0153    21805.496   -30381.159    294.81376    13.517698    1.0260482       0.1125 
 1780000   -5494.5434    1303.1737   -6797.7171    1436.2813     21746.59   -30380.854    312.50019    737.63948     1.019697         0.11 
 1785000   -5506.8968    1245.4135   -6752.3103    1381.9664    21814.635   -30377.185    298.64934    53.072035    1.0092991       0.1075 
 1790000   -5570.6629    1257.0357   -6827.6986    1389.5682    21752.819   -30378.813    301.43633    -254.1322    1.0049075        0.105 
 1795000   -5403.0983    1313.5161   -6716.6144    1299.9894    21921.198   -30378.568    314.98029   -534.90063    1.0142742       0.1025 
 1800000   -5571.5716    1221.6883   -6793.2599    1459.5581    21671.077   -30379.985    292.96006    1199.0646    1.0291174          0.1 
 1805000   -5576.3609    1224.1212   -6800.4821    1353.5425    21807.985   -30380.553    293.54345   -387.59054    1.0179841       0.0975 
 1810000   -5606.1276    1268.2463   -6874.3738    1461.2712    21629.806   -30377.587    304.12462      705.686     1.032963        0.095 
 1815000   -5528.0175    1213.0379   -6741.0554    1404.3111    21772.221   -30376.182    290.88569    360.59394    1.0146256       0.0925 
 1820000   -5519.9749    1246.5714   -6766.5463    1333.2785    21832.117   -30376.792      298.927   -490.34561    1.0222947         0.09 
 1825000   -5445.4758     1293.818   -6739.2938    1310.9077    21908.662   -30376.428    310.25669   -505.90791    1.0175154       0.0875 
 1830000   -5541.7133    1258.3353   -6800.0486    1342.3151    21835.187   -30378.672    301.74797   -431.49631    1.0112617        0.085 
 1835000   -5455.3051    1261.9795   -6717.2846    1352.0659     21888.34    -30378.24    302.62186    -278.9793    1.0005135       0.0825 
 1840000   -5550.1255    1264.0761   -6814.2015    1457.0559    21643.406   -30381.124    303.12461    732.70062    1.0158677         0.08 
 1845000   -5534.0588    1215.4174   -6749.4762    1393.3056    21800.212   -30376.843    291.45629    318.75691    1.0144019       0.0775 
 1850000   -5470.5935    1240.7072   -6711.3007    1398.1611    21825.075   -30377.387    297.52076    246.47011   0.99682722        0.075 
 1855000   -5562.2126    1269.9488   -6832.1614    1405.7155    21717.318   -30382.767     304.5329    158.21904    1.0206821       0.0725 
 1860000   -5593.1478    1212.5719   -6805.7197    1431.8435    21688.522   -30377.259    290.77394    490.69887    1.0155469         0.07 
 1865000   -5547.7314    1230.6551   -6778.3865    1415.4128    21748.348   -30378.118    295.11029    184.13907   0.99833163       0.0675 
 1870000   -5530.8677    1219.9933    -6750.861    1379.1571    21831.652   -30375.929    292.55359    34.766398    1.0094217        0.065 
 1875000   -5568.1541    1254.3638   -6822.5179    1355.1579    21740.634   -30379.983     300.7956   -705.50446    1.0143892       0.0625 
 1880000   -5653.4584    1235.3915   -6888.8499    1430.7173    21633.442   -30379.735    296.24606    102.70794    1.0154835         0.06 
 1885000   -5465.2275    1218.1694   -6683.3969    1239.8122    21974.299   -30378.879    292.11621   -1526.9501      1.00297       0.0575 
 1890000   -5596.8191    1179.0514   -6775.8705    1375.6822    21763.894   -30376.484    282.73574   -135.80694    1.0180663        0.055 
 1895000   -5465.5228    1216.5423   -6682.0651    1399.7408    21824.803   -30381.567    291.72604    189.86203    0.9918745       0.0525 
 1900000   -5525.4584     1268.983   -6794.4415    1386.5598    21763.346    -30379.48    304.30129   -147.74084    1.0101088         0.05 
 1905000   -5629.8529    1254.2275   -6884.0804    1455.3465    21571.828   -30380.574    300.76293    536.16177    1.0309795       0.0475 
 1910000   -5498.7043     1240.937   -6739.6413     1343.971    21867.501   -30378.531    297.57587   -307.05181      1.00532        0.045 
 1915000   -5489.6666    1266.2052   -6755.8718     1356.677    21815.921   -30373.873    303.63517    41.753289    1.0289101       0.0425 
 1920000   -5534.4011    1264.7423   -6799.1433    1414.4972    21675.646   -30381.358    303.28436    307.25885     1.030805         0.04 
 1925000   -5504.0398    1249.1105   -6753.1503    1407.4242    21780.765   -30377.439    299.53588    416.81022    1.0112989       0.0375 
 1930000   -5486.5931    1291.1596   -6777.7527    1380.6453    21793.976   -30378.396    309.61922   -167.68264    1.0083434        0.035 
 1935000   -5482.2055    1242.0698   -6724.2753    1296.2668    21881.772   -30378.102    297.84751    -1240.512    1.0083689       0.0325 
 1940000   -5413.7616    1287.0265    -6700.788     1300.618    21943.573   -30379.549     308.6281   -822.10018    0.9947525         0.03 
 1945000   -5618.7196    1214.3524    -6833.072    1410.8621    21689.242   -30381.323     291.2009    177.78285    1.0261522       0.0275 
 1950000   -5559.1869    1277.5888   -6836.7757    1384.1924    21715.907   -30380.281    306.36495   -269.07872      1.01053        0.025 
 1955000   -5556.8805    1290.1761   -6847.0566    1420.3306    21702.458   -30379.354    309.38338    63.181765    1.0037638       0.0225 
 1960000   -5536.3473     1288.352   -6824.6993    1333.2341    21766.427   -30380.118    308.94596   -956.94729    1.0098248         0.02 
 1965000   -5560.7629    1271.8239   -6832.5868    1394.6008    21745.026   -30375.628    304.98253    27.022116     1.014722       0.0175 
 1970000   -5571.8348    1246.9662    -6818.801    1368.7901    21728.521   -30376.246    299.02167   -642.85981    1.0038267        0.015 
 1975000   -5448.1873    1277.5391   -6725.7263    1376.1799    21855.417   -30379.445    306.35302    158.55616     1.010898       0.0125 
 1980000   -5569.4362    1227.1456   -6796.5818    1384.1163    21747.316    -30379.52    294.26871    -224.4952    1.0128917         0.01 
 1985000   -5490.1779    1256.3196   -6746.4975    1376.0987    21800.479   -30378.853    301.26461   -23.927186    1.0117616       0.0075 
 1990000   -5568.4743    1216.0821   -6784.5564    1365.6444    21804.572   -30380.078    291.61568   -40.531986     1.024747        0.005 
 1995000   -5623.9072    1244.7555   -6868.6627    1444.7105     21613.58   -30377.599    298.49155    401.54781    1.0221617       0.0025 
 2000000   -5564.5636    1253.8102   -6818.3738    1394.5734     21742.16   -30376.703    300.66286   -89.748646    1.0114229            0 
Loop time of 13852.8 on 12 procs for 2000000 steps with 1800 atoms

Performance: 12.474 ns/day, 1.924 hours/ns, 144.375 timesteps/s
95.5% CPU use with 12 MPI tasks x 1 OpenMP threads

MPI task timing breakdown:
Section |  min time  |  avg time  |  max time  |%varavg| %total
---------------------------------------------------------------
Pair    | 7431.1     | 8143.6     | 8773.3     | 379.5 | 58.79
Bond    | 24.35      | 26.055     | 27.801     |  23.2 |  0.19
Kspace  | 2212.7     | 2764.8     | 3391.2     | 573.6 | 19.96
Neigh   | 568.42     | 569.87     | 570.75     |   2.7 |  4.11
Comm    | 806.14     | 866.5      | 930.63     | 180.1 |  6.26
Output  | 0.032719   | 0.034078   | 0.041882   |   1.3 |  0.00
Modify  | 964.98     | 1144.9     | 1300.5     | 428.3 |  8.26
Other   |            | 337        |            |       |  2.43

Nlocal:        150.000 ave         166 max         139 min
Histogram: 3 0 2 0 2 3 0 0 1 1
Nghost:        6125.92 ave        6158 max        6091 min
Histogram: 1 1 0 2 1 2 2 1 1 1
Neighs:        87012.7 ave      102741 max       79216 min
Histogram: 2 1 2 3 3 0 0 0 0 1

Total # of neighbors = 1044152
Ave neighs/atom = 580.08444
Ave special neighs/atom = 2.0000000
Neighbor list builds = 89145
Dangerous builds = 0
Total wall time: 4:01:57
