# Pure HNS crystal, ReaxFF tests for benchmarking LAMMPS
# See README for more info

304 atoms
4 atom types

0.0000000000000000e+00 2.2326000000000001e+01 xlo xhi
0.0000000000000000e+00 1.1141200000000000e+01 ylo yhi
0.0000000000000000e+00 1.3778966000000000e+01 zlo zhi
0.0000000000000000e+00 -5.0260300000000004e+00 0.0000000000000000e+00 xy xz yz

Masses

1 12
2 1.008
3 15.999
4 14

Atoms

30 1 -1.5978703752096285e-03 1.2032863869865822e+00 2.8256400602546141e+00 1.6550970119417108e+00 0 0 0
34 1 1.4609342964817035e-01 1.9907567656339498e+00 4.0380967812225812e+00 1.6037009557414807e+00 0 0 0
38 1 -1.1313442904350110e-01 2.3735208752501014e+00 4.6358508212064597e+00 2.8207166456035706e+00 0 0 0
42 1 1.6137623866269668e-01 2.2068159183466545e+00 3.9155626912486312e+00 4.0393199600260017e+00 0 0 0
46 1 -1.3231732350799086e-01 1.6723546283637456e+00 2.6490843099361769e+00 4.0718695650174555e+00 0 0 0
50 1 1.3924326618460361e-01 1.0432796609680879e+00 2.1377763017045028e+00 2.8779760001142254e+00 0 0 0
2 1 1.0355454307915037e-02 9.2365304282304432e+00 3.0315922757175588e+00 5.8645178945136656e-01 0 0 0
83 3 -1.1387168269097275e-01 -2.8903688091767799e-01 4.4353520665316273e+00 5.8542082062284990e+00 0 0 0
151 2 2.4137857976817839e-01 -1.2098303319415862e+00 6.2642360580370904e-01 6.3751534971040620e+00 0 0 0
90 3 -1.4867175259103951e-01 2.7301832997028690e+00 4.2208910046400874e+00 6.4748944299312052e+00 0 0 0
62 3 -1.4102407432432201e-01 9.4127387076516271e+00 5.0642928548941315e+00 3.6732353442096048e+00 0 0 0
98 3 -1.4663622654196759e-01 -3.6147625406370998e-01 6.2032706772140034e-01 4.2927916563248019e+00 0 0 0
54 1 -4.5611437629532792e-02 4.5789128567777315e-01 2.3037414864278984e+00 4.4853180490390432e-01 0 0 0
87 3 -1.8118678506945068e-01 3.4239328769587729e-01 2.4978291763591067e+00 6.8433313861644862e+00 0 0 0
122 4 -1.3816556601478763e-03 2.7347000852858909e+00 4.7780564701856187e+00 5.2860122928435764e+00 0 0 0
126 4 3.6742909094152829e-03 2.4236147574090339e-01 8.2881803614262350e-01 3.1300069722778523e+00 0 0 0
106 4 5.0380311643663904e-03 9.5333959154754595e+00 4.9409481826854691e+00 2.4063719536640074e+00 0 0 0
146 2 2.5678858551879979e-01 1.6690771913639459e+00 2.1486485750781656e+00 4.9718402573987817e+00 0 0 0
110 4 1.6289496724444380e-03 5.3102382664427816e+00 1.9205393567101749e+00 2.1572449075775788e+00 0 0 0
150 2 2.1173170721002404e-01 7.5386951474057873e-01 1.3549807632892001e+00 9.3638420990104679e-02 0 0 1
6 1 1.1953236006118220e-01 8.7624714685569316e+00 3.7188181320106537e+00 1.7053122151642655e+00 0 0 0
10 1 -1.2241319991927709e-01 7.5639831402718549e+00 3.2619209383245216e+00 2.2783314043500087e+00 0 0 0
14 1 1.6332523038636718e-01 6.7064629894786840e+00 2.3225374933384266e+00 1.5993053103840011e+00 0 0 0
18 1 -1.2740222789777322e-01 7.1960583589051836e+00 1.7158122662355066e+00 4.4569871516692844e-01 0 0 0
27 1 -5.3470339611564929e-02 8.2035551240691014e+00 5.2145834528427404e+00 6.7535330772512978e+00 0 0 0
130 2 2.6175533983311156e-01 7.2291088343383372e+00 3.7463444170136344e+00 3.1894666598585886e+00 0 0 0
115 4 -1.0266178820511205e-02 6.5003245602926247e+00 1.9837100341352589e+00 5.4205438257015626e+00 0 0 0
70 3 -1.9659495203039720e-01 4.8736785299263445e+00 6.8433015433575883e-01 2.0399570769464188e+00 0 0 0
66 3 -1.4139946566263059e-01 4.6669037558628865e+00 2.7410416721294739e+00 2.9336061027665226e+00 0 0 0
79 3 -1.4677703049809945e-01 7.3812392124196062e+00 1.4179852894043470e+00 4.6640710482179113e+00 0 0 0
75 3 -1.6908670824429517e-01 6.1211322589023460e+00 3.2420945874253642e+00 5.3132771020098115e+00 0 0 0
139 2 2.5448108175084960e-01 8.4566882159339229e+00 4.3172025545808355e+00 6.2369390618225014e+00 0 0 0
23 1 1.3477422750843063e-01 6.0540050656644713e+00 1.1700924054581945e+00 6.6706585187016119e+00 0 0 0
118 4 -1.5835790692106114e-02 2.4504894190711446e+00 4.5478624528845764e+00 2.3408689744414402e-01 0 0 0
26 1 -5.8799784794887205e-02 1.0677497585216404e+01 3.3270395487987150e+00 2.1937163062090195e-01 0 0 1
135 2 2.2667543991902223e-01 4.2303516292691130e+00 2.3680991399220881e+00 6.7600909900965371e+00 0 0 0
134 2 2.6603700384712170e-01 1.5553791693879147e+00 9.2759126357203769e-01 1.3751336880718977e+01 0 0 -1
35 1 1.3619576950915824e-01 -6.1123259368930594e-01 4.2744050950379879e+00 8.2689176641591953e+00 0 0 0
39 1 -1.3619776752057167e-01 2.1174961291658523e-02 3.7911192964937714e+00 9.4031145771372433e+00 0 0 0
43 1 1.7616533882120664e-01 -2.4082821430091039e-01 4.3921540571785220e+00 1.0667961368752986e+01 0 0 0
55 1 -4.7675633308455131e-02 -1.8255087561703223e+00 2.3531147144749784e-02 7.0185294659074930e+00 0 0 0
51 1 1.4229302277810482e-01 -1.4696286889225143e+00 2.4331344403165978e-01 9.4912358273027095e+00 0 0 0
67 3 -1.3320855668594128e-01 2.2563624634551185e+00 6.4796712999277428e-01 9.7945933875844204e+00 0 0 0
82 3 -1.2277895342641043e-01 -2.4283488967409923e+00 3.7198642287090697e+00 1.2995930949473768e+01 0 0 0
111 4 -1.5140995980939403e-03 3.0250993995224067e+00 1.4943316767321402e+00 9.1744364446145408e+00 0 0 0
91 3 -1.4025506634127735e-01 1.7753588712423607e-01 4.4153781344920002e+00 1.3115706743542738e+01 0 0 0
95 3 -1.3868856763412177e-01 1.2309740323323872e+00 2.8163901938840534e+00 1.1864853104907548e+01 0 0 0
99 3 -1.3250332187377967e-01 -2.4235387111074864e+00 2.2927169952708413e+00 1.0531038226936827e+01 0 0 0
103 3 -1.5214067005316109e-01 -2.5943266041046478e+00 2.0130134130925272e+00 8.2928000156291564e+00 0 0 0
11 1 -1.2064832278125080e-01 4.9238352739840066e+00 5.1583157878512989e+00 8.7390613510373552e+00 0 0 0
123 4 -1.8374834914142782e-03 4.6335581596415221e-01 3.8350456476487684e+00 1.1969089243285413e+01 0 0 0
127 4 -4.5958705273757214e-03 -2.3340640092443685e+00 1.5285367626179718e+00 9.4882316286490980e+00 0 0 0
143 2 2.8164020999934403e-01 8.1801006001560150e-01 3.0833734683476477e+00 9.2359390877007783e+00 0 0 0
226 3 -1.3797612921025582e-01 3.0686575977270270e+00 5.3454897967899155e+00 1.2182598966837521e+01 0 0 0
74 3 -1.4848161091470552e-01 3.6465792627245133e+00 4.2615086181930439e-02 1.2180659758160441e+01 0 0 0
107 4 -1.4162558249806764e-02 6.9041986670066819e+00 3.4945477378354388e+00 8.8118463563242155e+00 0 0 0
7 1 1.3874647498773149e-01 6.1777705393650866e+00 4.7275638247590814e+00 8.2546633769247251e+00 0 0 0
59 3 -1.4867036170029541e-01 7.9924230788486739e+00 3.0224192820538822e+00 8.2251400208652061e+00 0 0 0
15 1 1.5783636416316224e-01 4.3575954701770536e+00 9.7856621771074259e-01 8.4167269066637989e+00 0 0 0
19 1 -1.2015824785960097e-01 4.8284895573299593e+00 1.5629079717902468e+00 7.2532253050378577e+00 0 0 0
147 2 2.8239828117589366e-01 -9.3165419330122523e-01 4.2118942787062214e-01 1.1512337330019069e+01 0 0 0
114 4 -1.4785079641223244e-02 3.8503739478102448e+00 1.3491416192259467e+00 1.2373804865591053e+01 0 0 0
3 1 1.3350861714137560e-02 6.8114774504878302e+00 5.5447953386683206e+00 7.2580722690515636e+00 0 0 0
63 3 -1.2277076639947315e-01 6.4897117194665608e+00 2.8986172068480283e+00 9.9060820538034609e+00 0 0 0
78 3 -1.1723116541459006e-01 4.4127311301931043e+00 2.1084084419897180e+00 1.1535065556985785e+01 0 0 0
71 3 -1.7152044820786300e-01 2.8873531342706946e+00 2.7797489684906393e+00 9.3163860457066789e+00 0 0 0
131 2 2.7834313014819689e-01 4.3817210322557489e+00 4.5528948096328836e+00 9.5379421136925018e+00 0 0 0
31 1 9.4935956929876678e-03 -1.4954352092350376e+00 5.3645298943245292e+00 8.3142675828162034e+00 0 0 0
86 3 -1.6350292182104242e-01 -1.8311649351050598e+00 2.0802600512349903e-01 1.3629050043036029e+01 0 0 -1
60 3 -1.7749808073059342e-01 6.6696465438141646e+00 1.5936122406953454e-01 1.1815497920409818e+01 0 0 0
155 1 7.9312977244249613e-03 6.8120544939431360e+00 1.0199834144196412e-01 7.2127972853813258e+00 0 1 0
22 1 1.4407031044516649e-01 3.4096950234688004e+00 2.0679954049404619e+00 1.3690619069119307e+01 0 0 -1
140 2 2.5769600911651236e-01 6.0687404141669434e+00 1.3241144290919518e+00 1.3462978005934200e+01 0 0 -1
199 1 -1.3944547646247771e-01 -1.1362038789337188e+00 5.4530148366485571e+00 1.0742524104946057e+01 0 0 0
119 4 -1.2299043862974497e-02 -2.3446859456688562e-01 3.6495764565964248e+00 6.8964694682143248e+00 0 0 0
182 1 6.7658225708544725e-03 1.4169424463071361e+00 8.3763330460636727e+00 1.4012109232974952e+00 0 0 0
186 1 1.2980507892816731e-01 2.2797704925844604e+00 9.5291291369621636e+00 1.3666006980904655e+00 0 0 0
190 1 -1.5071175365705503e-01 2.7699144439458436e+00 1.0081261276817276e+01 2.5544135724485146e+00 0 0 0
194 1 1.7547903565045994e-01 2.3921031079123969e+00 9.5103250107764765e+00 3.8009524053675627e+00 0 0 0
198 1 -1.3144018623170101e-01 1.4977753357515831e+00 8.3987685531196199e+00 3.8549410858411388e+00 0 0 0
202 1 1.3849820878754834e-01 1.0150476921735834e+00 7.8483962991977574e+00 2.6673948664405547e+00 0 0 0
206 1 -6.3927688649410647e-02 6.6270841666167679e-01 7.9494021125481424e+00 1.4197887405827284e-01 0 0 0
235 3 -1.3761341595728172e-01 -2.8837295421316522e-01 9.2189872838153608e+00 5.8372696110592788e+00 0 0 0
142 2 2.6479443554012794e-01 2.9320229108693479e+00 5.5858386406215974e+00 2.8822394959582591e+00 0 0 0
242 3 -1.4112562564538583e-01 2.5388308202795757e+00 9.7663385818562389e+00 6.3230546934248055e+00 0 0 0
291 2 2.3831756420052311e-01 8.3394602256848422e+00 1.0597218595134976e+01 5.6327293542472532e+00 0 0 0
250 3 -1.0987475178029475e-01 -5.0622879855012592e-01 6.2591257947415606e+00 3.8940086364947737e+00 0 0 0
258 4 6.9512359773382104e-03 9.4664816115561496e+00 1.0405510702076073e+01 1.9702849156142326e+00 0 0 0
262 4 -8.0100924398892291e-03 5.3017951547661228e+00 7.1947421307917523e+00 2.2008872174147442e+00 0 0 0
274 4 -2.8801715867946998e-02 2.8217805545648877e+00 1.0198911718869871e+01 5.0989203211129208e+00 0 0 0
278 4 -8.3382269572114982e-03 1.9022473073729729e-01 6.5306916972236531e+00 2.7977581783283543e+00 0 0 0
222 3 -1.5735096896248177e-01 5.0460780570651043e+00 5.9652600638197084e+00 1.9688452086847921e+00 0 0 0
298 2 2.8845912568524801e-01 1.2259584803396069e+00 7.9975091793540463e+00 4.8377168239797355e+00 0 0 0
267 4 -8.1543222370399418e-04 6.7515502316853571e+00 7.3530236371224733e+00 5.3783512877798509e+00 0 0 0
154 1 7.1908069858682630e-03 9.1240531784682535e+00 8.3732699807014779e+00 4.1677219242496333e-01 0 0 0
158 1 1.3448308907124562e-01 8.6487938120238645e+00 9.1661211028768115e+00 1.5116534817235705e+00 0 0 0
162 1 -1.1355360785260224e-01 7.3973813587135364e+00 8.8118392837386903e+00 2.0442619468259688e+00 0 0 0
166 1 1.5711265427818599e-01 6.6193754339762592e+00 7.7216957118390352e+00 1.5125332287756803e+00 0 0 0
170 1 -1.2245433545215903e-01 7.2334953478137844e+00 6.9135079041535876e+00 5.1425051872838257e-01 0 0 0
175 1 1.3581278243177822e-01 6.1399576319422247e+00 6.6351336822606477e+00 6.6388959270812675e+00 0 0 0
282 2 2.3480529560852545e-01 6.8780657238569551e+00 9.4266263098711551e+00 2.8083989170176249e+00 0 0 0
179 1 -3.9098442124970913e-02 8.1921382670269995e+00 1.1015911501599872e+01 6.6154483416940151e+00 0 0 0
231 3 -1.2568742237480407e-01 7.4708728388631442e+00 6.7304833314035504e+00 4.5334798740490836e+00 0 0 0
218 3 -1.4344893238707335e-01 4.7091494226840656e+00 7.8204929202859752e+00 3.1719768839537057e+00 0 0 0
294 2 2.9175211722940220e-01 3.4302436656544328e+00 1.0911761593148093e+01 2.4580124801797307e+00 0 0 0
227 3 -1.5716251537215054e-01 6.3710113945660511e+00 8.6140075062272228e+00 5.1189294887372707e+00 0 0 0
254 3 -1.6304878692327615e-01 1.1369152465923738e-02 5.8040125934093432e+00 1.7344736606349882e+00 0 0 0
94 3 -1.6001482691396210e-01 3.4226797144178276e+00 5.8324891118411557e+00 5.0673816802761040e+00 0 0 0
214 3 -1.3095404512866216e-01 9.2822478837309497e+00 1.0944567563926054e+01 3.1520938926115289e+00 0 0 0
210 3 -1.6656061802004779e-01 1.0125927049661630e+01 1.0968553134904163e+01 1.0306564425404838e+00 0 0 0
58 3 -1.8302344471552118e-01 1.0213161644629823e+01 5.8090021306247959e+00 1.7225024677054026e+00 0 0 0
246 3 -1.6180800736237624e-01 3.7271744208235593e+00 1.1136471158690993e+01 4.9690967792530811e+00 0 0 0
102 3 -1.6531840940386305e-01 3.3511101143416933e-01 1.1054539855366549e+01 2.2157686745942939e+00 0 -1 0
238 3 -1.6856155817812890e-01 2.9083086152708901e+00 5.7681194020610480e+00 1.7191101722965371e-01 0 0 0
287 2 2.4377790046642306e-01 4.4026866149631791e+00 7.9897646117591492e+00 6.8189677819979027e+00 0 0 0
286 2 2.6154505839152942e-01 6.7181127902312507e+00 5.9804318863208010e+00 2.1530836987465235e-01 0 0 0
171 1 -1.1187852832153318e-01 4.9158733746689869e+00 7.0613244573777925e+00 7.1285394473597972e+00 0 0 0
187 1 1.3804049779409072e-01 -4.7081814568988589e-01 9.4447023070407337e+00 8.2867903808074814e+00 0 0 0
191 1 -1.2971955344725286e-01 1.0532858911262055e-01 9.0301089070007023e+00 9.5194948333957843e+00 0 0 0
195 1 1.7237826722593086e-01 -3.2979026063385319e-02 9.7887682538998035e+00 1.0706940452275044e+01 0 0 0
270 4 -1.3464043531568919e-02 -2.2543639852501798e+00 1.0142966260197174e+01 1.3730567035196929e+01 0 0 -1
203 1 1.3427963268281090e-01 -1.8024111493992248e+00 5.9588781753908151e+00 9.5912321727716829e+00 0 0 0
302 2 2.4793795803104607e-01 -4.0813465149326733e+00 7.0098028171254363e+00 1.3582140525668459e+01 0 0 0
234 3 -1.2298530438399083e-01 -2.0999175503602907e+00 9.3334349911585850e+00 1.2713070387329807e+01 0 0 0
183 1 -1.3480580351704630e-03 -1.2524425039534379e+00 1.0603399634220155e+01 8.3052270038890796e+00 0 0 0
243 3 -1.6074098714307544e-01 1.0092944188786444e+00 1.0218279224693790e+01 1.2861379846486365e+01 0 0 0
247 3 -1.5387578069009830e-01 8.5439915136228706e-01 8.0170106581812881e+00 1.2211169111299865e+01 0 0 0
251 3 -1.3983948146137931e-01 -2.9738796938163725e+00 7.5122263482065499e+00 1.1030823813483353e+01 0 0 0
255 3 -1.6423936253041480e-01 -3.0284913258585524e+00 7.9088522479385679e+00 8.7407850365314399e+00 0 0 0
259 4 8.0410558983729646e-04 6.7961292001636444e+00 9.1867860735672711e+00 8.8636424740217947e+00 0 0 0
275 4 -4.3259974176743099e-05 6.9707283465202874e-01 9.3227186018980994e+00 1.1981108937286187e+01 0 0 0
279 4 -5.4226204814747658e-03 -2.7183814077004502e+00 7.1633679386102083e+00 9.7555594565405492e+00 0 0 0
295 2 2.6218133810847499e-01 6.0410847381122412e-01 8.0421997981783182e+00 9.5648500938018834e+00 0 0 0
230 3 -1.2018011636818954e-01 4.6317864784420824e+00 6.8176590020738042e+00 1.1516620570461674e+01 0 0 0
271 4 -2.8439562879540532e-02 -2.3352025232358109e-01 8.6009765210205842e+00 7.0174876202960812e+00 0 0 0
219 3 -1.4441576113611607e-01 2.1139860757598838e+00 5.9566809343395395e+00 9.2739736659519139e+00 0 0 0
159 1 1.3413754194495167e-01 6.2381774846970295e+00 1.0512869843000209e+01 8.2998411286674898e+00 0 0 0
207 1 -4.5275085907843307e-02 -2.2313374155847714e+00 5.9531808015124978e+00 7.1401084416064693e+00 0 0 0
167 1 1.7086332099009921e-01 4.3308992321162805e+00 6.2978761471859119e+00 8.1848912823747266e+00 0 0 0
299 2 2.8374116457714360e-01 -1.3476728927796344e+00 5.8584256959679699e+00 1.1723539811442672e+01 0 0 0
163 1 -1.2189457501468513e-01 5.0935078513079350e+00 1.1062258678023431e+01 9.0012683062525820e+00 0 0 0
263 4 -7.2701194644572698e-04 2.9434843653848728e+00 6.8044753722388700e+00 8.7310546416994494e+00 0 0 0
283 2 2.7264339681755889e-01 4.8359812206870174e+00 1.0640435156903745e+01 9.9608335270238513e+00 0 0 0
215 3 -1.4288902954841964e-01 6.2383981494412399e+00 8.7703889714141425e+00 9.9908196032513992e+00 0 0 0
266 4 -8.3036691590210043e-03 3.8552898694615410e+00 6.3532834866457213e+00 1.2405163389905894e+01 0 0 0
223 3 -1.5495221688355837e-01 2.7688702181241505e+00 8.0788864563930165e+00 8.7961622886575483e+00 0 0 0
47 1 -1.4240292392311604e-01 -8.0585282619207854e-01 1.1001203580909479e+01 1.0640184120123211e+01 0 -1 0
239 3 -1.5918937290882762e-01 1.2364626954722713e-01 7.3735979096052837e+00 7.1236548585242829e+00 0 0 0
211 3 -1.5314927771899267e-01 7.7651972221628771e+00 8.5829452424035306e+00 8.2735478967570266e+00 0 0 0
174 1 1.3567196175621835e-01 3.3561575756156685e+00 7.2839028683362592e+00 1.3611594287463081e+01 0 0 -1
178 1 -4.2521883951091258e-02 5.4615345784574156e+00 8.6476231458927373e+00 1.3600443195015076e+01 0 0 0
290 2 2.1442656366253354e-01 5.5274039219990954e+00 9.2255865950855895e+00 1.2687705291121766e+01 0 0 0
303 2 2.5353570250225943e-01 -2.2348717930687036e+00 7.0298204354936624e+00 6.9132532076613566e+00 0 0 0
24 1 1.2162850983145865e-01 1.3570458894241060e+01 3.7277652770944414e+00 9.8918074854908070e-02 0 0 1
5 1 1.3914102385590588e-01 1.1213395000571410e+01 8.0472724282855101e-01 5.7408880705229404e+00 0 0 0
197 1 -1.3041827238141993e-01 1.8473286069241315e+01 1.0985097812596707e-01 3.0075353107267451e+00 0 1 0
13 1 1.7283275995574809e-01 1.2875160453890059e+01 4.7996107330851263e+00 5.2087316096641079e+00 0 0 0
17 1 -1.1881087407702678e-01 1.2355470079281316e+01 4.1155201213165631e+00 6.3297886650294171e+00 0 0 0
125 4 3.7413972756181225e-03 1.9792607892607982e+01 3.8314384983826288e+00 3.7758070374204347e+00 0 0 0
65 3 -1.5036712947298864e-01 1.5121389160787066e+01 4.9829628898301168e+00 4.1493419461259045e+00 0 0 0
117 4 -2.8172670419954578e-02 1.7196064275775313e+01 2.0768392879531876e+00 6.6413862436815210e+00 0 0 0
61 3 -1.2308569749478299e-01 1.0809273741496686e+01 2.5226209794106560e+00 4.0850632510091458e+00 0 0 0
85 3 -1.6137869003688254e-01 1.6596173548046423e+01 3.2483998401081635e+00 6.6279770720028131e+00 0 0 0
69 3 -1.6211349992745419e-01 1.4316483787038429e+01 2.8679518868321781e+00 4.4855442842711772e+00 0 0 0
9 1 -1.3074969844225212e-01 1.2401631549383206e+01 3.6248247848246284e-01 5.0973483639088109e+00 0 0 0
80 3 -1.2136120739760561e-01 1.2414408244527392e+01 3.7798480870141100e+00 2.3049497332865676e+00 0 0 0
105 4 -8.7639699558985304e-03 1.0400914317139788e+01 1.9934211504476644e+00 5.2185528134499632e+00 0 0 0
109 4 3.6355423208319151e-03 1.4153445124920722e+01 4.1606747163691100e+00 4.5151554719853308e+00 0 0 0
116 4 -2.0040355754916923e-02 1.3085160543744017e+01 4.4594714321443236e+00 1.4538603237969565e+00 0 0 0
129 2 2.8405512757711698e-01 1.2820832866494431e+01 8.9357547891832556e-01 4.2332198666407352e+00 0 0 0
152 2 2.4669130813086726e-01 2.1677578157490025e+01 4.0323646146544609e+00 3.5638857460123857e-01 0 0 0
29 1 5.8620817499049974e-03 1.8561052170019028e+01 2.8191467769292960e-01 5.3975919601693825e+00 0 0 0
141 2 2.6074912497584113e-01 1.6683115099591326e+01 2.8811346832734976e+00 4.1932142387762292e+00 0 0 0
33 1 1.3809754803072044e-01 1.7700292673901394e+01 1.4462902229581946e+00 5.3613784374191082e+00 0 0 0
37 1 -1.2506428679034834e-01 1.7292724764729162e+01 1.9577791424971711e+00 4.1365222417858645e+00 0 0 0
41 1 1.5574606725144832e-01 1.7684017799240962e+01 1.2568437218671011e+00 2.9834398674586708e+00 0 0 0
121 4 3.1035256692961075e-03 1.7254091420272236e+01 1.9749573648856620e+00 1.5939503050368518e+00 0 0 0
49 1 1.3615547301261535e-01 1.8863927091248083e+01 5.0961048964131059e+00 3.9285863191137240e+00 0 0 0
149 2 2.2703718115742552e-01 1.9254758140895767e+01 4.0931544733063738e+00 6.6148594449325175e+00 0 0 0
84 3 -1.3924471002607569e-01 2.0413070700633931e+01 1.2047548927515181e+00 1.0936978108224675e+00 0 0 0
53 1 -4.8376182763242251e-02 1.9296848129360342e+01 5.1351935135474474e+00 6.3529637885031054e+00 0 0 0
89 3 -1.4492596391523513e-01 1.7151071776065425e+01 1.2918686591231159e+00 5.0291711308277665e-01 0 0 0
93 3 -1.7423814775149760e-01 1.6893419100350471e+01 3.2111750510659807e+00 1.6437292442546174e+00 0 0 0
97 3 -1.3408621635364737e-01 2.0252553978161927e+01 3.6033112624663475e+00 2.6319164884537698e+00 0 0 0
101 3 -1.5647560242362671e-01 1.9966818329962706e+01 2.9803252235704702e+00 4.7704681555938286e+00 0 0 0
145 2 2.9710717883828969e-01 1.8342396226420870e+01 5.0375210273389071e+00 1.8399466526232027e+00 0 0 0
228 3 -1.4751575154425844e-01 1.3620322518195461e+01 4.8592688087461144e-01 1.7071338271502052e+00 0 1 0
57 3 -1.6234942986621856e-01 9.5573034514145281e+00 2.5713316687631611e+00 6.0309294315367872e+00 0 0 0
133 2 2.5213413889296182e-01 1.2870471176495373e+01 3.1816472789094496e+00 6.6131200188746284e+00 0 0 0
136 2 2.5352888813788832e-01 1.5309707786810065e+01 4.9333975554866214e+00 8.8529787370636895e-02 0 0 1
138 2 2.4757969448062320e-01 1.1088418315051889e+01 4.2920333787949172e+00 3.0106028235732774e-01 0 0 1
1 1 1.4746669082761749e-02 1.0642281893540970e+01 6.8544269556010395e-02 6.8142401227780320e+00 0 0 0
88 3 -1.6483993868322799e-01 1.9581081903169775e+01 5.2703115059623826e+00 2.1488086883709036e-02 0 0 1
64 3 -1.5561028561723289e-01 8.1514538556249523e+00 3.6877081373514281e-01 1.0190861669963537e+01 0 0 0
8 1 1.2742104870686943e-01 8.4817612503248814e+00 1.9386649635257653e+00 1.2088673448348180e+01 0 0 0
12 1 -1.3287822675261260e-01 9.7374245849040690e+00 2.3614292305863063e+00 1.1668887530828931e+01 0 0 0
16 1 1.7038148918615603e-01 1.0385610834546672e+01 3.4830285077629948e+00 1.2258282947730743e+01 0 0 0
20 1 -1.2612831428267482e-01 9.7652115043624903e+00 4.1264217871858486e+00 1.3381826333553166e+01 0 0 0
25 1 -4.9580879905770883e-02 9.2720365942599763e+00 3.2092695107275732e-01 7.3585562419532167e+00 0 0 0
148 2 2.8255405335750933e-01 1.6024837696238595e+01 3.2479443163306607e+00 8.9410550895656549e+00 0 0 0
137 2 2.4211278788929905e-01 9.1875734209445099e+00 7.8297873360776893e-01 8.2956507179333450e+00 0 0 0
104 3 -1.6303797587445271e-01 1.7571928078007303e+01 5.3161697109543047e+00 1.2072204347282128e+01 0 0 0
68 3 -1.3950884940126265e-01 1.2726252049625897e+01 3.2949351425978031e+00 1.1414834763137264e+01 0 0 0
128 4 -1.1637074791112794e-02 1.7184554793649326e+01 4.6282393562250501e+00 1.1015460865140042e+01 0 0 0
73 3 -1.5872839596893912e-01 1.1181520064577594e+01 2.5784441672869147e+00 8.5109267793241798e+00 0 0 0
77 3 -1.2443355673803388e-01 1.0091806544554002e+01 4.3646337275773526e+00 9.2688186113011550e+00 0 0 0
108 4 -3.6175483988508603e-03 7.8242079841413910e+00 6.6722303677879913e-01 1.1399732511932291e+01 0 0 0
112 4 -1.1575150065119208e-03 1.1761455742350400e+01 4.0719181606614256e+00 1.1776879794815027e+01 0 0 0
113 4 2.4550599269124868e-04 1.0795250821397342e+01 3.7987066995239132e+00 8.3505753502250588e+00 0 0 0
132 2 2.4842899099174726e-01 1.0210124897784075e+01 1.8788605874908142e+00 1.0866322237260500e+01 0 0 0
56 1 -5.7548729418621672e-02 1.6817150692583052e+01 3.1182828489110217e+00 1.3647345422902928e+01 0 0 0
21 1 1.3924700036304882e-01 1.1320578571569595e+01 4.6135876874421253e+00 7.0983485573687055e+00 0 0 0
32 1 1.0844185182340992e-02 1.6170921360774656e+01 2.7042197293152741e+00 1.2379322306625614e+01 0 0 0
36 1 1.3503387619781887e-01 1.5341369407103103e+01 1.5518718147435990e+00 1.2428854940060008e+01 0 0 0
40 1 -1.3597771280707957e-01 1.4740075360614529e+01 1.0465774988630860e+00 1.1294731238516940e+01 0 0 0
44 1 1.6880045598426557e-01 1.5001353192585187e+01 1.6411551197426020e+00 1.0010620303523039e+01 0 0 0
48 1 -1.2558996845974929e-01 1.5808101597792366e+01 2.7755379813359049e+00 9.9372975636831917e+00 0 0 0
52 1 1.3281216321759565e-01 1.6322309187162340e+01 3.3644510045114564e+00 1.1112513564301416e+01 0 0 0
28 1 -6.5294980841562170e-02 6.4211323147196655e+00 2.3017586164015249e+00 1.3490316072051021e+01 0 0 -1
81 3 -1.2843492532541184e-01 1.7151825848192740e+01 1.3120341070283221e+00 7.7174295144219229e+00 0 0 0
124 4 -1.4764597579941991e-02 1.4185236897374100e+01 1.0228517938755142e+00 8.8729039133495515e+00 0 0 0
92 3 -1.4190415481562765e-01 1.4204698596670227e+01 1.5016257934556176e+00 7.6321699049346643e+00 0 0 0
248 3 -1.5638430087805932e-01 1.4020886714186110e+01 5.0947360067557721e+00 8.6627100663371710e+00 0 0 0
100 3 -1.3133130869891860e-01 1.7310522047850426e+01 5.1918304994019406e+00 9.8392866690657019e+00 0 0 0
4 1 1.5734719075794559e-02 7.8639113856106908e+00 2.6785305061792619e+00 1.3189765412864087e+01 0 0 0
72 3 -1.5426752144049144e-01 1.1969567014622319e+01 5.3270782247615420e+00 1.2064966387155430e+01 0 0 0
120 4 -2.0660475242344017e-02 1.5113088125709915e+01 6.8136976964891294e-01 1.3734925518848485e+01 0 0 0
144 2 2.8606673499984137e-01 1.4148562456194458e+01 1.2935293435874679e-01 1.1341925553730979e+01 0 0 0
169 1 -1.2507437749398062e-01 1.2589350193664469e+01 9.6660641865322336e+00 6.6820816309750768e+00 0 0 0
157 1 1.3101766309728599e-01 1.1145831453245778e+01 6.5322364284476038e+00 5.4897532104231015e+00 0 0 0
237 3 -1.8127406245080599e-01 1.6806111047670463e+01 8.6400093722835205e+00 6.6759262988075010e+00 0 0 0
165 1 1.6995487109137958e-01 1.3103500332034736e+01 1.0384335954455226e+01 5.5271785715298618e+00 0 0 0
176 1 1.2882442652127868e-01 1.3671797000328342e+01 9.6038663738548795e+00 2.6168928776903760e-01 0 0 1
205 1 -4.8207815225547582e-02 1.9224825955952788e+01 1.0874213403116096e+01 6.6574893131046124e+00 0 0 0
277 4 1.4930286360253821e-03 1.9651416561184572e+01 9.2489608770003588e+00 4.1784091141788453e+00 0 0 0
209 3 -1.6275120538245183e-01 9.5554489015501503e+00 8.3795120288952756e+00 5.8743003066822324e+00 0 0 0
213 3 -1.3485169792328811e-01 1.0943788927101483e+01 8.6431449393778390e+00 4.0928003727842803e+00 0 0 0
161 1 -1.3273743374911376e-01 1.2280736566108812e+01 6.0290419636079431e+00 4.8556228573471660e+00 0 0 0
221 3 -1.7679581574343128e-01 1.4393585749017504e+01 8.4899193891902520e+00 4.5825079042836760e+00 0 0 0
253 3 -1.6035745761620385e-01 1.9781445944064224e+01 8.6485767448586675e+00 5.3040041753399327e+00 0 0 0
232 3 -1.2799358810754613e-01 1.2364918612601592e+01 9.7758010551044840e+00 2.2401917199098085e+00 0 0 0
257 4 -1.9913799867289986e-04 1.0451479233722360e+01 7.9379519522033899e+00 5.0504514859089920e+00 0 0 0
261 4 -3.4555361126691019e-03 1.4320242842210837e+01 9.7749018361670981e+00 4.7062260598906827e+00 0 0 0
268 4 -1.5055288888581174e-02 1.3124484360209099e+01 1.0442001174009329e+01 1.4325865653416883e+00 0 0 0
281 2 2.5703834979854812e-01 1.2682557129077104e+01 6.5903281288690403e+00 4.0666020770935871e+00 0 0 0
76 3 -1.6586999266455632e-01 1.3327490136711706e+01 5.7131554828911719e+00 1.6697801246823667e+00 0 0 0
269 4 -2.1171000778044357e-02 1.7283160130632815e+01 7.4411692063792323e+00 6.6447469455156956e+00 0 0 0
293 2 2.7290480959393421e-01 1.6390117340052175e+01 8.1427871754464327e+00 4.1453778817030393e+00 0 0 0
185 1 1.4251888962968337e-01 1.7646301360095702e+01 6.8060051363141278e+00 5.2762360485359965e+00 0 0 0
189 1 -1.3737458776787198e-01 1.7106287939262291e+01 7.3151885688533937e+00 4.0829606247112133e+00 0 0 0
193 1 1.6541485059377861e-01 1.7474745511598268e+01 6.7395321126450396e+00 2.8386528663930264e+00 0 0 0
249 3 -1.1843584216878646e-01 2.0295681305936338e+01 8.9442689135060611e+00 3.0850044490980602e+00 0 0 0
201 1 1.3485899621277553e-01 1.8900452250802715e+01 1.0643913043619367e+01 4.2326691162612606e+00 0 0 0
273 4 -1.6714023259828865e-02 1.6938996933016462e+01 7.3387870122823786e+00 1.5363988784299578e+00 0 0 0
236 3 -1.2355410366085848e-01 2.0177433851291724e+01 7.3270773757376118e+00 8.0727851108673909e-01 0 0 0
297 2 2.7365008989235995e-01 1.8678094529668360e+01 1.0829042176024551e+01 2.0264646843938703e+00 0 0 0
241 3 -1.3242507487597038e-01 1.7150677421619047e+01 6.6859112973428427e+00 4.3318022894633185e-01 0 0 0
245 3 -1.5323252835912843e-01 1.6103166872797594e+01 8.3462901340103492e+00 1.5133752076252216e+00 0 0 0
217 3 -1.4629220392561476e-01 1.5067188206352801e+01 1.0618680859452411e+01 4.0492352246916967e+00 0 0 0
181 1 5.0965121162264149e-03 1.8587182516354687e+01 5.7170737089830137e+00 5.1565413815669334e+00 0 0 0
292 2 2.2874358541976608e-01 1.1552525108380831e+01 7.6259286510297697e+00 1.3384679985379644e+00 0 0 0
180 1 -5.1746461189359383e-02 1.1625165190185328e+01 8.1444186576450406e+00 4.0762536869394300e-01 0 0 0
153 1 8.8208209649980433e-03 1.0600258034032093e+01 5.7454307198841628e+00 6.5451775261429477e+00 0 0 0
288 2 2.4927582339981319e-01 1.5463637315305929e+01 1.0699099426447392e+01 1.0486275946296693e-01 0 0 1
45 1 -1.3517946310057191e-01 1.8301477956473473e+01 5.5717679472161583e+00 2.7664633054482839e+00 0 0 0
304 2 2.2486586845500126e-01 2.1617085806614373e+01 9.5310367098813202e+00 5.5239430577664519e-02 0 0 0
301 2 2.3470421113143294e-01 1.8703111761640312e+01 1.0141321746893691e+01 7.2037351056071399e+00 0 0 0
160 1 1.3364542254657649e-01 8.4346293600260474e+00 7.6851716017603682e+00 1.2467023336907147e+01 0 0 0
164 1 -1.2487089796822108e-01 9.6666468779246557e+00 8.0468240032658169e+00 1.1943669747243241e+01 0 0 0
168 1 1.6701349494391496e-01 1.0439803295885056e+01 9.1127840899256274e+00 1.2381177087258184e+01 0 0 0
172 1 -1.3020759405372742e-01 9.8932371684989029e+00 9.8913871779883049e+00 1.3447195727693076e+01 0 0 0
212 3 -1.5125403187103914e-01 6.9624281408518947e+00 5.6571610609985141e+00 1.2453261174476992e+01 0 0 0
300 2 2.7611769610997067e-01 1.6017471570020845e+01 8.6259558338967963e+00 8.7191276546742404e+00 0 0 0
173 1 1.3743470947361397e-01 1.1427208127509154e+01 1.0070249006720299e+01 7.3012666328220623e+00 0 0 0
252 3 -1.3985099857863706e-01 1.7703283623898365e+01 1.0471689159899555e+01 9.4960946630226921e+00 0 0 0
220 3 -1.3314684995454354e-01 1.2640391702818302e+01 8.7278098710881640e+00 1.1171691575716721e+01 0 0 0
224 3 -1.6236151179485753e-01 1.2195126308387401e+01 1.0782788030472828e+01 1.1930418819765878e+01 0 0 0
225 3 -1.6039635575996958e-01 1.1353998720161787e+01 8.0440397714963083e+00 8.6550334837763891e+00 0 0 0
229 3 -1.3323753060864349e-01 9.9301103297282758e+00 9.5821150336327268e+00 9.3285752178239303e+00 0 0 0
260 4 -7.2882218470804692e-03 7.7661613649657051e+00 6.4638379478392016e+00 1.1828846332357456e+01 0 0 0
264 4 -4.4812040282032721e-03 1.1811851783049329e+01 9.5492369552617848e+00 1.1798537690204709e+01 0 0 0
265 4 -1.1490593454960719e-02 1.0900624858965966e+01 9.2549569808961660e+00 8.5265278740098260e+00 0 0 0
284 2 2.6169361381127387e-01 1.0136530252720341e+01 7.4934987247178269e+00 1.1092226812526848e+01 0 0 0