LAMMPS data file via write_data, version 30 Jun 2020, timestep = 0

1000 atoms
2 atom types

0.0000000000000000e+00 9.4000000000000004e+00 xlo xhi
0.0000000000000000e+00 9.4000000000000004e+00 ylo yhi
0.0000000000000000e+00 9.4000000000000004e+00 zlo zhi

Masses

1 1
2 1

Atoms # atomic

145 1 0.5277638428657475 1.248309700634391 0.8598403682178906 0 0 0
429 1 0.49557720481897827 1.1038624310937764 1.9377559025942666 0 0 0
899 2 0.07342629121738602 1.7531364344075921 1.5891211301763133 0 0 0
682 1 1.6826184726299194 1.0811259652213423 1.9461998229465234 0 0 0
244 1 1.4761893703068425 0.7430774730330858 0.7212046412387856 0 0 0
29 1 0.5445105825679847 0.28368801979004804 1.3088646340439791 0 0 0
67 1 1.7863040979340368 0.15157503572730732 1.457405643583397 0 0 0
384 1 1.9244222194519844 3.7809039817086565 2.2613421581844753 0 0 0
225 1 2.7073923410137852 0.7932278998475975 2.0643383028633067 0 0 0
801 2 3.338914102490956 0.7307566793543181 1.4064981088006336 0 0 0
569 1 2.412917493989252 0.9576647006114257 1.090727440878674 0 0 0
169 1 3.108879753767929 1.2802985932093798 0.11486940760541614 0 0 0
476 1 2.113066489667454 3.3276049377169006 0.08048499561456714 0 0 0
649 1 4.413540565698467 0.23585142196862374 1.595269875377017 0 0 0
554 1 3.7637715533965923 0.8125816245316908 0.7188948261658937 0 0 0
127 1 4.428505482579466 1.2259209195878722 1.303084242560113 0 0 0
984 2 4.5781424987862405 1.0591608692654104 0.34215949321370925 0 0 0
53 1 2.343174424958621 4.682504899948102 1.6402952268865651 0 0 0
327 1 1.1323586888268835 0.060095733225960735 2.223214089043464 0 0 0
780 1 0.8362165496323644 2.0792822013481884 1.8860988363862468 0 0 0
585 1 1.4550095815353463 1.734687872661982 1.146708579616091 0 0 0
336 1 0.2898995368210303 2.2850143357710495 0.8051387661167426 0 0 0
475 1 0.6310288811440546 3.2950870275397666 1.057900292737688 0 0 0
48 1 1.2057847718040384 2.6429579707236406 0.3966356774826949 0 0 0
670 1 3.252908145884779 4.086443651561742 1.189600534848268 0 0 0
888 2 0.2100717746548165 2.6658301835652214 1.5912575828854998 0 0 0
701 1 3.292578149461257 4.504638886251952 2.095044453361048 0 0 0
985 2 1.0757412242480113 2.5803620971948726 1.200230769400078 0 0 0
671 1 2.02799889871207 1.560616554529895 0.33644912322211457 0 0 0
626 1 2.4294337755639606 1.7810959902250012 1.826362976579829 0 0 0
144 1 1.8655281159191315 2.6212775773927577 1.8130986000196982 0 0 0
290 1 2.191141856511072 2.5872380859749935 0.8702862642206104 0 0 0
191 1 4.1191147733448 1.8455408883785942 0.5331551744446631 0 0 0
685 1 3.3758528442956135 1.6223068915352756 1.385154638872689 0 0 0
560 1 3.202835998743678 2.3253920746438386 0.4431668263171077 0 0 0
220 1 4.148241988958063 2.116247996659482 1.806374156826387 0 0 0
61 1 3.1367994059070297 2.6276791413258596 1.4431538406998374 0 0 0
113 1 4.062136273687868 2.881218364347778 1.0305143988502827 0 0 0
28 1 3.0716575722722483 3.2859448305772987 0.6870024194220179 0 0 0
183 1 4.07477699237006 3.997200584428355 0.5885648999854848 0 0 0
889 2 1.1124267051894956 3.6329438158289644 0.3794981401723566 0 0 0
256 1 0.39887100609367104 4.1594466151873855 0.4647688578680667 0 0 0
180 1 0.9438135618938199 4.063975781166288 1.7048721794865602 0 0 0
497 1 1.630523929966394 3.5213698297450966 1.1378835079326473 0 0 0
912 2 3.4047648750604855 3.7664564966767484 0.11005714178997596 0 0 0
976 2 3.1156284344165055 2.3318250564676117 2.2826266247596174 0 0 0
45 1 4.524038859357986 1.246753750465339 2.317529833174987 0 0 0
159 1 2.4745906285217987 4.218516054217431 0.4905130111247355 0 0 0
611 1 2.5456310270141502 3.488702645746503 1.5291856937241186 0 0 0
51 1 1.5328052970874715 4.519001213448917 0.9590482975894724 0 0 0
591 1 3.5585326696672035 3.405728620846827 1.9136021748853278 0 0 0
179 1 4.6113688647799504 3.2503158329563906 2.0643273463577554 0 0 0
125 1 0.8852447963265432 3.1015368794230445 2.0452273631159557 0 0 0
271 1 4.278034141950979 4.108427056696086 1.6007902148740936 0 0 0
738 1 2.8906759885957443 0.14719191737150764 0.5861874579128099 0 0 0
474 1 3.7318678965815026 0.533375411654028 2.32749446761926 0 0 0
663 1 0.1463148285241768 4.167697205266052 2.2880238479753037 0 0 0
652 1 0.07258485387884993 0.013905468130944953 2.2216804941085466 0 0 0
391 1 1.4779915260234442 4.685559697514931 2.2943943082165026 0 0 0
240 1 0.8812854097112002 0.40576913767857575 3.1417498189686 0 0 0
973 2 1.176835674640804 1.119130325135357 2.5161649203222063 0 0 0
292 1 0.970567180825665 0.9264817769784192 4.2203683011255055 0 0 0
414 1 1.7247613683066794 1.9496805558876988 2.561997643132842 0 0 0
219 1 3.5475260403654585 3.8294184749970457 2.965223725255611 0 0 0
448 1 2.7273038522588995 3.1992017642468213 2.5684294697808583 0 0 0
863 2 0.3060001719391193 0.6563924565049183 3.7548402032849575 0 0 0
224 1 1.4177223554144573 1.241189218905957 3.345880463750538 0 0 0
139 1 0.08852390913086687 1.4248295954499461 3.8116469469612086 0 0 0
396 1 0.5479454577643107 1.6495628858828657 2.8797828137745642 0 0 0
227 1 2.0733762464749383 0.5376637134831721 3.720110047820531 0 0 0
89 1 2.8697430936833572 1.0760494253385766 4.134500442277271 0 0 0
136 1 1.9913088434771937 0.36085446647049796 2.6910415744213507 0 0 0
588 1 2.9872469170321425 0.4461884436493573 3.095479153463313 0 0 0
621 1 4.088295019349315 4.693946417282045 2.8357319473115554 0 0 0
519 1 4.050168642473031 0.9873577253992902 3.2598995113462585 0 0 0
478 1 4.004298053765235 0.7687134779941369 4.252683076924863 0 0 0
998 2 3.2305686074746416 1.5272201977212878 3.512116406940774 0 0 0
966 2 3.7883086049272716 0.2028331593086455 3.2748828218038404 0 0 0
628 1 3.503856298237059 1.561791609491505 2.6159583070605037 0 0 0
249 1 0.3165278739481482 3.078182922341505 3.4551502899790596 0 0 0
248 1 3.5804640807983117 3.7706685675282365 3.9913414571895887 0 0 0
625 1 0.09183140359502484 2.5918319391587405 2.4345798547527426 0 0 0
68 1 0.8585281214202398 2.049460310732247 3.7787070819608104 0 0 0
110 1 1.0663415043759406 2.932449329983136 4.55565667315144 0 0 0
852 2 0.28866321756285646 3.388375320413804 2.6070306952190836 0 0 0
849 2 1.2774093095651557 0.19943650166328425 3.8586775729866942 0 0 0
933 2 4.3952026858517 3.277176660543018 3.988749506912577 0 0 0
229 1 2.4466603533626827 1.2835956683791032 3.055256982916068 0 0 0
366 1 1.0131283203703156 2.56461884331335 2.829777364460555 0 0 0
873 2 2.160775413394267 1.4293709360290048 3.7892145705433293 0 0 0
661 1 1.811190174369936 2.247467377587274 3.571236947232345 0 0 0
830 2 2.400436402444945 2.920671994935757 3.7218178125414765 0 0 0
188 1 2.6498581088267756 2.3089872776707514 3.0114594579550427 0 0 0
425 1 2.7025005665992006 2.098000202034908 4.02626392624892 0 0 0
20 1 2.8060637172246587 3.0355536894804347 4.492940292452441 0 0 0
648 1 3.691276897577308 1.6873591185416548 4.489790974407105 0 0 0
466 1 1.970708402398029 2.4991125104946326 4.597724529055095 0 0 0
642 1 3.8747821978833663 2.079709146272144 3.4315674427639338 0 0 0
311 1 3.7828346344874295 2.7334220627113828 4.384321894531077 0 0 0
146 1 3.879866540535269 2.7141412418598474 2.578200670886365 0 0 0
909 2 4.310246660248673 3.907721993669245 2.6416878732142095 0 0 0
594 1 0.08462977836685588 2.507589124918393 4.23061191647688 0 0 0
947 2 1.158137284728121 2.9341834333417944 3.6784732054755174 0 0 0
643 1 0.8501343400947111 3.838134294367082 3.914631175151464 0 0 0
424 1 1.058846519639664 3.683682968781925 2.8071196223285644 0 0 0
589 1 4.499149050821548 4.070654765928493 3.589976753173416 0 0 0
277 1 1.9238031372711228 0.4032952006534323 4.681326342513485 0 0 0
676 1 3.292937179739665 2.9084854096565924 3.4946892474183784 0 0 0
506 1 1.82246336829081 3.5014984225200814 4.179667981329589 0 0 0
261 1 1.845830993298237 3.1652364682487995 3.1299078335497126 0 0 0
764 1 2.590440544207109 3.8475348356771217 3.4130879119008903 0 0 0
58 1 1.6597979073844928 4.273518693618718 3.5534096199735523 0 0 0
684 1 2.789099885914691 4.272189692652827 4.366017185284194 0 0 0
698 1 2.4674346127215516 4.678964318407647 2.810326527708683 0 0 0
606 1 4.546284244013979 3.0940433677176746 3.183257615859921 0 0 0
199 1 4.66805050752269 2.4442380705165454 4.085679441563789 0 0 0
518 1 2.1525614505966115 1.4039427057395033 4.6969616275333905 0 0 0
658 1 2.898200282050347 0.09938034146881282 4.071661258449059 0 0 0
694 1 1.0260362385164372 0.8029522508080454 6.407172721733553 0 0 0
748 1 0.2651876128539754 1.1317020619697766 5.655433713125751 0 0 0
460 1 0.5731415400081943 0.16976130362292 5.659860233124263 0 0 0
950 2 1.3816530157870974 4.432962792815111 5.4628862396579985 0 0 0
673 1 0.25424594789717814 0.49296470913841145 4.775765735903501 0 0 0
636 1 1.1582892660312611 0.8033582523651079 5.232138071826692 0 0 0
167 1 2.924775420380627 1.1509176827257666 5.2138032328766775 0 0 0
618 1 2.0029235443812174 0.8498999563169489 5.716996094773535 0 0 0
666 1 1.8844016086052093 0.3079809536264891 6.614462003356411 0 0 0
894 2 2.7599245669098784 0.040010904844748334 6.7250485891305525 0 0 0
260 1 0.1093702385367654 0.0678960353838926 6.564904657786131 0 0 0
794 1 4.1657720638397056 3.3162864399630085 5.8686012336685005 0 0 0
773 1 4.356575979861566 3.4260745789813005 4.803312425949307 0 0 0
901 2 3.6917530379325574 4.354946543002451 6.159109215422549 0 0 0
800 1 2.9516875035613226 0.770711449202774 6.29576112430493 0 0 0
871 2 3.572688216765952 0.5113921993921501 5.754497510194741 0 0 0
102 1 4.074353915162682 0.879478945372018 6.303419836718571 0 0 0
571 1 4.050432449810039 1.1999541912420013 5.309072469053397 0 0 0
710 1 4.1660461299174445 4.3342998631834675 5.301786379813327 0 0 0
152 1 4.522679238068392 4.290276731328267 6.243554083982541 0 0 0
243 1 1.8517436044381579 4.356297322524938 4.71941027532172 0 0 0
833 2 1.0972986757688454 1.6895393671119103 6.69225807247768 0 0 0
530 1 0.1878517013375559 1.701060381434467 6.649969608200063 0 0 0
13 1 0.6929143479683881 2.6009467886792748 6.299678265532109 0 0 0
587 1 0.46869433085340556 2.2588914616004243 5.1554195612821765 0 0 0
509 1 1.2301887809779366 1.6171642034336824 5.839101082099207 0 0 0
305 1 1.350855082132806 2.6302938050884617 5.478714899958532 0 0 0
295 1 0.38073393061880656 3.2860603836891484 5.400142321672691 0 0 0
989 2 2.688856139848421 0.34778401799238806 4.9625388118711475 0 0 0
508 1 1.891332478748048 1.4186587877891812 6.692525598480459 0 0 0
490 1 2.2164992665795844 1.8237577773933944 5.5983437845780495 0 0 0
121 1 2.855613454015177 1.6909234237569948 6.700950334341317 0 0 0
286 1 1.66622773231607 2.4186382750149513 6.446673771536644 0 0 0
166 1 2.8243262848155517 2.5848344301918353 6.264613247403719 0 0 0
740 1 3.4319969321133326 3.620681351572226 5.027908767081384 0 0 0
927 2 3.2328201792963793 2.9204026704597643 5.441806594958276 0 0 0
528 1 2.9563878312652383 2.1877963157503952 5.053383279379585 0 0 0
542 1 4.381314375781399 1.8333566499788063 6.193140371740956 0 0 0
65 1 3.4388607285356283 1.7912195320263686 5.860785938009328 0 0 0
543 1 3.7999138417791785 2.5844134134012147 6.391282654905358 0 0 0
158 1 3.947246202942619 2.421275360432307 5.3580626152769675 0 0 0
770 1 4.6733010553490555 1.859700647164477 4.8790787024861615 0 0 0
526 1 3.2100846233882914 3.516120462059007 6.0408874639482635 0 0 0
943 2 0.010569424775135219 2.0790296211510175 5.857357334684908 0 0 0
442 1 4.400828597179486 3.1882852421314225 6.956245660581132 0 0 0
46 1 0.8412589294719846 4.21553682779861 4.847448415405185 0 0 0
11 1 0.3721453387582624 4.094891201402139 6.052519901400926 0 0 0
418 1 1.2352751970766052 3.2961274710817023 6.890743442483084 0 0 0
718 1 1.2934998879059314 3.600000427799339 5.828724742747593 0 0 0
480 1 1.7528327403466626 4.339995337236726 6.749878365615412 0 0 0
238 1 3.1130058366153657 4.45823150480696 5.397143108464799 0 0 0
330 1 2.724023759582622 4.377691652433179 6.4573168879614595 0 0 0
970 2 1.5469449659979573 3.587719796270604 5.00948528690214 0 0 0
537 1 2.2241492597225423 3.9424522782963725 5.611121406709805 0 0 0
410 1 2.320101032949769 3.417035550545079 6.564117122196855 0 0 0
353 1 2.348234463476297 2.9552587471693466 5.488739569672679 0 0 0
566 1 3.776525180380667 1.751488804033288 7.01604900323432 0 0 0
874 2 4.6326413150658095 2.7878891639992642 6.29006182463189 0 0 0
629 1 3.581065825431931 0.06573986219327406 6.737220828887048 0 0 0
514 1 0.14154412598662353 3.3613750389769774 6.7866332912226035 0 0 0
503 1 3.659261656174536 0.13240036043444225 5.007544845001775 0 0 0
928 2 0.01177126051771499 3.972154289641979 5.119939881334149 0 0 0
919 2 4.418843032600845 0.39840705613993194 5.476934225148002 0 0 0
858 2 4.46624436259347 2.1708446938953907 6.941057077610845 0 0 0
128 1 1.2197728844030749 1.7416789465726512 4.788141300891697 0 0 0
465 1 0.9819392558103155 1.0885254267753437 8.162034911261536 0 0 0
524 1 0.5170552267334018 0.9149304192396098 9.282315429752963 0 0 0
387 1 1.3581456417736977 0.37306329252743614 9.122150343349302 0 0 0
415 1 0.48610785866183254 0.7582465655327347 7.233370428051925 0 0 0
811 2 1.6232233427121854 4.605327100570857 7.730366312647447 0 0 0
895 2 0.15411200600756475 3.942904026726302 7.5682988042470924 0 0 0
706 1 1.5488504049416616 0.7773922552003865 7.419306382403394 0 0 0
558 1 2.662566362815574 0.826726727482672 7.286521091986568 0 0 0
284 1 2.151423788863854 0.6133393903842683 8.226300293738982 0 0 0
12 1 4.6763497175252775 1.3439591221272045 7.164636288077378 0 0 0
304 1 2.350681601272774 1.4773388721796943 8.698163696460758 0 0 0
904 2 3.0995723734329017 2.503540578936194 7.096816228556888 0 0 0
851 2 0.06650612363386632 2.2192560794724128 9.184641501615273 0 0 0
294 1 3.264200309231775 0.9782427173503384 8.532320530196047 0 0 0
731 1 1.6149001980163091 4.23911273914147 9.399995572847624 0 0 0
940 2 3.791830119803601 0.3432269290669477 8.387919372046756 0 0 0
627 1 3.692238703878853 0.836100676254688 7.556026470778042 0 0 0
741 1 4.603144047037804 0.5065965199065466 8.17684001490956 0 0 0
456 1 4.083576925928145 0.6994059528840701 9.123564105181268 0 0 0
282 1 2.9636539066314036 4.282017391886135 8.981896843592022 0 0 0
254 1 1.2036864295889609 2.6499810871566205 7.6316354422541135 0 0 0
778 1 0.7588012642551708 1.7947477895783814 7.4659630969565605 0 0 0
379 1 0.6430452445880611 2.479981764083894 8.527375795202756 0 0 0
513 1 1.53357351163423 2.113818068738412 8.642113582760025 0 0 0
665 1 2.422701165859869 0.6024476656550449 9.221317877298855 0 0 0
43 1 0.1641112492695647 1.6094858563868024 8.4763831207965 0 0 0
977 2 2.4573373456838907 2.291472445630731 8.287114740204581 0 0 0
9 1 3.054788459621522 1.7438798429899887 7.771804165541518 0 0 0
622 1 4.549079364716032 0.2824820793320766 7.1191227331237545 0 0 0
107 1 1.8267181547940547 1.7943138239718621 7.655331609974962 0 0 0
86 1 3.023750659684475 2.7593933999408957 7.923697844600475 0 0 0
413 1 2.1083850667250874 3.0388715544897713 8.406364629215053 0 0 0
335 1 2.212696759857294 2.607963692322114 7.240098195359038 0 0 0
768 1 4.324492993111013 4.339759658292471 8.061208391281717 0 0 0
237 1 4.534551917513006 2.4205755390107275 8.630882524347323 0 0 0
819 2 3.813154076891251 1.5441642440369945 9.029830193710474 0 0 0
333 1 4.12547856910849 1.5293507417675547 8.100470208793224 0 0 0
64 1 3.4443104152028137 2.250465606724788 8.74280849159588 0 0 0
137 1 3.913343247300788 2.4993007069532496 7.714961680302953 0 0 0
856 2 3.8892665310537944 2.9343666749534423 8.494810746736576 0 0 0
316 1 1.2504689410482166 0.07485490553954773 8.104005563134319 0 0 0
983 2 0.9967666428456791 0.10062123900608286 7.170873046485389 0 0 0
471 1 1.1869989302276343 3.4193664442424083 8.862511033556245 0 0 0
352 1 0.505987032387041 4.251093901500559 8.864388425936088 0 0 0
534 1 0.15300847775560497 3.360772695093498 8.26104546518933 0 0 0
617 1 0.9552782580138025 3.8506092351224295 7.974236382977005 0 0 0
846 2 0.637135735329267 3.2528972331280976 7.446887013128392 0 0 0
81 1 2.3923136153035363 2.403372917262164 9.204075033380965 0 0 0
40 1 2.0900653532898232 4.1630665672996905 8.549023616772278 0 0 0
963 2 2.71836156687663 3.6823413949435406 8.279121731620757 0 0 0
380 1 1.8405025571380462 3.574361648802517 7.635734008261217 0 0 0
92 1 2.6740319558110173 4.112791308289833 7.463024728129784 0 0 0
437 1 3.008352555607912 3.245582676699644 8.920889126501557 0 0 0
640 1 3.6036425019443903 3.5809595443475573 8.034893044526703 0 0 0
854 2 3.4630667819469414 4.390497739121483 8.020211298797141 0 0 0
373 1 3.9086894737389115 2.965278892022376 9.348324381480978 0 0 0
403 1 4.055257991145162 3.9429199551371115 8.993051509082846 0 0 0
212 1 4.625655573345208 3.340267572637484 8.018948903568461 0 0 0
745 1 0.7898767480442386 1.848974820039163 9.307840515189469 0 0 0
489 1 0.2586116943006207 3.0506812980893017 9.31149094135302 0 0 0
187 1 3.7277125058862257 4.180011807124763 7.072941302390106 0 0 0
315 1 3.2309906198260636 3.335676446544857 7.050075881839239 0 0 0
138 1 0.05334379459213235 0.6123227035414163 8.17972086820507 0 0 0
753 1 3.1553144124911325 0.0957085627373945 7.8867171399695595 0 0 0
178 1 0.7583772740268891 4.166244442022932 7.061763001707913 0 0 0
345 1 1.3588341198913505 5.701130694286276 2.1315671654665955 0 0 0
195 1 0.77460531081829 6.1681971566006935 0.5269975515685441 0 0 0
634 1 0.8160188629417666 5.378873348514794 1.2208380349220906 0 0 0
278 1 0.8130901120566163 5.10627497791773 0.07501944262033404 0 0 0
532 1 1.687898352006782 5.4509294136964686 0.4792775621453759 0 0 0
38 1 2.822880047063178 5.704560591323082 0.4968138853701704 0 0 0
287 1 2.3033835593858023 5.7739622695926345 1.2935766899118937 0 0 0
961 2 2.521511432988892 5.0223267911035085 0.8651505534259061 0 0 0
865 2 1.6474486259697732 5.200172569394887 1.4796067089457483 0 0 0
922 2 0.32642748482572614 8.328171522978247 0.17399250055046928 0 0 0
449 1 1.6835500770972027 6.650799334486914 0.28020338661148164 0 0 0
251 1 0.6412947201086964 9.298990100754477 0.2644782104536559 0 0 0
612 1 3.1907419748711914 5.243301306947729 1.3738950874634086 0 0 0
600 1 4.157050556775892 5.136612986882985 1.709709463839536 0 0 0
165 1 4.552811047241508 5.871225633331053 0.8262998885660028 0 0 0
493 1 4.687364886824347 7.784571465838558 0.15056593056392523 0 0 0
451 1 4.654624105509805 4.940579395842571 0.11817705757284046 0 0 0
355 1 1.6282556581690584 7.210622690605803 1.1269687744902235 0 0 0
772 1 0.9527779052061773 7.606364593292229 1.7530277836881267 0 0 0
620 1 0.8961083055512605 6.567529448403265 1.5084917142139584 0 0 0
979 2 0.6483721577510089 7.22414682950145 1.035271802162745 0 0 0
420 1 2.640818594519605 7.174476318762458 2.2359912468538687 0 0 0
788 1 0.6680629029339549 7.088912105113432 0.07785695624659741 0 0 0
917 2 1.7406840686334621 6.388092921875432 1.1097642021895702 0 0 0
818 2 2.404190401890806 6.407335005505761 0.5190525607597645 0 0 0
182 1 3.0817937571425413 6.283933387872347 1.8943768777963566 0 0 0
147 1 2.5768088504154605 6.817748116876422 1.1968452799094942 0 0 0
792 1 1.9263373593873983 6.517278589463714 1.9579146233602436 0 0 0
431 1 2.8711730751691014 7.794037807045653 1.140403742125267 0 0 0
452 1 3.1373221524001424 6.7002310987147835 0.129731581970655 0 0 0
472 1 2.4129258887468525 7.343774806628138 0.31671808613075153 0 0 0
196 1 3.8851200835431765 8.96390587660959 2.187900692345237 0 0 0
582 1 0.28845173701981663 8.359620076199949 2.143064907691349 0 0 0
162 1 4.191039256899168 6.198269884791035 1.697595708756649 0 0 0
419 1 4.177406221931113 6.796466176893766 0.34295158240261336 0 0 0
428 1 3.5413559865563995 6.189962363828251 0.932818144736508 0 0 0
630 1 4.394315094540343 7.183599588356938 2.115652991198635 0 0 0
805 2 3.4898748314938226 7.205767083227414 2.325881341664748 0 0 0
578 1 3.6576750834042664 7.162142439960312 1.3864082053342373 0 0 0
504 1 0.11185104068986583 8.794806875769515 1.1075987671928123 0 0 0
952 2 1.1440535894618855 8.745337745685001 0.7248522597680118 0 0 0
757 1 1.0859586698682226 8.5797051469891 1.5942234044801755 0 0 0
441 1 0.9958420587488566 7.902297561177083 0.6286162729609313 0 0 0
512 1 0.49899874403767397 5.149913526467342 2.2307768380254367 0 0 0
946 2 3.7941611027979554 4.718389016702431 1.0386444785199418 0 0 0
300 1 1.9408442018393268 9.213577321848366 0.49679712947934196 0 0 0
791 1 2.011947977137643 8.039207705098088 1.7510918373846 0 0 0
272 1 3.240855375841967 8.272136009282793 2.058425252368212 0 0 0
44 1 2.942505432662707 8.502282712926911 0.4251717178623047 0 0 0
592 1 2.554883711394051 8.770500046917912 1.3782579833121877 0 0 0
576 1 1.907430991214986 8.263153541982723 0.7210014480989233 0 0 0
485 1 0.04602332121996594 7.808290684317584 1.3033009044244648 0 0 0
155 1 3.780636283920949 7.839796059218896 0.4588689080558575 0 0 0
969 2 3.4956615158590223 8.445665553915177 1.0223198089123173 0 0 0
241 1 3.5887979798655283 9.298477734107173 1.2126586422160677 0 0 0
455 1 4.1911336614705474 8.135961268680756 1.5357442590096237 0 0 0
24 1 3.793411226892807 9.279411652285347 0.24735189419505968 0 0 0
704 1 4.452756074918338 8.7942651470977 0.7729467242309803 0 0 0
281 1 3.2539475587284947 4.85256923161537 0.39982529195487276 0 0 0
875 2 1.7037954497587924 7.434492451554947 2.27820437093193 0 0 0
615 1 2.839070817442322 9.247057165329752 2.1577809218442754 0 0 0
775 1 4.478377921170442 5.65517236294092 2.5548160859405042 0 0 0
131 1 1.1041930000267477 5.768504958183519 3.1444545729691384 0 0 0
798 1 0.15183856460102751 6.068469196038087 4.136533857918283 0 0 0
563 1 4.567560955035379 8.315910484272457 4.47783789699151 0 0 0
787 1 4.55038096157901 9.258376470357883 3.0579556571450555 0 0 0
716 1 1.2589218220237854 5.055684858273935 4.136213326500827 0 0 0
855 2 1.637318477652896 5.072556642680616 3.249033334249781 0 0 0
63 1 2.2424554685472162 5.117294375704608 4.047791482976694 0 0 0
955 2 2.839059708193148 5.379177715717337 3.161621211504507 0 0 0
463 1 2.1021721779039817 5.920857414719184 3.4789731134061572 0 0 0
522 1 3.428167349802591 5.456575294565331 2.5392112951407784 0 0 0
73 1 0.804192439040899 4.720521747780403 3.1531366140209554 0 0 0
646 1 3.018378987463317 5.815111940510711 3.897502696952277 0 0 0
230 1 0.4650728696956699 6.151974084976539 2.391330578623861 0 0 0
19 1 4.4490467983365845 8.242029023735483 3.297620311041672 0 0 0
359 1 3.9676972211346078 5.548458880594557 3.4827067677090113 0 0 0
172 1 3.88635616343924 5.964377893903383 4.447362875752599 0 0 0
723 1 2.352237674080484 5.610653510549848 2.3588921440984176 0 0 0
181 1 3.313556911471178 5.065159174300768 4.6000962291472 0 0 0
821 2 4.01931734407725 8.047972404685082 2.5908328245126184 0 0 0
319 1 4.228389634245254 4.752432997264778 4.218351723471919 0 0 0
942 2 1.4131043312237375 6.6431603846314005 3.4801947461152207 0 0 0
17 1 0.31524931798970085 6.629241979732077 3.224620429199828 0 0 0
581 1 0.886984019173865 7.4694125944369025 3.569805518040086 0 0 0
632 1 1.0434949584452953 6.954430577172917 2.5606632144212944 0 0 0
303 1 0.2022107891881281 7.485848050693887 2.6214211497240107 0 0 0
607 1 0.6252975589302125 6.986418772937306 4.389568588387852 0 0 0
363 1 1.1712310961249919 6.159639065070458 4.168983576321098 0 0 0
580 1 2.2202233419512205 7.92618772152622 4.533929179586552 0 0 0
651 1 2.0183182228091407 7.048980785817112 3.047375825609704 0 0 0
931 2 2.586890806578457 6.552943177934382 3.6613165471745983 0 0 0
538 1 1.7309849751094686 7.099731506200845 4.178233739508234 0 0 0
975 2 1.6366085475467362 6.297619051830353 2.678176675798872 0 0 0
41 1 2.6594690813513067 7.4471880747605805 3.7475908069924326 0 0 0
213 1 2.889054937906183 6.39145156854644 2.878856838089383 0 0 0
405 1 2.9778070727013732 6.735367944725119 4.510588376873052 0 0 0
361 1 4.527487077919942 7.205953128096025 3.2209732457984055 0 0 0
859 2 0.24234320624622083 7.767549741857192 4.106518958094805 0 0 0
921 2 4.360525702750985 6.3604271123212355 3.4156478108925183 0 0 0
486 1 3.556368901147054 6.6663125506603516 3.625946264451087 0 0 0
185 1 3.871978305039721 6.486748572581312 2.622038645567966 0 0 0
709 1 3.834328644937539 7.69857096210592 4.013257214746181 0 0 0
202 1 3.465945401635822 7.572514675109119 3.0422469100371012 0 0 0
298 1 4.312802650753563 6.869454071757414 4.291205053508085 0 0 0
823 2 0.5642030741957668 8.917610458005024 2.779820970002675 0 0 0
565 1 3.7300085387135957 9.04481845725214 3.9575200066150886 0 0 0
647 1 0.3720576525187153 8.332038314037723 3.397130025920529 0 0 0
520 1 0.5215303201706647 9.17604114078687 4.026561057523193 0 0 0
142 1 1.2181955062589234 8.04016909000581 2.724709258290304 0 0 0
601 1 0.9877299663607564 8.258225008409884 4.223743211698255 0 0 0
390 1 1.3192083222989288 8.93043891233128 3.236549345632567 0 0 0
906 2 3.111391416092198 7.607342928768823 4.658177042018152 0 0 0
635 1 3.3582783292400817 4.780081102482232 3.563569420576982 0 0 0
365 1 2.408066351867606 9.018219124906482 3.292126240460767 0 0 0
567 1 2.96551819884627 8.3422715106894 3.874419245005529 0 0 0
192 1 2.552543796848305 8.051495844850548 2.721974159382014 0 0 0
265 1 1.8808868478708847 8.899188069859557 4.104987557774739 0 0 0
208 1 1.8599933751911735 8.046413824529376 3.480638271885397 0 0 0
275 1 3.403995491201603 8.75840616957484 3.00670045134016 0 0 0
221 1 0.2880217290356161 4.872864946146816 4.1367953184698365 0 0 0
584 1 2.150662197510183 6.13867726730618 4.53655649370669 0 0 0
389 1 1.872594478811916 8.780788694317353 2.425932336449863 0 0 0
654 1 0.02112406214201812 5.4526104947781455 3.2409224057619825 0 0 0
552 1 1.2597081000924748 5.894736458057883 6.033192304842011 0 0 0
914 2 1.743778847926239 5.272162727321562 6.671546563468711 0 0 0
574 1 1.4520969840516451 5.432745882290541 5.110785455442117 0 0 0
129 1 0.614191541564672 5.921936994781812 5.089570904892538 0 0 0
897 2 0.4089858968998089 5.608359073035723 6.097395691306386 0 0 0
91 1 0.6734804065595454 6.042097564714993 6.99894931417549 0 0 0
164 1 1.0388265709670548 4.956491534165426 6.295718170497995 0 0 0
544 1 0.24773355233596656 4.937781884180709 5.3303386535760495 0 0 0
253 1 1.136904829423543 9.267197491812277 4.819727807663678 0 0 0
864 2 2.078210804429023 6.124713387455487 5.388171671432561 0 0 0
655 1 2.033592063751798 4.877725643384996 5.891441738556238 0 0 0
329 1 2.435064124714267 5.6992219515272255 6.361232636566798 0 0 0
930 2 2.8238748229625745 5.208552381350925 5.82274253038767 0 0 0
226 1 2.8439583052543354 6.385204786032238 5.495056419378612 0 0 0
3 1 2.5168745201172484 5.334378454873064 5.075519027884782 0 0 0
342 1 0.1081340030411972 8.365703469944396 5.93117662545952 0 0 0
296 1 4.295985234529629 8.653777628642722 6.857932927041306 0 0 0
548 1 3.2957802128219904 5.1573703876637955 6.473816250311594 0 0 0
619 1 3.4701767509821724 5.537557750410249 5.4637259746522915 0 0 0
481 1 4.02362011302923 6.099129773658193 6.239271268615513 0 0 0
860 2 3.1948970437682007 5.996091677545131 6.277134914821511 0 0 0
980 2 4.180591482502537 5.29269819183971 4.99180766472072 0 0 0
667 1 4.3223746321462535 5.069038695426212 6.843661717078477 0 0 0
393 1 1.3268231283107719 7.646708645643722 4.944137091443516 0 0 0
724 1 0.3190305071506454 6.496202830845881 5.969625090460329 0 0 0
378 1 1.1878168747322535 6.805061387580101 6.475058976750324 0 0 0
245 1 1.4011842180422782 6.622396538807787 5.205700995438639 0 0 0
288 1 0.7336202310171936 7.539915493308945 5.8939115591756694 0 0 0
956 2 0.5233056795500028 7.049097206154701 5.239618340415819 0 0 0
994 2 1.5593803441234702 7.245181320000975 5.878691127478732 0 0 0
610 1 0.17230707703017642 8.86360983887698 4.973373390463837 0 0 0
374 1 0.3040199421968185 7.868699199855322 4.966747986265656 0 0 0
42 1 2.180390300671517 6.744005846062368 6.095941990059 0 0 0
549 1 2.2124133443009986 7.126643401767394 5.14077951654298 0 0 0
690 1 2.581774738609328 7.810532690305606 6.3761081619030255 0 0 0
837 2 2.461509981230388 6.421302498214422 6.93484211066768 0 0 0
362 1 4.129173588912889 8.215626326859521 5.798714840708233 0 0 0
283 1 3.119078629558979 6.843324466899319 6.569547086898582 0 0 0
120 1 4.097528763234161 7.491716661359434 5.0466407964626585 0 0 0
257 1 3.097407816293886 7.409063288833597 5.532872103946502 0 0 0
218 1 4.134713797163411 7.065562468526779 6.1953150876263035 0 0 0
536 1 3.767569506163001 6.559672577850108 5.325327818018356 0 0 0
886 2 3.476714476406288 7.76921227825038 6.482689344540344 0 0 0
400 1 4.1043576864289495 9.200022179301385 5.877966611218487 0 0 0
422 1 1.0958206199367182 9.101328996763325 6.391233202991873 0 0 0
123 1 0.48009243905193716 8.314584323172246 6.855461872647272 0 0 0
725 1 1.458681646530125 8.01574961434169 6.495863743877776 0 0 0
689 1 1.041010011962186 8.402881480255985 5.534378359482869 0 0 0
54 1 0.13585177295900858 5.190003003147262 6.780870280754951 0 0 0
734 1 4.587320121433796 6.08096106270151 5.187178917900294 0 0 0
884 2 1.645598471415591 8.53223593205844 4.931637974742921 0 0 0
879 2 3.0832624052529027 5.87957978351522 4.83577583069106 0 0 0
744 1 2.5171529806072956 8.823493640021201 4.878015196727808 0 0 0
141 1 1.6980688480334079 9.264697273993026 5.59457997705519 0 0 0
35 1 2.1095861672555487 8.07693644464704 5.564324044977509 0 0 0
377 1 2.2340778100290826 8.77783478165656 6.422685453758545 0 0 0
337 1 3.4997043033443735 8.430359704441813 4.8877789517894845 0 0 0
986 2 4.612478266684812 7.9135830740391055 6.457634608882891 0 0 0
32 1 0.22640719241420568 7.08303806124708 6.885390287949135 0 0 0
958 2 3.5806522954445317 8.707081243597383 6.2854062281180845 0 0 0
494 1 3.00149926858885 8.442339190773538 5.762172651547243 0 0 0
999 2 4.17758164381864 8.884070617443827 5.075958765761005 0 0 0
925 2 3.899539611820279 6.585748176958032 6.899935062109358 0 0 0
438 1 1.6464766987484138 6.051501581273434 7.031415159351675 0 0 0
664 1 2.6901640474240316 9.365816139205036 5.712788349922549 0 0 0
184 1 3.0422477650513633 8.626773174303825 7.042252105881961 0 0 0
680 1 1.3101114396307227 5.927284800941102 9.071177261947001 0 0 0
535 1 1.108852557916354 5.1236142271460885 7.337544300745385 0 0 0
729 1 0.7255604872008206 5.974578427533459 8.07579973315216 0 0 0