LAMMPS data file. CGCMM style. atom_style full generated by VMD/TopoTools v1.8 on Fri Jul 17 15:15:46 EDT 2020
 8640 atoms
 5760 bonds
 2880 angles
 0 dihedrals
 0 impropers
 2 atom types
 1 bond types
 1 angle types
 0 dihedral types
 0 improper types
 -0.031613 43.234352  xlo xhi
 -0.023523 44.939753  ylo yhi
 -0.085255 42.306533  zlo zhi

# Pair Coeffs
#
# 1  1
# 2  2

# Bond Coeffs
#
# 1  1

# Angle Coeffs
#
# 1  1

 Masses

 1 15.999400 # 1
 2 1.007940 # 2

 Atoms # full

1 1 1 -0.847600 19.114532 41.527283 39.283123 # 1 HOH
2 1 2 0.423800 19.455938 40.898922 38.563896 # 2 HOH
3 1 2 0.423800 18.412230 41.986092 38.799770 # 2 HOH
4 2 1 -0.847600 42.019962 27.935516 22.722128 # 1 HOH
5 2 2 0.423800 43.009983 27.798321 22.923611 # 2 HOH
6 2 2 0.423800 41.648724 27.269220 23.374628 # 2 HOH
7 3 1 -0.847600 29.209822 23.794432 31.380781 # 1 HOH
8 3 2 0.423800 29.515671 24.692636 31.075594 # 2 HOH
9 3 2 0.423800 28.137854 24.007244 31.505959 # 2 HOH
10 4 1 -0.847600 0.618863 13.770205 2.694165 # 1 HOH
11 4 2 0.423800 1.375798 14.439305 2.878986 # 2 HOH
12 4 2 0.423800 0.948095 13.128622 2.029423 # 2 HOH
13 5 1 -0.847600 14.743280 24.482777 32.992977 # 1 HOH
14 5 2 0.423800 15.241529 25.378311 33.116154 # 2 HOH
15 5 2 0.423800 13.864448 24.925562 32.672241 # 2 HOH
16 6 1 -0.847600 27.104065 2.223401 35.627563 # 1 HOH
17 6 2 0.423800 27.823406 1.556749 35.981224 # 2 HOH
18 6 2 0.423800 27.192734 3.037616 36.127151 # 2 HOH
19 7 1 -0.847600 26.277695 43.179279 38.183174 # 1 HOH
20 7 2 0.423800 27.007023 43.060741 37.500439 # 2 HOH
21 7 2 0.423800 26.900391 42.895409 39.023724 # 2 HOH
22 8 1 -0.847600 20.546331 39.740471 15.324439 # 1 HOH
23 8 2 0.423800 19.770535 39.133842 15.258509 # 2 HOH
24 8 2 0.423800 21.080954 39.192364 16.048628 # 2 HOH
25 9 1 -0.847600 24.118532 39.531456 8.870233 # 1 HOH
26 9 2 0.423800 24.583443 39.853798 8.058677 # 2 HOH
27 9 2 0.423800 23.593937 38.696453 8.561535 # 2 HOH
28 10 1 -0.847600 23.697014 24.281191 14.487023 # 1 HOH
29 10 2 0.423800 24.523146 24.545593 14.079961 # 2 HOH
30 10 2 0.423800 22.948641 24.860252 14.072359 # 2 HOH
31 11 1 -0.847600 6.434516 26.893492 41.216507 # 1 HOH
32 11 2 0.423800 7.365345 26.802828 40.875969 # 2 HOH
33 11 2 0.423800 6.023432 27.755596 40.860508 # 2 HOH
34 12 1 -0.847600 5.209720 16.452827 2.630224 # 1 HOH
35 12 2 0.423800 5.294712 15.814445 1.899292 # 2 HOH
36 12 2 0.423800 6.139685 16.620186 2.952628 # 2 HOH
37 13 1 -0.847600 31.119379 3.000076 23.538351 # 1 HOH
38 13 2 0.423800 31.148005 2.439188 24.413172 # 2 HOH
39 13 2 0.423800 30.968933 2.338305 22.650715 # 2 HOH
40 14 1 -0.847600 36.490158 31.506737 39.893768 # 1 HOH
41 14 2 0.423800 35.964943 32.109928 39.274364 # 2 HOH
42 14 2 0.423800 36.911797 32.137787 40.510628 # 2 HOH
43 15 1 -0.847600 9.839358 30.016785 17.254658 # 1 HOH
44 15 2 0.423800 10.764986 30.301388 17.667625 # 2 HOH
45 15 2 0.423800 9.276013 30.701603 17.561724 # 2 HOH
46 16 1 -0.847600 27.356987 37.685230 8.642321 # 1 HOH
47 16 2 0.423800 28.220984 37.281284 8.713221 # 2 HOH
48 16 2 0.423800 27.407745 38.455044 9.364444 # 2 HOH
49 17 1 -0.847600 28.015959 18.526447 2.386791 # 1 HOH
50 17 2 0.423800 28.632801 17.849354 2.158322 # 2 HOH
51 17 2 0.423800 28.533548 19.276888 2.031397 # 2 HOH
52 18 1 -0.847600 31.587351 28.690706 25.846287 # 1 HOH
53 18 2 0.423800 31.614309 29.504704 26.391808 # 2 HOH
54 18 2 0.423800 32.091923 28.906519 25.085751 # 2 HOH
55 19 1 -0.847600 32.801250 4.897308 21.671196 # 1 HOH
56 19 2 0.423800 32.988213 5.039510 20.667423 # 2 HOH
57 19 2 0.423800 31.868540 5.075915 21.693871 # 2 HOH
58 20 1 -0.847600 5.473116 17.042013 36.399075 # 1 HOH
59 20 2 0.423800 5.964545 16.253893 36.371822 # 2 HOH
60 20 2 0.423800 5.739239 17.511515 37.191074 # 2 HOH
61 21 1 -0.847600 8.437846 21.978668 28.687958 # 1 HOH
62 21 2 0.423800 7.710090 21.345985 28.301468 # 2 HOH
63 21 2 0.423800 8.173666 22.820778 28.450323 # 2 HOH
64 22 1 -0.847600 42.292797 23.050686 38.677719 # 1 HOH
65 22 2 0.423800 42.299057 24.014723 38.507290 # 2 HOH
66 22 2 0.423800 41.303864 22.847546 38.736225 # 2 HOH
67 23 1 -0.847600 10.774924 25.252993 35.287445 # 1 HOH
68 23 2 0.423800 11.516795 24.600752 35.188778 # 2 HOH
69 23 2 0.423800 10.770439 25.756178 34.374763 # 2 HOH
70 24 1 -0.847600 26.327442 6.653789 37.684452 # 1 HOH
71 24 2 0.423800 26.217192 7.451809 38.338184 # 2 HOH
72 24 2 0.423800 25.348747 6.528867 37.433559 # 2 HOH
73 25 1 -0.847600 15.597118 29.728689 32.191406 # 1 HOH
74 25 2 0.423800 15.456100 30.319048 31.381458 # 2 HOH
75 25 2 0.423800 16.607981 29.693363 32.149998 # 2 HOH
76 26 1 -0.847600 28.004911 23.197069 36.082024 # 1 HOH
77 26 2 0.423800 28.093021 23.235731 37.063168 # 2 HOH
78 26 2 0.423800 27.390030 23.938765 35.694019 # 2 HOH
79 27 1 -0.847600 13.410105 17.298082 41.452614 # 1 HOH
80 27 2 0.423800 12.712190 17.223497 42.220726 # 2 HOH
81 27 2 0.423800 13.951891 17.999302 41.742428 # 2 HOH
82 28 1 -0.847600 16.807261 7.395789 6.324262 # 1 HOH
83 28 2 0.423800 16.924004 6.356702 6.317758 # 2 HOH
84 28 2 0.423800 16.859062 7.596479 5.370432 # 2 HOH
85 29 1 -0.847600 21.828064 17.659800 41.785034 # 1 HOH
86 29 2 0.423800 22.526756 18.095156 41.113041 # 2 HOH
87 29 2 0.423800 21.039528 17.776539 41.189533 # 2 HOH
88 30 1 -0.847600 30.752449 18.280638 34.571884 # 1 HOH
89 30 2 0.423800 30.076820 17.544207 34.224773 # 2 HOH
90 30 2 0.423800 30.271437 18.674471 35.315620 # 2 HOH
91 31 1 -0.847600 27.490492 27.777979 30.298265 # 1 HOH
92 31 2 0.423800 27.054632 26.918764 30.191483 # 2 HOH
93 31 2 0.423800 26.635206 28.300348 30.243708 # 2 HOH
94 32 1 -0.847600 15.969090 28.978468 19.832230 # 1 HOH
95 32 2 0.423800 16.420383 28.998102 18.944866 # 2 HOH
96 32 2 0.423800 15.735588 28.004126 19.945288 # 2 HOH
97 33 1 -0.847600 36.102276 5.970028 39.954590 # 1 HOH
98 33 2 0.423800 36.183792 6.146680 38.960354 # 2 HOH
99 33 2 0.423800 36.047398 6.902387 40.312447 # 2 HOH
100 34 1 -0.847600 5.720575 38.827808 18.337057 # 1 HOH
101 34 2 0.423800 5.496545 38.715366 17.336103 # 2 HOH
102 34 2 0.423800 4.867625 38.620537 18.755863 # 2 HOH
103 35 1 -0.847600 16.415916 0.942274 19.155546 # 1 HOH
104 35 2 0.423800 16.814280 1.468297 18.295122 # 2 HOH
105 35 2 0.423800 15.827601 0.136895 18.841795 # 2 HOH
106 36 1 -0.847600 16.784670 26.921188 41.750526 # 1 HOH
107 36 2 0.423800 16.641277 27.871168 41.661259 # 2 HOH
108 36 2 0.423800 16.965691 26.459200 40.843758 # 2 HOH
109 37 1 -0.847600 7.966722 8.071460 30.007263 # 1 HOH
110 37 2 0.423800 7.110695 8.565837 29.752550 # 2 HOH
111 37 2 0.423800 8.543705 8.672572 30.522469 # 2 HOH
112 38 1 -0.847600 16.552273 17.266315 28.568810 # 1 HOH
113 38 2 0.423800 16.965118 16.346117 28.764605 # 2 HOH
114 38 2 0.423800 15.982608 17.410391 29.402237 # 2 HOH
115 39 1 -0.847600 16.668501 14.076698 40.853165 # 1 HOH
116 39 2 0.423800 16.580378 14.875076 41.538376 # 2 HOH
117 39 2 0.423800 16.071371 13.380177 41.178120 # 2 HOH
118 40 1 -0.847600 25.409735 30.956335 7.948528 # 1 HOH
119 40 2 0.423800 24.694834 31.121700 8.670961 # 2 HOH
120 40 2 0.423800 24.766417 30.644247 7.217937 # 2 HOH
121 41 1 -0.847600 33.483925 40.213432 1.241484 # 1 HOH
122 41 2 0.423800 32.884480 40.456158 2.039517 # 2 HOH
123 41 2 0.423800 33.505959 39.245766 1.237997 # 2 HOH
124 42 1 -0.847600 28.653292 12.820278 38.246689 # 1 HOH
125 42 2 0.423800 27.854353 13.028158 37.712276 # 2 HOH
126 42 2 0.423800 28.518747 11.777069 38.163952 # 2 HOH
127 43 1 -0.847600 10.046570 11.539218 41.711433 # 1 HOH
128 43 2 0.423800 10.782263 11.222692 40.984573 # 2 HOH
129 43 2 0.423800 10.416240 12.400233 42.094730 # 2 HOH
130 44 1 -0.847600 35.653751 25.883167 27.344843 # 1 HOH
131 44 2 0.423800 35.123722 26.487453 27.900007 # 2 HOH
132 44 2 0.423800 35.055878 25.228197 26.930866 # 2 HOH
133 45 1 -0.847600 -0.548247 15.204939 20.602112 # 1 HOH
134 45 2 0.423800 0.323838 15.711431 20.807741 # 2 HOH
135 45 2 0.423800 -0.553102 14.417007 21.198502 # 2 HOH
136 46 1 -0.847600 32.618694 8.977626 27.195173 # 1 HOH
137 46 2 0.423800 33.344040 9.497709 27.104689 # 2 HOH
138 46 2 0.423800 33.034492 8.081854 27.480732 # 2 HOH
139 47 1 -0.847600 2.611305 4.439379 3.290702 # 1 HOH
140 47 2 0.423800 3.135420 3.581938 3.195860 # 2 HOH
141 47 2 0.423800 1.784424 4.274089 3.678375 # 2 HOH
142 48 1 -0.847600 18.801195 30.411972 20.034040 # 1 HOH
143 48 2 0.423800 18.131937 30.234169 19.178913 # 2 HOH
144 48 2 0.423800 19.483994 31.132986 19.597160 # 2 HOH
145 49 1 -0.847600 31.952280 23.901278 3.323379 # 1 HOH
146 49 2 0.423800 31.768040 23.063421 2.868690 # 2 HOH
147 49 2 0.423800 32.410271 23.642912 4.189703 # 2 HOH
148 50 1 -0.847600 1.135034 27.459888 11.975813 # 1 HOH
149 50 2 0.423800 1.388250 28.259022 12.427155 # 2 HOH
150 50 2 0.423800 0.919216 26.731207 12.706549 # 2 HOH
151 51 1 -0.847600 5.357448 38.951004 15.564229 # 1 HOH
152 51 2 0.423800 6.222912 39.269409 15.377371 # 2 HOH
153 51 2 0.423800 4.630365 39.589779 15.281461 # 2 HOH
154 52 1 -0.847600 20.667622 28.615499 21.523487 # 1 HOH
155 52 2 0.423800 19.938616 29.140158 21.185793 # 2 HOH
156 52 2 0.423800 20.290371 27.654177 21.600391 # 2 HOH
157 53 1 -0.847600 41.121124 12.177470 31.238049 # 1 HOH
158 53 2 0.423800 40.461597 11.960847 30.422396 # 2 HOH
159 53 2 0.423800 40.901588 13.168847 31.469191 # 2 HOH
160 54 1 -0.847600 11.848022 35.862789 38.042553 # 1 HOH
161 54 2 0.423800 12.726222 36.316505 38.059391 # 2 HOH
162 54 2 0.423800 11.731122 35.524868 37.120441 # 2 HOH
163 55 1 -0.847600 21.009689 38.187489 11.798415 # 1 HOH
164 55 2 0.423800 21.028559 37.468212 11.029218 # 2 HOH
165 55 2 0.423800 20.002411 38.351650 12.065497 # 2 HOH
166 56 1 -0.847600 5.966248 11.922209 14.325064 # 1 HOH
167 56 2 0.423800 6.254121 11.065176 13.825796 # 2 HOH
168 56 2 0.423800 5.226942 12.256375 13.662217 # 2 HOH
169 57 1 -0.847600 26.735113 40.277683 33.996120 # 1 HOH
170 57 2 0.423800 27.385752 39.537003 34.129864 # 2 HOH
171 57 2 0.423800 26.542152 40.631844 34.913628 # 2 HOH
172 58 1 -0.847600 5.508463 28.290442 1.616997 # 1 HOH
173 58 2 0.423800 5.578849 27.325367 1.983962 # 2 HOH
174 58 2 0.423800 5.584611 28.827660 2.480973 # 2 HOH
175 59 1 -0.847600 20.609058 27.486383 32.927277 # 1 HOH
176 59 2 0.423800 21.514978 27.406435 33.414799 # 2 HOH
177 59 2 0.423800 20.575239 26.573582 32.514069 # 2 HOH
178 60 1 -0.847600 21.440531 15.156927 17.169605 # 1 HOH
179 60 2 0.423800 21.923616 14.529002 17.738642 # 2 HOH
180 60 2 0.423800 22.160778 15.846369 16.942883 # 2 HOH
181 61 1 -0.847600 31.724079 14.923033 30.981596 # 1 HOH
182 61 2 0.423800 32.130371 15.631282 31.523598 # 2 HOH
183 61 2 0.423800 31.096504 14.359145 31.631834 # 2 HOH
184 62 1 -0.847600 1.149236 3.810007 36.699516 # 1 HOH
185 62 2 0.423800 1.653837 3.052835 37.238140 # 2 HOH
186 62 2 0.423800 0.171990 3.445978 36.667774 # 2 HOH
187 63 1 -0.847600 28.730028 23.321398 38.803452 # 1 HOH
188 63 2 0.423800 29.135321 24.243956 38.891674 # 2 HOH
189 63 2 0.423800 28.924334 22.839890 39.589611 # 2 HOH
190 64 1 -0.847600 18.934244 9.560071 0.725217 # 1 HOH
191 64 2 0.423800 18.943293 10.278687 1.379912 # 2 HOH
192 64 2 0.423800 19.419058 8.912718 1.263571 # 2 HOH
193 65 1 -0.847600 18.558552 41.173088 18.048664 # 1 HOH
194 65 2 0.423800 18.226416 41.459724 18.925838 # 2 HOH
195 65 2 0.423800 18.070082 41.859684 17.474464 # 2 HOH
196 66 1 -0.847600 29.434381 26.444155 12.521578 # 1 HOH
197 66 2 0.423800 29.908020 27.288956 12.770505 # 2 HOH
198 66 2 0.423800 30.010654 25.879356 11.982236 # 2 HOH
199 67 1 -0.847600 11.263639 32.304020 3.120730 # 1 HOH
200 67 2 0.423800 11.316545 31.621315 2.342325 # 2 HOH
201 67 2 0.423800 10.318073 32.214420 3.469967 # 2 HOH
202 68 1 -0.847600 21.800474 37.009815 22.470142 # 1 HOH
203 68 2 0.423800 21.311390 37.820068 22.004080 # 2 HOH
204 68 2 0.423800 21.110521 36.602451 23.093925 # 2 HOH
205 69 1 -0.847600 39.329460 11.976755 29.065363 # 1 HOH
206 69 2 0.423800 38.808090 12.703086 28.694263 # 2 HOH
207 69 2 0.423800 38.551380 11.451590 29.576635 # 2 HOH
208 70 1 -0.847600 22.176832 19.266085 22.583202 # 1 HOH
209 70 2 0.423800 22.541790 19.864946 23.289928 # 2 HOH
210 70 2 0.423800 22.614994 19.628500 21.706100 # 2 HOH
211 71 1 -0.847600 42.280354 3.864535 14.834166 # 1 HOH
212 71 2 0.423800 42.211906 3.026664 15.247860 # 2 HOH
213 71 2 0.423800 42.983330 3.651817 14.139674 # 2 HOH
214 72 1 -0.847600 20.156996 26.901205 41.182774 # 1 HOH
215 72 2 0.423800 20.828714 27.580965 40.811382 # 2 HOH
216 72 2 0.423800 19.803358 27.394854 42.060463 # 2 HOH
217 73 1 -0.847600 39.334938 28.118788 33.800438 # 1 HOH
218 73 2 0.423800 39.416519 29.121283 33.892349 # 2 HOH
219 73 2 0.423800 40.242188 27.888824 33.635292 # 2 HOH
220 74 1 -0.847600 20.477568 4.669281 6.816263 # 1 HOH
221 74 2 0.423800 19.977669 4.496701 5.959905 # 2 HOH
222 74 2 0.423800 19.847322 4.726154 7.512114 # 2 HOH
223 75 1 -0.847600 29.116110 8.494485 2.162089 # 1 HOH
224 75 2 0.423800 29.164970 7.518121 2.161613 # 2 HOH
225 75 2 0.423800 30.024920 8.920270 1.785953 # 2 HOH
226 76 1 -0.847600 13.441463 39.717026 11.057286 # 1 HOH
227 76 2 0.423800 13.025355 39.040958 10.448171 # 2 HOH
228 76 2 0.423800 13.931234 40.373104 10.444554 # 2 HOH
229 77 1 -0.847600 15.828539 15.838072 38.981186 # 1 HOH
230 77 2 0.423800 16.315754 15.000303 39.380882 # 2 HOH
231 77 2 0.423800 16.534697 16.449877 38.681232 # 2 HOH
232 78 1 -0.847600 16.844347 41.365280 34.175873 # 1 HOH
233 78 2 0.423800 16.331186 42.164768 33.793610 # 2 HOH
234 78 2 0.423800 16.816893 40.752655 33.382660 # 2 HOH
235 79 1 -0.847600 11.116525 3.494110 37.871288 # 1 HOH
236 79 2 0.423800 11.830621 2.755606 38.003899 # 2 HOH
237 79 2 0.423800 10.931121 3.458101 36.871857 # 2 HOH
238 80 1 -0.847600 41.597549 24.258427 20.676508 # 1 HOH
239 80 2 0.423800 41.289959 24.153070 19.723438 # 2 HOH
240 80 2 0.423800 41.272095 23.459894 21.215012 # 2 HOH
241 81 1 -0.847600 34.794640 44.775414 6.424398 # 1 HOH
242 81 2 0.423800 35.599426 44.166687 6.702456 # 2 HOH
243 81 2 0.423800 34.063557 44.191303 6.692409 # 2 HOH
244 82 1 -0.847600 15.429429 30.551096 22.506077 # 1 HOH
245 82 2 0.423800 15.693251 29.645905 22.062181 # 2 HOH
246 82 2 0.423800 15.763194 30.469845 23.444736 # 2 HOH
247 83 1 -0.847600 34.791245 30.889296 5.156526 # 1 HOH
248 83 2 0.423800 35.433895 31.345890 5.799815 # 2 HOH
249 83 2 0.423800 34.427021 30.046255 5.628234 # 2 HOH
250 84 1 -0.847600 26.543306 30.580400 4.605048 # 1 HOH
251 84 2 0.423800 26.598444 29.861851 3.999649 # 2 HOH
252 84 2 0.423800 25.583916 30.896490 4.497307 # 2 HOH
253 85 1 -0.847600 20.177525 2.517516 19.223232 # 1 HOH
254 85 2 0.423800 21.182302 2.298233 19.315336 # 2 HOH
255 85 2 0.423800 20.081591 2.993973 18.316135 # 2 HOH
256 86 1 -0.847600 29.622986 34.373795 10.702138 # 1 HOH
257 86 2 0.423800 28.942268 33.939827 10.250747 # 2 HOH
258 86 2 0.423800 29.911583 35.124729 9.961027 # 2 HOH
259 87 1 -0.847600 10.342024 42.484207 17.187094 # 1 HOH
260 87 2 0.423800 10.652626 41.588848 17.508198 # 2 HOH
261 87 2 0.423800 9.768126 42.757275 17.884497 # 2 HOH
262 88 1 -0.847600 40.906048 44.048847 28.452866 # 1 HOH
263 88 2 0.423800 41.385147 43.679665 29.310118 # 2 HOH
264 88 2 0.423800 40.900661 43.357433 27.756210 # 2 HOH
265 89 1 -0.847600 31.640003 36.885368 3.553436 # 1 HOH
266 89 2 0.423800 31.889996 36.131687 4.054080 # 2 HOH
267 89 2 0.423800 31.588446 37.712097 4.280457 # 2 HOH
268 90 1 -0.847600 6.407402 33.791821 18.807016 # 1 HOH
269 90 2 0.423800 6.818549 33.437057 19.614544 # 2 HOH
270 90 2 0.423800 5.947599 33.163944 18.220608 # 2 HOH
271 91 1 -0.847600 34.212425 30.400927 31.443689 # 1 HOH
272 91 2 0.423800 34.933853 29.779369 31.237585 # 2 HOH
273 91 2 0.423800 33.553867 29.716551 31.869047 # 2 HOH
274 92 1 -0.847600 21.452299 19.173872 30.952581 # 1 HOH
275 92 2 0.423800 22.238682 19.728106 30.796888 # 2 HOH
276 92 2 0.423800 21.586681 18.561541 30.214306 # 2 HOH
277 93 1 -0.847600 32.013393 18.856598 19.234314 # 1 HOH
278 93 2 0.423800 32.769722 19.387442 19.208731 # 2 HOH
279 93 2 0.423800 31.803795 18.714939 18.281250 # 2 HOH
280 94 1 -0.847600 6.038808 17.935822 32.145054 # 1 HOH
281 94 2 0.423800 5.525455 17.064749 32.116657 # 2 HOH
282 94 2 0.423800 5.358363 18.722912 32.282364 # 2 HOH
283 95 1 -0.847600 20.163996 35.066086 41.341801 # 1 HOH
284 95 2 0.423800 21.105658 34.519073 41.386780 # 2 HOH
285 95 2 0.423800 20.346016 35.819942 40.664970 # 2 HOH
286 96 1 -0.847600 28.244854 9.993969 37.496502 # 1 HOH
287 96 2 0.423800 28.272690 10.146749 36.521370 # 2 HOH
288 96 2 0.423800 28.907412 9.278765 37.581879 # 2 HOH
289 97 1 -0.847600 5.763374 36.168503 15.773867 # 1 HOH
290 97 2 0.423800 5.140004 35.532761 16.285149 # 2 HOH
291 97 2 0.423800 5.454902 37.057430 15.634244 # 2 HOH
292 98 1 -0.847600 37.194920 24.635902 24.820835 # 1 HOH
293 98 2 0.423800 36.657619 25.466791 24.559444 # 2 HOH
294 98 2 0.423800 37.988384 24.658039 24.257280 # 2 HOH
295 99 1 -0.847600 2.439025 7.288449 16.894455 # 1 HOH
296 99 2 0.423800 2.358008 8.276717 17.083002 # 2 HOH
297 99 2 0.423800 1.599154 6.805129 17.087191 # 2 HOH
298 100 1 -0.847600 1.579055 12.821956 32.341496 # 1 HOH
299 100 2 0.423800 1.857099 13.174990 31.457663 # 2 HOH
300 100 2 0.423800 1.226959 11.887529 32.017918 # 2 HOH
301 101 1 -0.847600 10.115497 29.705357 5.394606 # 1 HOH
302 101 2 0.423800 10.945769 29.562677 5.763708 # 2 HOH
303 101 2 0.423800 10.113437 30.618010 4.954411 # 2 HOH
304 102 1 -0.847600 12.596597 10.142738 33.383183 # 1 HOH
305 102 2 0.423800 12.025639 10.811570 33.808537 # 2 HOH
306 102 2 0.423800 12.710472 10.354971 32.438110 # 2 HOH
307 103 1 -0.847600 38.734188 15.623211 4.441204 # 1 HOH
308 103 2 0.423800 38.150597 14.797568 4.235572 # 2 HOH
309 103 2 0.423800 38.535263 15.786056 5.443413 # 2 HOH
310 104 1 -0.847600 12.960572 2.521486 30.415953 # 1 HOH
311 104 2 0.423800 12.490244 2.353202 31.336891 # 2 HOH
312 104 2 0.423800 13.851785 2.182249 30.474270 # 2 HOH
313 105 1 -0.847600 8.429859 30.633755 36.029907 # 1 HOH
314 105 2 0.423800 8.407792 31.430285 35.395275 # 2 HOH
315 105 2 0.423800 7.709400 29.926268 35.801167 # 2 HOH
316 106 1 -0.847600 33.296936 36.889683 32.451366 # 1 HOH
317 106 2 0.423800 33.975227 36.783108 33.204483 # 2 HOH
318 106 2 0.423800 33.226437 36.004280 32.119366 # 2 HOH
319 107 1 -0.847600 38.723251 42.858784 22.133497 # 1 HOH
320 107 2 0.423800 38.785225 43.840931 22.287350 # 2 HOH
321 107 2 0.423800 39.285320 42.516060 22.931444 # 2 HOH
322 108 1 -0.847600 15.365071 26.216852 19.752441 # 1 HOH
323 108 2 0.423800 15.930799 25.474224 20.043520 # 2 HOH
324 108 2 0.423800 14.572714 25.721081 19.223175 # 2 HOH
325 109 1 -0.847600 3.602301 1.434459 9.799889 # 1 HOH
326 109 2 0.423800 4.419480 1.279305 9.249063 # 2 HOH
327 109 2 0.423800 3.859449 2.035885 10.551698 # 2 HOH
328 110 1 -0.847600 18.908916 42.039162 14.378214 # 1 HOH
329 110 2 0.423800 18.310555 42.385941 15.065434 # 2 HOH
330 110 2 0.423800 19.135822 41.107319 14.637974 # 2 HOH
331 111 1 -0.847600 4.347455 35.706860 37.517982 # 1 HOH
332 111 2 0.423800 4.888671 36.308674 36.829956 # 2 HOH
333 111 2 0.423800 3.351423 35.578495 37.092617 # 2 HOH
334 112 1 -0.847600 22.373125 11.545109 8.828434 # 1 HOH
335 112 2 0.423800 22.753870 10.959077 9.546064 # 2 HOH
336 112 2 0.423800 22.493368 10.933389 8.018517 # 2 HOH
337 113 1 -0.847600 41.026726 2.877484 2.798272 # 1 HOH
338 113 2 0.423800 41.432308 3.481871 2.139751 # 2 HOH
339 113 2 0.423800 40.175781 2.563466 2.374233 # 2 HOH
340 114 1 -0.847600 29.858232 40.858280 1.611038 # 1 HOH
341 114 2 0.423800 29.499134 40.042648 1.219472 # 2 HOH
342 114 2 0.423800 30.305811 41.206562 0.775506 # 2 HOH
343 115 1 -0.847600 36.338326 5.319950 10.028456 # 1 HOH
344 115 2 0.423800 36.475063 4.757140 10.834549 # 2 HOH
345 115 2 0.423800 36.828899 4.786736 9.362170 # 2 HOH
346 116 1 -0.847600 31.436232 13.568652 38.075081 # 1 HOH
347 116 2 0.423800 30.551216 13.171041 37.997364 # 2 HOH
348 116 2 0.423800 31.511494 13.731726 39.084297 # 2 HOH
349 117 1 -0.847600 8.258945 2.778619 13.069117 # 1 HOH
350 117 2 0.423800 8.522086 1.896205 12.779465 # 2 HOH
351 117 2 0.423800 8.032570 3.320496 12.255549 # 2 HOH
352 118 1 -0.847600 31.890425 24.355993 15.246720 # 1 HOH
353 118 2 0.423800 31.959831 23.709751 16.064753 # 2 HOH
354 118 2 0.423800 31.891287 23.801600 14.398400 # 2 HOH
355 119 1 -0.847600 11.215718 9.495967 2.386472 # 1 HOH
356 119 2 0.423800 12.022473 9.743802 2.908615 # 2 HOH
357 119 2 0.423800 10.446377 9.913689 2.901115 # 2 HOH
358 120 1 -0.847600 40.931290 14.157115 33.182690 # 1 HOH
359 120 2 0.423800 41.115894 13.420421 33.887306 # 2 HOH
360 120 2 0.423800 41.603874 14.830050 33.396996 # 2 HOH
361 121 1 -0.847600 11.749092 7.162755 25.490347 # 1 HOH
362 121 2 0.423800 12.720798 7.368538 25.797031 # 2 HOH
363 121 2 0.423800 11.773787 6.674043 24.673950 # 2 HOH
364 122 1 -0.847600 8.329363 38.998234 15.898308 # 1 HOH
365 122 2 0.423800 9.296144 39.285000 15.958874 # 2 HOH
366 122 2 0.423800 8.398667 38.092861 15.558126 # 2 HOH
367 123 1 -0.847600 22.172462 40.706848 35.451431 # 1 HOH
368 123 2 0.423800 21.977842 41.759914 35.674194 # 2 HOH
369 123 2 0.423800 23.178894 40.607918 35.636909 # 2 HOH
370 124 1 -0.847600 29.797634 0.758842 15.276471 # 1 HOH
371 124 2 0.423800 30.411030 0.417337 14.593693 # 2 HOH
372 124 2 0.423800 29.458246 -0.018381 15.703762 # 2 HOH
373 125 1 -0.847600 35.536751 8.453000 32.454750 # 1 HOH
374 125 2 0.423800 34.570660 8.222540 32.267406 # 2 HOH
375 125 2 0.423800 35.912720 7.851268 31.761545 # 2 HOH
376 126 1 -0.847600 38.577892 2.722229 20.575012 # 1 HOH
377 126 2 0.423800 39.325027 2.495992 20.926876 # 2 HOH
378 126 2 0.423800 38.337067 3.681256 20.988388 # 2 HOH
379 127 1 -0.847600 17.943876 29.921930 34.937225 # 1 HOH
380 127 2 0.423800 17.853664 28.928829 35.106735 # 2 HOH
381 127 2 0.423800 17.829559 30.379972 35.872536 # 2 HOH
382 128 1 -0.847600 0.939255 17.681828 30.259712 # 1 HOH
383 128 2 0.423800 1.245880 17.433119 31.212414 # 2 HOH
384 128 2 0.423800 1.380331 17.011383 29.602869 # 2 HOH
385 129 1 -0.847600 15.137974 10.249152 1.092545 # 1 HOH
386 129 2 0.423800 15.367375 11.000154 1.592346 # 2 HOH
387 129 2 0.423800 14.255471 10.402357 0.795834 # 2 HOH
388 130 1 -0.847600 23.348001 0.281552 22.464499 # 1 HOH
389 130 2 0.423800 22.411266 0.078814 22.324299 # 2 HOH
390 130 2 0.423800 23.396267 0.996346 23.260914 # 2 HOH
391 131 1 -0.847600 17.321110 20.723326 29.333315 # 1 HOH
392 131 2 0.423800 17.851606 20.160799 29.944807 # 2 HOH
393 131 2 0.423800 16.281740 20.575804 29.553804 # 2 HOH
394 132 1 -0.847600 28.616383 35.829750 35.785648 # 1 HOH
395 132 2 0.423800 29.140293 35.774113 35.031311 # 2 HOH
396 132 2 0.423800 28.480530 34.929157 36.229080 # 2 HOH
397 133 1 -0.847600 24.749561 35.123177 42.285751 # 1 HOH
398 133 2 0.423800 24.694075 35.943287 41.628727 # 2 HOH
399 133 2 0.423800 25.565889 34.661221 42.116447 # 2 HOH
400 134 1 -0.847600 36.200993 14.755971 17.201187 # 1 HOH
401 134 2 0.423800 35.821373 14.620228 16.277582 # 2 HOH
402 134 2 0.423800 37.071655 14.965211 17.027666 # 2 HOH
403 135 1 -0.847600 29.660780 21.212088 24.601809 # 1 HOH
404 135 2 0.423800 29.367867 20.244753 24.885418 # 2 HOH
405 135 2 0.423800 29.210100 21.828657 25.309032 # 2 HOH
406 136 1 -0.847600 7.196249 19.639906 10.998402 # 1 HOH
407 136 2 0.423800 7.570899 18.879299 11.447495 # 2 HOH
408 136 2 0.423800 6.332215 19.850760 11.502133 # 2 HOH
409 137 1 -0.847600 18.937286 24.193771 5.296522 # 1 HOH
410 137 2 0.423800 19.198721 23.323706 5.731624 # 2 HOH
411 137 2 0.423800 18.305237 23.867050 4.500384 # 2 HOH
412 138 1 -0.847600 13.574206 17.187679 13.546146 # 1 HOH
413 138 2 0.423800 14.310184 16.670849 14.128127 # 2 HOH
414 138 2 0.423800 13.038297 17.729813 14.289101 # 2 HOH
415 139 1 -0.847600 22.140789 31.088169 39.972603 # 1 HOH
416 139 2 0.423800 21.960117 30.509235 40.819458 # 2 HOH
417 139 2 0.423800 22.624056 30.459391 39.365997 # 2 HOH
418 140 1 -0.847600 7.854617 0.845793 0.881946 # 1 HOH
419 140 2 0.423800 7.066267 0.218004 0.455265 # 2 HOH
420 140 2 0.423800 8.671465 0.232326 0.884641 # 2 HOH
421 141 1 -0.847600 43.467300 18.358995 15.107487 # 1 HOH
422 141 2 0.423800 42.823360 18.222694 15.895147 # 2 HOH
423 141 2 0.423800 44.258255 17.707809 15.275771 # 2 HOH
424 142 1 -0.847600 25.203115 20.304995 4.041073 # 1 HOH
425 142 2 0.423800 24.660715 20.516514 3.265715 # 2 HOH
426 142 2 0.423800 24.919699 19.347563 4.243283 # 2 HOH
427 143 1 -0.847600 8.978946 22.363438 20.703285 # 1 HOH
428 143 2 0.423800 8.944152 22.818018 19.728865 # 2 HOH
429 143 2 0.423800 9.340469 21.453154 20.639166 # 2 HOH
430 144 1 -0.847600 19.458637 36.044193 23.457596 # 1 HOH
431 144 2 0.423800 18.862566 35.358593 23.182968 # 2 HOH
432 144 2 0.423800 19.560467 35.613667 24.391380 # 2 HOH
433 145 1 -0.847600 38.579552 28.412355 7.420057 # 1 HOH
434 145 2 0.423800 37.890877 28.968338 8.027102 # 2 HOH
435 145 2 0.423800 39.002228 27.855856 8.128367 # 2 HOH
436 146 1 -0.847600 7.079987 25.386477 38.770103 # 1 HOH
437 146 2 0.423800 8.018229 25.859911 39.084911 # 2 HOH
438 146 2 0.423800 7.259980 24.441238 38.710400 # 2 HOH
439 147 1 -0.847600 26.908495 3.726860 1.799885 # 1 HOH
440 147 2 0.423800 26.774286 2.746995 2.042992 # 2 HOH
441 147 2 0.423800 26.840841 4.231597 2.580089 # 2 HOH
442 148 1 -0.847600 15.919904 7.548346 37.650677 # 1 HOH
443 148 2 0.423800 15.026273 7.646328 37.911316 # 2 HOH
444 148 2 0.423800 16.011084 6.600311 37.417088 # 2 HOH
445 149 1 -0.847600 29.921600 25.741127 5.571230 # 1 HOH
446 149 2 0.423800 29.659452 25.844233 6.481451 # 2 HOH
447 149 2 0.423800 29.252457 26.225653 5.145398 # 2 HOH
448 150 1 -0.847600 17.958139 39.050896 15.779331 # 1 HOH
449 150 2 0.423800 17.778006 38.108135 16.079231 # 2 HOH
450 150 2 0.423800 17.992634 39.554543 16.639935 # 2 HOH
451 151 1 -0.847600 36.993965 1.351354 22.938824 # 1 HOH
452 151 2 0.423800 36.701870 1.821704 22.078411 # 2 HOH
453 151 2 0.423800 36.216431 1.586713 23.594948 # 2 HOH
454 152 1 -0.847600 28.281796 18.298700 14.349728 # 1 HOH
455 152 2 0.423800 29.184826 18.639967 13.890254 # 2 HOH
456 152 2 0.423800 28.088093 17.403868 13.894625 # 2 HOH
457 153 1 -0.847600 34.466759 23.314512 4.314411 # 1 HOH
458 153 2 0.423800 35.281197 23.938625 3.991261 # 2 HOH
459 153 2 0.423800 34.615868 22.372412 3.993580 # 2 HOH
460 154 1 -0.847600 8.090372 33.429470 7.685295 # 1 HOH
461 154 2 0.423800 7.539731 34.220341 7.350996 # 2 HOH
462 154 2 0.423800 7.632710 32.646381 7.227554 # 2 HOH
463 155 1 -0.847600 29.065859 15.224756 12.003602 # 1 HOH
464 155 2 0.423800 29.470291 15.773654 11.243046 # 2 HOH
465 155 2 0.423800 29.718887 14.462002 12.089466 # 2 HOH
466 156 1 -0.847600 34.359772 43.022846 9.836211 # 1 HOH
467 156 2 0.423800 34.936943 42.986965 10.692319 # 2 HOH
468 156 2 0.423800 34.416733 42.140831 9.435148 # 2 HOH
469 157 1 -0.847600 12.414637 36.223282 -0.243399 # 1 HOH
470 157 2 0.423800 12.892274 36.932011 -0.778888 # 2 HOH
471 157 2 0.423800 11.756246 36.867222 0.271588 # 2 HOH
472 158 1 -0.847600 30.008665 12.561973 16.649376 # 1 HOH
473 158 2 0.423800 29.289858 13.199651 16.169390 # 2 HOH
474 158 2 0.423800 29.458107 11.739431 16.601086 # 2 HOH
475 159 1 -0.847600 35.298454 14.864995 29.631615 # 1 HOH
476 159 2 0.423800 35.058323 14.545375 28.727978 # 2 HOH
477 159 2 0.423800 35.150810 14.059500 30.219994 # 2 HOH
478 160 1 -0.847600 36.883389 17.543301 15.806606 # 1 HOH
479 160 2 0.423800 37.541897 17.882368 15.135942 # 2 HOH
480 160 2 0.423800 37.020809 16.581190 15.637719 # 2 HOH
481 161 1 -0.847600 42.622700 19.405596 0.138008 # 1 HOH
482 161 2 0.423800 41.745495 18.896259 0.099751 # 2 HOH
483 161 2 0.423800 42.511314 20.169241 -0.461330 # 2 HOH
484 162 1 -0.847600 6.035340 10.307486 25.487720 # 1 HOH
485 162 2 0.423800 5.232765 9.830946 25.903687 # 2 HOH
486 162 2 0.423800 5.973551 11.264205 25.855164 # 2 HOH
487 163 1 -0.847600 37.439278 4.387927 29.742941 # 1 HOH
488 163 2 0.423800 37.730968 4.082646 28.769964 # 2 HOH
489 163 2 0.423800 38.237206 3.965438 30.239168 # 2 HOH
490 164 1 -0.847600 42.054695 35.637390 13.286859 # 1 HOH
491 164 2 0.423800 42.507462 36.089016 14.001572 # 2 HOH
492 164 2 0.423800 42.448658 36.044617 12.389736 # 2 HOH
493 165 1 -0.847600 40.857338 30.005278 6.393475 # 1 HOH
494 165 2 0.423800 41.307167 29.646837 7.202075 # 2 HOH
495 165 2 0.423800 40.140026 30.602966 6.671321 # 2 HOH
496 166 1 -0.847600 23.183819 14.822323 7.599269 # 1 HOH
497 166 2 0.423800 22.496908 14.295855 8.167264 # 2 HOH
498 166 2 0.423800 23.389746 15.701707 7.987698 # 2 HOH
499 167 1 -0.847600 2.269901 11.985176 1.586535 # 1 HOH
500 167 2 0.423800 1.861616 12.183292 0.741146 # 2 HOH
501 167 2 0.423800 3.253698 12.224620 1.513406 # 2 HOH
502 168 1 -0.847600 9.540971 43.676006 5.843997 # 1 HOH
503 168 2 0.423800 9.439894 44.582020 6.194085 # 2 HOH
504 168 2 0.423800 9.622688 43.874817 4.918426 # 2 HOH
505 169 1 -0.847600 35.085972 8.595784 40.367973 # 1 HOH
506 169 2 0.423800 35.514454 9.444643 39.672184 # 2 HOH
507 169 2 0.423800 35.238983 8.981905 41.264450 # 2 HOH
508 170 1 -0.847600 28.360388 23.767351 24.060463 # 1 HOH
509 170 2 0.423800 28.502754 22.801003 23.787104 # 2 HOH
510 170 2 0.423800 27.330534 23.802139 24.104813 # 2 HOH
511 171 1 -0.847600 16.341616 38.173294 5.448533 # 1 HOH
512 171 2 0.423800 16.403093 38.693211 4.657805 # 2 HOH
513 171 2 0.423800 15.957778 37.403290 5.053288 # 2 HOH
514 172 1 -0.847600 39.960983 9.714622 1.960361 # 1 HOH
515 172 2 0.423800 39.276913 9.044076 2.154618 # 2 HOH
516 172 2 0.423800 39.734310 10.149756 1.032808 # 2 HOH
517 173 1 -0.847600 27.961176 25.322693 21.315531 # 1 HOH
518 173 2 0.423800 27.089483 24.995283 21.458088 # 2 HOH
519 173 2 0.423800 28.335714 25.528248 22.142090 # 2 HOH
520 174 1 -0.847600 4.286914 2.815549 31.384312 # 1 HOH
521 174 2 0.423800 3.772201 3.667238 31.204790 # 2 HOH
522 174 2 0.423800 4.532142 2.951286 32.412308 # 2 HOH
523 175 1 -0.847600 26.717609 16.252001 31.730103 # 1 HOH
524 175 2 0.423800 27.179005 16.518068 30.861845 # 2 HOH
525 175 2 0.423800 26.519127 17.153227 32.073441 # 2 HOH
526 176 1 -0.847600 3.346003 17.493147 26.612953 # 1 HOH
527 176 2 0.423800 3.376467 17.340572 25.583374 # 2 HOH
528 176 2 0.423800 2.899706 18.353115 26.729177 # 2 HOH