LAMMPS Description
  
        4000  atoms
        3900  bonds
        3800  angles
      0  dihedrals
      0  impropers
  
      2  atom types
      1  bond types
      1 angle types
  
  -8.21157000000000        8.21157000000000        xlo xhi
  -8.21157000000000        8.21157000000000        ylo yhi
  -8.21157000000000        8.21157000000000        zlo zhi
  
Masses
  
  1  1.0
  2  1.0
  
Bond Coeffs
  
 1  30.0  1.5  1.0  1.0
  
Atoms
  
       1      1  1   -2.9103   -2.6338   -5.5800  0  0  0
       2      1  1   -3.3673   -2.5540   -6.4677  0  0  0
       3      1  1   -3.7032   -1.7756   -6.9465  0  0  0
       4      1  1   -3.7288   -1.6133   -5.9116  0  0  0
       5      1  1   -3.9173   -2.4798   -5.4545  0  0  0
       6      1  1   -4.2082   -2.9678   -4.6977  0  0  0
       7      1  1   -5.0665   -3.3630   -4.3797  0  0  0
       8      1  1   -5.6059   -2.8334   -3.7675  0  0  0
       9      1  1   -4.7453   -2.5468   -3.5426  0  0  0
      10      1  1   -3.9543   -2.2812   -3.1107  0  0  0
      11      1  1   -3.1586   -2.0408   -3.4687  0  0  0
      12      1  1   -2.6736   -1.3359   -3.1965  0  0  0
      13      1  1   -2.1194   -0.7114   -2.8051  0  0  0
      14      1  1   -2.2847   -1.1385   -1.9611  0  0  0
      15      1  1   -1.7850   -1.5842   -1.3712  0  0  0
      16      1  1   -1.4364   -1.6803   -0.5220  0  0  0
      17      1  1   -1.3507   -1.5469    0.4084  0  0  0
      18      1  1   -1.7319   -1.6032    1.3034  0  0  0
      19      1  1   -2.4172   -1.4765    1.9525  0  0  0
      20      1  1   -3.2394   -1.0263    1.7041  0  0  0
      21      1  1   -3.0859   -0.2908    2.3477  0  0  0
      22      1  1   -3.7945   -0.0892    1.7353  0  0  0
      23      1  1   -4.2861   -0.8912    1.4840  0  0  0
      24      1  1   -4.5074   -0.2849    0.7346  0  0  0
      25      1  1   -5.0793    0.0734    0.0605  0  0  0
      26      1  1   -5.6653    0.4743   -0.5270  0  0  0
      27      1  1   -6.5731    0.3491   -0.8646  0  0  0
      28      1  1   -7.4484   -0.0013   -0.9089  0  0  0
      29      1  1   -7.9598   -0.1126   -0.1493  0  0  0
      30      1  1    7.6748    0.2203    0.3118 -1  0  0
      31      1  1    6.7844    0.6283    0.2314 -1  0  0
      32      1  1    6.1059    1.3011    0.3738 -1  0  0
      33      1  1    5.2569    1.4695    0.8677 -1  0  0
      34      1  1    4.6223    0.7851    0.9307 -1  0  0
      35      1  1    4.8526   -0.1101    0.7663 -1  0  0
      36      1  1    4.8830   -0.7657    0.1001 -1  0  0
      37      1  1    4.5724   -1.2504   -0.6660 -1  0  0
      38      1  1    4.0212   -2.0601   -0.9810 -1  0  0
      39      1  1    3.8614   -2.7681   -1.7166 -1  0  0
      40      1  1    3.7867   -3.3077   -0.8664 -1  0  0
      41      2  2    3.4551   -1.0865   -3.8797  0  0  0
      42      2  2    3.4634   -0.2905   -4.4171  0  0  0
      43      2  2    3.3450    0.3311   -5.1842  0  0  0
      44      2  2    3.1350    0.5569   -6.1197  0  0  0
      45      2  2    3.0083    1.0587   -7.0003  0  0  0
      46      2  2    3.2088    0.7640   -7.9587  0  0  0
      47      2  2    3.1971    0.6936    7.5232  0  0 -1
      48      2  2    2.5881    0.5624    6.8757  0  0 -1
      49      2  2    1.6330    0.5113    7.0591  0  0 -1
      50      2  2    1.5102   -0.0762    7.7949  0  0 -1
      51      2  2    1.1030    0.0542   -7.6565  0  0  0
      52      2  2    0.9357    0.6439   -6.9262  0  0  0
      53      2  2    1.4333    1.4139   -7.0550  0  0  0
      54      2  2    2.1274    1.7216   -7.5156  0  0  0
      55      2  2    2.6898    1.5840    8.0474  0  0 -1
      56      2  2    2.9524    2.2160    7.3232  0  0 -1
      57      2  2    3.4174    3.0386    7.0594  0  0 -1
      58      2  2    3.6172    3.4920    6.2838  0  0 -1
      59      2  2    3.4249    4.0656    5.5761  0  0 -1
      60      2  2    3.6243    4.8742    5.0226  0  0 -1
      61      2  2    3.2361    5.7505    5.1372  0  0 -1
      62      2  2    3.7763    6.2672    4.5804  0  0 -1
      63      2  2    4.6843    6.4442    4.4298  0  0 -1
      64      2  2    5.4346    7.0470    4.5256  0  0 -1
      65      2  2    5.8473    7.9466    4.4979  0  0 -1
      66      2  2    5.0667    8.0371    3.9286  0  0 -1
      67      2  2    4.4694    7.3492    3.7072  0  0 -1
      68      2  2    3.7871    7.9939    3.8058  0  0 -1
      69      2  2    3.2044   -8.0376    3.1640  0  1 -1
      70      2  2    3.8676   -7.3417    3.1638  0  1 -1
      71      2  2    3.1740   -7.0258    3.8617  0  1 -1
      72      2  2    2.6229   -6.8235    4.5657  0  1 -1
      73      2  2    1.8737   -6.2882    4.9562  0  1 -1
      74      2  2    1.0941   -5.7874    5.2434  0  1 -1
      75      2  2    0.6263   -5.6822    4.2904  0  1 -1
      76      2  2    1.5630   -5.4597    4.1946  0  1 -1
      77      2  2    1.7525   -4.5454    4.3691  0  1 -1
      78      2  2    2.3296   -4.0096    3.8006  0  1 -1
      79      2  2    2.8806   -3.3547    4.2242  0  1 -1
      80      2  2    3.1860   -2.7136    3.5227  0  1 -1
      81      3  1   -4.5548    5.7485    6.0216  0  0  0
      82      3  1   -4.1555    6.5480    5.6687  0  0  0
      83      3  1   -4.0973    6.9142    4.8681  0  0  0
      84      3  1   -4.9105    7.0901    4.3756  0  0  0
      85      3  1   -4.4207    6.3159    4.0682  0  0  0
      86      3  1   -4.7397    5.4672    3.9007  0  0  0
      87      3  1   -4.6912    4.8125    3.1822  0  0  0
      88      3  1   -4.1776    3.9883    3.1806  0  0  0
      89      3  1   -4.1307    4.1924    2.2221  0  0  0
      90      3  1   -4.8933    3.6825    1.8270  0  0  0
      91      3  1   -4.8665    2.8420    1.4647  0  0  0
      92      3  1   -5.3054    2.5407    2.3089  0  0  0
      93      3  1   -4.6398    1.9524    1.9588  0  0  0
      94      3  1   -4.7860    1.9788    2.9090  0  0  0
      95      3  1   -4.1572    1.3286    3.4270  0  0  0
      96      3  1   -4.1322    0.5902    3.9949  0  0  0
      97      3  1   -3.8486    0.7777    4.9030  0  0  0
      98      3  1   -3.1679    0.6448    5.6278  0  0  0
      99      3  1   -3.7431    1.4402    5.6819  0  0  0
     100      3  1   -3.9513    1.7463    6.5838  0  0  0
     101      3  1   -4.4751    2.4318    6.9534  0  0  0
     102      3  1   -4.7871    1.5760    7.4224  0  0  0
     103      3  1   -5.0796    0.8459    7.9811  0  0  0
     104      3  1   -4.7904    0.5863   -7.6006  0  0  1
     105      3  1   -4.5790   -0.1461   -7.0952  0  0  1
     106      3  1   -4.8318   -1.0000   -7.4320  0  0  1
     107      3  1   -5.2877   -1.7175   -7.9583  0  0  1
     108      3  1   -5.1173   -1.8660    7.5130  0  0  0
     109      3  1   -4.7000   -1.3583    6.7775  0  0  0
     110      3  1   -5.5551   -0.9660    6.6824  0  0  0
     111      3  1   -6.3552   -0.4859    6.4167  0  0  0
     112      3  1   -7.2893   -0.2325    6.3530  0  0  0
     113      3  1   -8.1166   -0.0576    6.7017  0  0  0
     114      3  1    7.9537   -0.8068    7.1081 -1  0  0
     115      3  1    7.8094   -1.4160    7.7817 -1  0  0
     116      3  1    7.6663   -1.3428   -7.6974 -1  0  1
     117      3  1   -8.0615   -1.0159   -7.1172  0  0  1
     118      3  1   -8.0340   -0.0766   -7.0752  0  0  1
     119      3  1   -7.7311    0.5241   -7.7389  0  0  1
     120      3  1   -6.9535   -0.0280   -7.5954  0  0  1
     121      4  2   -2.5059   -5.6993   -1.2716  0  0  0
     122      4  2   -2.3664   -6.0973   -0.4090  0  0  0
     123      4  2   -1.4970   -6.5861   -0.2642  0  0  0
     124      4  2   -0.7174   -6.9509    0.1025  0  0  0
     125      4  2    0.0817   -7.5289    0.0050  0  0  0
     126      4  2    0.2275   -6.6250    0.4168  0  0  0
     127      4  2    0.3005   -5.7404    0.8929  0  0  0
     128      4  2   -0.1107   -6.3155    1.6182  0  0  0
     129      4  2   -0.8772   -6.4103    1.1087  0  0  0
     130      4  2   -0.7684   -5.4467    1.0151  0  0  0
     131      4  2   -0.4349   -4.5241    0.9512  0  0  0
     132      4  2   -0.1952   -4.0553    0.1461  0  0  0
     133      4  2   -0.4295   -3.9024   -0.7809  0  0  0
     134      4  2   -1.1228   -4.4615   -0.3919  0  0  0
     135      4  2   -1.0690   -5.3817   -0.8239  0  0  0
     136      4  2   -1.5786   -5.9305   -1.4779  0  0  0
     137      4  2   -0.9972   -6.6286   -1.8603  0  0  0
     138      4  2   -0.9811   -6.3735   -2.7604  0  0  0
     139      4  2   -1.7257   -5.9456   -3.2078  0  0  0
     140      4  2   -2.5744   -5.4172   -3.2036  0  0  0
     141      4  2   -3.2106   -4.8160   -2.8782  0  0  0
     142      4  2   -3.9261   -4.7724   -3.4799  0  0  0
     143      4  2   -3.9331   -5.6655   -3.1279  0  0  0
     144      4  2   -3.6121   -6.5065   -3.5012  0  0  0
     145      4  2   -3.5359   -7.4241   -3.3480  0  0  0
     146      4  2   -4.4247   -7.8027   -3.5339  0  0  0
     147      4  2   -4.3956   -8.1393   -4.4395  0  0  0
     148      4  2   -4.5835   -7.7408   -5.2598  0  0  0
     149      4  2   -3.6430   -8.0019   -5.3640  0  0  0
     150      4  2   -3.1537   -7.8070   -4.5653  0  0  0
     151      4  2   -2.5874   -7.4266   -3.8996  0  0  0
     152      4  2   -2.1033   -6.5176   -4.0259  0  0  0
     153      4  2   -2.2477   -5.6546   -4.1995  0  0  0
     154      4  2   -2.0494   -4.6562   -4.0474  0  0  0
     155      4  2   -1.5988   -4.1080   -4.6447  0  0  0
     156      4  2   -1.4496   -3.3936   -5.1841  0  0  0
     157      4  2   -1.2606   -2.4357   -5.3465  0  0  0
     158      4  2   -0.9591   -1.9438   -4.5710  0  0  0
     159      4  2   -0.4858   -1.2616   -4.1253  0  0  0
     160      4  2    0.4164   -1.0237   -4.1183  0  0  0
     161      5  1   -0.1440    7.2364   -5.7227  0  0  0
     162      5  1    0.6558    6.9783   -6.1262  0  0  0
     163      5  1    1.1111    6.1343   -5.9811  0  0  0
     164      5  1    1.0226    5.7997   -5.1022  0  0  0
     165      5  1    0.3941    6.3700   -4.6712  0  0  0
     166      5  1    1.1217    6.9317   -4.9989  0  0  0
     167      5  1    0.7755    7.7592   -5.3428  0  0  0
     168      5  1    0.6448   -7.7669   -5.7142  0  1  0
     169      5  1    0.1854   -7.1895   -6.2835  0  1  0
     170      5  1   -0.5676   -7.4706   -6.8027  0  1  0
     171      5  1   -1.1520   -7.8542   -7.5021  0  1  0
     172      5  1   -1.9454   -7.4317   -7.4158  0  1  0
     173      5  1   -2.8468   -7.2151   -7.2658  0  1  0
     174      5  1   -3.5842   -6.8908   -7.8260  0  1  0
     175      5  1   -3.5508   -7.0063    7.6241  0  1 -1
     176      5  1   -2.9756   -7.7201    7.8585  0  1 -1
     177      5  1   -2.0394   -7.8230    8.1039  0  1 -1
     178      5  1   -1.3274   -7.1897    8.1174  0  1 -1
     179      5  1   -0.9807   -6.6449   -7.5431  0  1  0
     180      5  1   -0.9238   -5.6903   -7.3638  0  1  0
     181      5  1   -0.8741   -4.9265   -6.6813  0  1  0
     182      5  1   -0.0949   -5.5199   -6.3670  0  1  0
     183      5  1   -0.2778   -4.8656   -5.7369  0  1  0
     184      5  1   -0.6919   -4.5164   -5.0108  0  1  0
     185      5  1   -0.4891   -3.6504   -4.7370  0  1  0
     186      5  1    0.3406   -3.7766   -5.2321  0  1  0
     187      5  1   -0.3353   -3.7202   -5.9210  0  1  0
     188      5  1    0.2085   -3.0043   -6.3445  0  1  0
     189      5  1    0.5040   -3.2604   -7.2279  0  1  0
     190      5  1    1.2968   -2.8872   -6.9492  0  1  0
     191      5  1    2.1808   -2.5142   -6.8257  0  1  0
     192      5  1    1.9266   -1.6274   -7.1142  0  1  0
     193      5  1    2.7913   -1.2579   -6.6547  0  1  0
     194      5  1    3.3329   -0.8061   -6.0178  0  1  0
     195      5  1    4.0946   -0.2082   -5.7371  0  1  0
     196      5  1    4.8297   -0.5360   -6.2362  0  1  0
     197      5  1    5.4864   -0.1385   -6.8564  0  1  0
     198      5  1    5.5430   -0.1071   -7.8622  0  1  0
     199      5  1    4.7464    0.3372   -7.5507  0  1  0
     200      5  1    4.0768    0.4963   -6.8595  0  1  0
     201      6  2   -7.5650    1.5000    1.2413  0  0  0
     202      6  2   -8.0473    0.8479    0.7081  0  0  0
     203      6  2   -7.9777    0.9662   -0.2078  0  0  0
     204      6  2    8.0672    0.6049   -1.0508 -1  0  0
     205      6  2    7.3706    0.0109   -0.7142 -1  0  0
     206      6  2    6.5245    0.4155   -0.8480 -1  0  0
     207      6  2    6.3281    1.3903   -0.7213 -1  0  0
     208      6  2    7.2457    1.3462   -0.7141 -1  0  0
     209      6  2    8.0101    1.8416   -0.6149 -1  0  0
     210      6  2    8.0231    2.8577   -0.6369 -1  0  0
     211      6  2    7.4977    2.7380    0.1246 -1  0  0
     212      6  2    6.6911    2.2612   -0.1411 -1  0  0
     213      6  2    5.7458    2.2789    0.0148 -1  0  0
     214      6  2    5.2222    2.6041    0.7804 -1  0  0
     215      6  2    4.3216    2.8995    0.5944 -1  0  0
     216      6  2    4.2944    3.6961    1.0411 -1  0  0
     217      6  2    4.5201    3.1454    1.7328 -1  0  0
     218      6  2    4.6989    2.8044    2.6264 -1  0  0
     219      6  2    5.3639    2.6169    3.2121 -1  0  0
     220      6  2    5.4309    2.2501    4.1225 -1  0  0
     221      6  2    5.4368    2.0364    5.0152 -1  0  0
     222      6  2    6.1506    2.3692    5.6603 -1  0  0
     223      6  2    6.1296    1.7133    6.3910 -1  0  0
     224      6  2    6.9172    1.1740    6.2003 -1  0  0
     225      6  2    7.0855    1.9468    5.6814 -1  0  0
     226      6  2    7.1305    2.6951    4.9985 -1  0  0
     227      6  2    6.4025    3.1032    4.5315 -1  0  0
     228      6  2    5.4882    3.3255    4.2646 -1  0  0
     229      6  2    4.5483    3.2340    4.2192 -1  0  0
     230      6  2    4.1767    2.3631    4.1633 -1  0  0
     231      6  2    4.4256    2.2482    5.0824 -1  0  0
     232      6  2    5.0453    2.8611    5.4213 -1  0  0
     233      6  2    4.4123    2.8712    6.0804 -1  0  0
     234      6  2    4.5083    2.6907    7.0185 -1  0  0
     235      6  2    4.1319    2.0459    7.6273 -1  0  0
     236      6  2    4.5832    1.2833    7.3126 -1  0  0
     237      6  2    5.0233    0.4519    7.3297 -1  0  0
     238      6  2    4.9562   -0.3351    7.7829 -1  0  0
     239      6  2    4.7810   -0.8429    6.9451 -1  0  0
     240      6  2    5.3913   -1.4885    6.4549 -1  0  0
     241      7  1    6.9722   -5.8488   -6.6715  0  0  0
     242      7  1    7.8812   -6.1989   -6.5964  0  0  0
     243      7  1   -7.9971   -6.9093   -6.9504  1  0  0
     244      7  1   -7.5043   -6.9853   -7.7710  1  0  0
     245      7  1   -7.3887   -7.1313    7.6754  1  0 -1
     246      7  1   -7.0229   -7.9617    7.5892  1  0 -1
     247      7  1   -7.8696   -8.0413    8.0866  1  0 -1
     248      7  1    8.0445    7.6146   -8.1240  0 -1  0
     249      7  1    7.0492    7.5183    8.0777  0 -1 -1
     250      7  1    6.4798    7.0077    7.5573  0 -1 -1
     251      7  1    6.1121    6.2934    7.0757  0 -1 -1
     252      7  1    6.9712    6.2966    6.5677  0 -1 -1
     253      7  1    6.9671    6.8706    5.7955  0 -1 -1
     254      7  1    6.2166    7.1106    5.2161  0 -1 -1
     255      7  1    5.3877    7.3516    5.6560  0 -1 -1
     256      7  1    4.4705    7.0498    5.7885  0 -1 -1
     257      7  1    3.6793    6.4541    5.8203  0 -1 -1
     258      7  1    2.9979    6.7208    6.3953  0 -1 -1
     259      7  1    2.4461    7.2693    6.9529  0 -1 -1
     260      7  1    1.6527    7.0183    7.4950  0 -1 -1
     261      7  1    2.4785    6.7848    7.9499  0 -1 -1
     262      7  1    2.5174    7.7035    7.7858  0 -1 -1
     263      7  1    1.8603   -7.9891    7.6609  0  0 -1
     264      7  1    1.3688    7.8734    7.0278  0 -1 -1
     265      7  1    1.4531    7.0626    6.4638  0 -1 -1
     266      7  1    1.8344    6.6254    5.7071  0 -1 -1
     267      7  1    2.7215    6.8419    5.3543  0 -1 -1
     268      7  1    2.4085    7.3839    4.6329  0 -1 -1
     269      7  1    1.5024    7.5277    4.3413  0 -1 -1
     270      7  1    0.7070    6.9936    4.5543  0 -1 -1
     271      7  1    0.3946    7.8772    4.7528  0 -1 -1
     272      7  1   -0.3419   -8.1238    5.2184  0  0 -1
     273      7  1   -0.2883    7.3723    5.4801  0 -1 -1
     274      7  1   -0.3893    6.4642    5.1932  0 -1 -1
     275      7  1   -1.3141    6.4405    5.2721  0 -1 -1
     276      7  1   -1.1979    6.7879    6.2024  0 -1 -1
     277      7  1   -1.2658    7.0109    7.1159  0 -1 -1
     278      7  1   -1.9462    6.8161    7.8205  0 -1 -1
     279      7  1   -2.8224    6.4567    7.8971  0 -1 -1
     280      7  1   -3.2919    7.0336   -7.9544  0 -1  0
     281      8  2    5.2796   -6.5812   -5.4085  0  0  0
     282      8  2    4.7163   -6.7833   -4.5681  0  0  0
     283      8  2    4.4060   -5.9174   -4.2984  0  0  0
     284      8  2    3.5099   -5.7204   -4.4373  0  0  0
     285      8  2    2.9851   -6.1663   -5.1381  0  0  0
     286      8  2    3.1889   -7.0146   -4.7250  0  0  0
     287      8  2    3.8547   -7.1451   -5.3837  0  0  0
     288      8  2    4.5242   -7.1185   -6.0551  0  0  0
     289      8  2    5.1681   -6.6532   -6.5325  0  0  0
     290      8  2    5.9050   -7.1959   -6.3571  0  0  0
     291      8  2    6.3040   -7.0069   -5.5110  0  0  0
     292      8  2    6.8515   -6.9124   -4.7697  0  0  0
     293      8  2    7.3534   -7.7221   -4.8654  0  0  0
     294      8  2    8.2082   -8.0084   -4.4692  0  0  0
     295      8  2   -7.5403   -7.8024   -3.8292  1  0  0
     296      8  2   -7.4014   -7.7313   -2.9290  1  0  0
     297      8  2   -7.6476    7.7892   -2.8196  1 -1  0
     298      8  2    8.0534    7.9926   -3.3742  0 -1  0
     299      8  2    7.2509   -8.1619   -3.8214  0  0  0
     300      8  2    6.4546   -8.1818   -4.4556  0  0  0
     301      8  2    5.5531   -8.0801   -4.1505  0  0  0
     302      8  2    5.2333   -7.2360   -3.8559  0  0  0
     303      8  2    5.1755   -7.1027   -2.9131  0  0  0
     304      8  2    4.3003   -6.7047   -2.8807  0  0  0
     305      8  2    3.9516   -5.8846   -2.3769  0  0  0
     306      8  2    3.9923   -5.3884   -1.6100  0  0  0
     307      8  2    3.2342   -4.8484   -1.4445  0  0  0
     308      8  2    4.0318   -4.2970   -1.3989  0  0  0
     309      8  2    4.9095   -4.6881   -1.2571  0  0  0
     310      8  2    5.5017   -5.4254   -1.2630  0  0  0
     311      8  2    4.7428   -5.5289   -0.6837  0  0  0
     312      8  2    3.8827   -5.1141   -0.6030  0  0  0
     313      8  2    3.1842   -5.6936   -1.0026  0  0  0
     314      8  2    3.9261   -6.3038   -0.7947  0  0  0
     315      8  2    4.1325   -6.5477    0.1181  0  0  0
     316      8  2    4.2381   -5.6449    0.2877  0  0  0
     317      8  2    5.0593   -6.1096    0.2201  0  0  0
     318      8  2    5.6677   -6.6746    0.6816  0  0  0
     319      8  2    4.9862   -6.5959    1.3351  0  0  0
     320      8  2    4.9665   -5.7010    1.4799  0  0  0
     321      9  1   -0.0477   -5.0097   -0.6713  0  0  0
     322      9  1   -0.4859   -5.4641    0.0181  0  0  0
     323      9  1   -1.4214   -5.4887    0.2290  0  0  0
     324      9  1   -2.2031   -5.9645    0.5101  0  0  0
     325      9  1   -1.6950   -6.7547    0.7017  0  0  0
     326      9  1   -1.5128   -7.7264    0.6779  0  0  0
     327      9  1   -2.2943    8.1128    0.6711  0 -1  0
     328      9  1   -2.1247    7.2537    0.9948  0 -1  0
     329      9  1   -2.0090    7.1285    1.9188  0 -1  0
     330      9  1   -2.7040    6.4552    2.2441  0 -1  0
     331      9  1   -3.3591    5.8222    2.0699  0 -1  0
     332      9  1   -4.2589    5.6786    1.8880  0 -1  0
     333      9  1   -4.9586    5.0590    2.2008  0 -1  0
     334      9  1   -5.7800    4.7283    2.5296  0 -1  0
     335      9  1   -6.5251    4.3990    2.9885  0 -1  0
     336      9  1   -6.7508    5.1313    2.3841  0 -1  0
     337      9  1   -7.2547    5.2164    1.5653  0 -1  0
     338      9  1   -6.6673    4.9299    0.8489  0 -1  0
     339      9  1   -6.1782    4.5312    0.0976  0 -1  0
     340      9  1   -6.4905    3.8038    0.5989  0 -1  0
     341      9  1   -6.9662    3.0683    0.9096  0 -1  0
     342      9  1   -7.8375    3.4309    0.8570  0 -1  0
     343      9  1    8.1320    2.6404    1.1856 -1 -1  0
     344      9  1    7.4973    3.3543    1.0767 -1 -1  0
     345      9  1    6.7109    3.6993    0.7816 -1 -1  0
     346      9  1    5.8361    4.0432    0.6811 -1 -1  0
     347      9  1    5.0958    3.6472    0.2477 -1 -1  0
     348      9  1    5.1428    3.1030   -0.6290 -1 -1  0
     349      9  1    5.2138    3.8702   -1.1747 -1 -1  0
     350      9  1    5.2915    4.7014   -1.5387 -1 -1  0
     351      9  1    4.8757    5.6615   -1.4683 -1 -1  0
     352      9  1    5.2443    5.4902   -0.5578 -1 -1  0
     353      9  1    5.0383    5.8271    0.2975 -1 -1  0
     354      9  1    4.5934    6.2090    1.0805 -1 -1  0
     355      9  1    3.6988    6.0628    0.7137 -1 -1  0
     356      9  1    3.6193    6.1897    1.6088 -1 -1  0
     357      9  1    3.4358    6.3119    2.5794 -1 -1  0
     358      9  1    2.6134    5.8276    2.4014 -1 -1  0
     359      9  1    2.4782    4.8298    2.2485 -1 -1  0
     360      9  1    1.8223    4.5893    1.5448 -1 -1  0
     361     10  2    5.7461   -7.3903   -7.3881  0  0  0
     362     10  2    5.7162   -6.7772   -8.0634  0  0  0
     363     10  2    5.5090   -5.8469    7.9991  0  0 -1
     364     10  2    4.9486   -5.6862    7.2370  0  0 -1
     365     10  2    4.6357   -5.1502    6.5498  0  0 -1
     366     10  2    4.4760   -4.1344    6.4437  0  0 -1
     367     10  2    4.3972   -4.6535    5.5958  0  0 -1
     368     10  2    4.9731   -4.9407    4.8989  0  0 -1
     369     10  2    4.4981   -5.6377    4.4320  0  0 -1
     370     10  2    4.1161   -6.3673    3.9374  0  0 -1
     371     10  2    4.0949   -7.3325    4.1672  0  0 -1
     372     10  2    3.6259   -6.9234    4.9133  0  0 -1
     373     10  2    4.5214   -6.6310    5.0224  0  0 -1
     374     10  2    5.2391   -6.5934    4.2920  0  0 -1
     375     10  2    5.2455   -7.4252    3.9171  0  0 -1
     376     10  2    5.8529   -7.9758    3.4127  0  0 -1
     377     10  2    6.6095    7.8674    3.4886  0 -1 -1
     378     10  2    7.0572   -7.8980    4.2005  0  0 -1
     379     10  2    7.6610   -7.7794    3.4514  0  0 -1
     380     10  2   -7.9207    8.1954    3.1231  1 -1 -1
     381     10  2   -7.6302   -7.8899    2.2614  1  0 -1
     382     10  2   -6.9896   -7.3037    1.8109  1  0 -1
     383     10  2   -7.6860   -6.7972    2.2555  1  0 -1
     384     10  2   -7.8960   -7.0864    3.1097  1  0 -1
     385     10  2   -7.7775   -6.3129    3.7419  1  0 -1
     386     10  2   -7.1576   -5.6685    4.1818  1  0 -1
     387     10  2   -6.7994   -4.8602    4.4295  1  0 -1
     388     10  2   -6.0057   -4.5435    4.7475  1  0 -1
     389     10  2   -5.2609   -4.5769    4.1675  1  0 -1
     390     10  2   -5.0571   -5.0645    3.3283  1  0 -1
     391     10  2   -5.4671   -5.9421    3.3306  1  0 -1
     392     10  2   -5.2633   -6.7774    2.8865  1  0 -1
     393     10  2   -5.0660   -7.2960    2.0849  1  0 -1
     394     10  2   -4.9879    8.1988    2.3095  1 -1 -1
     395     10  2   -4.9648    7.2637    2.0874  1 -1 -1
     396     10  2   -5.0343    6.3443    1.9623  1 -1 -1
     397     10  2   -5.6366    6.7240    1.2974  1 -1 -1
     398     10  2   -5.5589    6.7686    0.3687  1 -1 -1
     399     10  2   -4.7381    6.2525    0.4268  1 -1 -1
     400     10  2   -3.8238    6.2399    0.8094  1 -1 -1
     401     11  1    4.8337   -6.9620    6.0701  0  0  0
     402     11  1    4.9682   -7.8687    5.8710  0  0  0
     403     11  1    5.1201    7.9035    6.5376  0 -1  0
     404     11  1    5.8985    7.3266    6.7467  0 -1  0
     405     11  1    6.4363    8.0277    7.1194  0 -1  0
     406     11  1    7.1418    7.5188    6.6213  0 -1  0
     407     11  1    6.6665    7.8088    5.8309  0 -1  0
     408     11  1    6.3115   -7.9020    5.3080  0  0  0
     409     11  1    5.6408   -7.2855    4.9299  0  0  0
     410     11  1    4.8457   -7.8486    4.8295  0  0  0
     411     11  1    4.4990    7.6371    4.6862  0 -1  0
     412     11  1    3.6175    7.4169    4.8332  0 -1  0
     413     11  1    3.7506    7.9127    5.6417  0 -1  0
     414     11  1    3.7883    7.4426    6.5018  0 -1  0
     415     11  1    4.1095   -8.1215    6.5892  0  0  0
     416     11  1    3.8558   -7.4196    5.9769  0  0  0
     417     11  1    3.1326   -7.2501    6.5570  0  0  0
     418     11  1    2.8995   -8.1320    6.2067  0  0  0
     419     11  1    2.3160    7.5976    5.8834  0 -1  0
     420     11  1    1.4822    7.7037    5.3906  0 -1  0
     421     11  1    0.6840    7.1953    5.6118  0 -1  0
     422     11  1    0.5910    8.0868    5.9678  0 -1  0
     423     11  1   -0.0709   -7.7813    6.3154  0  0  0
     424     11  1   -0.5510   -7.4558    7.1140  0  0  0
     425     11  1   -1.2303   -8.0777    7.4053  0  0  0
     426     11  1   -2.0710    8.0375    7.2003  0 -1  0
     427     11  1   -2.7494    7.4079    7.4776  0 -1  0
     428     11  1   -3.5682    7.8395    7.6497  0 -1  0
     429     11  1   -4.1296   -7.7807    7.7261  0  0  0
     430     11  1   -3.7905   -7.8746    6.8338  0  0  0
     431     11  1   -3.2207    7.8096    6.6330  0 -1  0
     432     11  1   -3.3161    6.8891    6.2763  0 -1  0
     433     11  1   -3.8344    6.1397    6.6664  0 -1  0
     434     11  1   -3.4342    5.5022    6.0708  0 -1  0
     435     11  1   -3.7669    4.8398    6.6222  0 -1  0
     436     11  1   -4.2915    4.6582    5.9002  0 -1  0
     437     11  1   -5.0737    4.9969    5.4288  0 -1  0
     438     11  1   -5.5673    5.0779    4.6087  0 -1  0
     439     11  1   -5.1845    5.9038    4.8997  0 -1  0
     440     11  1   -4.2460    5.7952    4.9872  0 -1  0
     441     12  2   -5.8484    6.5244    3.9637  0  0  0
     442     12  2   -5.8487    5.5949    3.5625  0  0  0
     443     12  2   -6.4822    4.8961    3.9423  0  0  0
     444     12  2   -5.6401    4.5007    3.6756  0  0  0
     445     12  2   -5.2342    3.9247    3.0098  0  0  0
     446     12  2   -5.3675    3.4942    3.8258  0  0  0
     447     12  2   -5.6043    3.0865    4.6483  0  0  0
     448     12  2   -6.1308    2.3274    4.6564  0  0  0
     449     12  2   -6.8222    2.2662    4.0488  0  0  0
     450     12  2   -7.4447    2.0088    3.3879  0  0  0
     451     12  2   -8.0726    1.8201    4.0400  0  0  0
     452     12  2    7.4996    1.4924    3.7553 -1  0  0
     453     12  2    6.9905    0.8666    3.3206 -1  0  0
     454     12  2    6.7091   -0.0328    3.0518 -1  0  0
     455     12  2    7.3154   -0.8154    2.8325 -1  0  0
     456     12  2    7.5483   -0.0009    2.3035 -1  0  0
     457     12  2    7.9145    0.8716    2.3943 -1  0  0
     458     12  2   -7.7586    0.5406    1.8865  0  0  0
     459     12  2   -7.0387    0.0467    2.3366  0  0  0
     460     12  2   -6.3499    0.7028    2.6841  0  0  0
     461     12  2   -5.7714    1.4854    2.6503  0  0  0
     462     12  2   -6.5295    1.5130    3.2747  0  0  0
     463     12  2   -7.1685    1.1460    3.7989  0  0  0
     464     12  2   -7.8567    0.6498    4.2531  0  0  0
     465     12  2   -7.9221    1.2778    4.9560  0  0  0
     466     12  2    7.6912    1.7098    4.8771 -1  0  0
     467     12  2    6.9543    1.1102    5.0877 -1  0  0
     468     12  2    5.9849    1.2570    5.2015 -1  0  0
     469     12  2    5.6691    1.0844    4.3112 -1  0  0
     470     12  2    5.4974    0.2660    3.7942 -1  0  0
     471     12  2    5.1024    0.1347    4.7027 -1  0  0
     472     12  2    5.7992    0.0595    5.4303 -1  0  0
     473     12  2    6.5115    0.0897    6.0602 -1  0  0
     474     12  2    7.4204    0.3003    6.0354 -1  0  0
     475     12  2    7.9608    1.1020    5.9662 -1  0  0
     476     12  2   -8.1652    2.0120    5.7790  0  0  0
     477     12  2   -8.0498    2.4218    6.6768  0  0  0
     478     12  2   -7.8681    2.4292    7.6013  0  0  0
     479     12  2    7.6795    2.1065    7.6815 -1  0  0
     480     12  2    7.2229    1.9105   -7.8671 -1  0  1
     481     13  1    1.0973    2.9125    6.1625  0  0  0
     482     13  1    0.3697    3.4964    5.9423  0  0  0
     483     13  1   -0.1709    3.1267    6.6195  0  0  0
     484     13  1   -0.3678    2.6757    7.3771  0  0  0
     485     13  1   -0.5737    3.2283    8.1647  0  0  0
     486     13  1   -1.1554    3.4641   -7.5638  0  0  1
     487     13  1   -1.3187    3.4857   -6.6652  0  0  1
     488     13  1   -1.1266    4.4785   -6.6960  0  0  1
     489     13  1   -0.3638    5.1346   -6.6223  0  0  1
     490     13  1   -0.1713    6.1254   -6.7920  0  0  1
     491     13  1   -0.8710    6.5105   -6.3009  0  0  1
     492     13  1   -1.1518    5.5650   -6.2760  0  0  1
     493     13  1   -1.7167    4.8934   -5.7901  0  0  1
     494     13  1   -1.4351    4.0059   -5.7680  0  0  1
     495     13  1   -0.7079    4.5983   -5.5108  0  0  1
     496     13  1   -0.3839    4.2817   -4.6177  0  0  1
     497     13  1    0.4411    4.4517   -5.0176  0  0  1
     498     13  1    1.3933    4.1570   -5.1987  0  0  1
     499     13  1    2.1204    3.5739   -4.8923  0  0  1
     500     13  1    1.3976    3.1355   -4.4244  0  0  1
     501     13  1    1.3007    3.0131   -3.4836  0  0  1
     502     13  1    1.1550    3.6151   -2.7742  0  0  1
     503     13  1    0.5820    4.3044   -2.4456  0  0  1
     504     13  1    0.1725    3.5112   -2.6491  0  0  1
     505     13  1    0.0990    3.2731   -1.7118  0  0  1
     506     13  1   -0.4402    3.3384   -0.8844  0  0  1
     507     13  1   -0.6404    2.7813   -0.0600  0  0  1
     508     13  1   -1.2569    2.0987    0.1336  0  0  1
     509     13  1   -1.7181    1.9476    1.0005  0  0  1