LAMMPS (21 Nov 2023 - Development - patch_21Nov2023-456-g33bfc1d1ca)
OMP_NUM_THREADS environment is not set. Defaulting to 1 thread. (src/comm.cpp:98)
  using 1 OpenMP thread(s) per MPI task
# 3d Lennard-Jones melt with hybrid mc/md

units           lj
atom_style      atomic

lattice         fcc 0.8442
Lattice spacing in x,y,z = 1.6795962 1.6795962 1.6795962
region          box block 0 10 0 10 0 10
create_box      1 box
Created orthogonal box = (0 0 0) to (16.795962 16.795962 16.795962)
  1 by 2 by 2 MPI processor grid
create_atoms    1 box
Created 4000 atoms
  using lattice units in orthogonal box = (0 0 0) to (16.795962 16.795962 16.795962)
  create_atoms CPU = 0.000 seconds
mass            1 1.0

pair_style      lj/cut 2.5
pair_coeff      1 1 1.0 1.0 2.5

neighbor        0.3 bin
neigh_modify    every 2 delay 4 check yes
velocity        all create 3.0 321654 loop geom

fix             1 all hmc 100 6234 1.5 flexible

#dump           id all atom 50 dump.melt

#dump           2 all image 25 image.*.jpg type type #               axes yes 0.8 0.02 view 60 -30
#dump_modify    2 pad 3

#dump           3 all movie 25 movie.mpg type type #               axes yes 0.8 0.02 view 60 -30
#dump_modify    3 pad 3

thermo          50
thermo_style custom step temp pe ke etotal f_1 f_1[*]

run             3000
Generated 0 of 0 mixed pair_coeff terms from geometric mixing rule
Neighbor list info ...
  update: every = 2 steps, delay = 4 steps, check = yes
  max neighbors/atom: 2000, page size: 100000
  master list distance cutoff = 2.8
  ghost atom cutoff = 2.8
  binsize = 1.4, bins = 12 12 12
  1 neighbor lists, perpetual/occasional/extra = 1 0 0
  (1) pair lj/cut, perpetual
      attributes: half, newton on
      pair build: half/bin/atomonly/newton
      stencil: half/bin/3d
      bin: standard
Per MPI rank memory allocation (min/avg/max) = 4.471 | 4.471 | 4.471 Mbytes
   Step          Temp          PotEng         KinEng         TotEng          f_1           f_1[1]         f_1[2]         f_1[3]         f_1[4]         f_1[5]    
         0   1.4867733     -6.7733681      2.2296024     -4.5437656      0              0              0              0              0              0            
        50   0.75969453    -5.6913582      1.1392569     -4.5521013      0              0              0              0              0              0            
       100   1.496734      -5.7074069      2.2445397     -3.4628672      1              1              1              4263.8446     -4300.218      -36.373405    
       150   1.2013767     -5.2631278      1.8016145     -3.4615133      1              1              1              4263.8446     -4300.218      -36.373405    
       200   1.5121997     -5.7074069      2.2677324     -3.4396745      0.5            1              2              1775.988      -1764.7259      11.262106    
       250   1.2073431     -5.2488086      1.8105619     -3.4382467      0.5            1              2              1775.988      -1764.7259      11.262106    
       300   1.5062899     -5.7074069      2.25887       -3.4485369      0.33333333     1              3              2012.9581     -2002.5675      10.390619    
       350   1.2109243     -5.2625493      1.8159323     -3.4466169      0.33333333     1              3              2012.9581     -2002.5675      10.390619    
       400   1.4938055     -5.7074069      2.2401481     -3.4672588      0.25           1              4              1846.3808     -1837.9522      8.4286659    
       450   1.1979444     -5.2618385      1.7964674     -3.4653711      0.25           1              4              1846.3808     -1837.9522      8.4286659    
       500   1.5100332     -5.7074069      2.2644835     -3.4429234      0.2            1              5              1854.2211     -1843.8604      10.360726    
       550   1.2081136     -5.2525665      1.8117173     -3.4408492      0.2            1              5              1854.2211     -1843.8604      10.360726    
       600   1.493747      -5.7074069      2.2400603     -3.4673466      0.16666667     1              6              1979.8771     -1969.0933      10.783821    
       650   1.1967282     -5.2605195      1.7946435     -3.465876       0.16666667     1              6              1979.8771     -1969.0933      10.783821    
       700   1.4933626     -5.7074069      2.2394839     -3.467923       0.14285714     1              7              1893.2227     -1883.5361      9.6865753    
       750   1.2042547     -5.2719224      1.8059305     -3.4659919      0.14285714     1              7              1893.2227     -1883.5361      9.6865753    
       800   1.4993172     -5.7074069      2.2484136     -3.4589933      0.125          1              8              1905.9061     -1895.8119      10.094204    
       850   1.2093524     -5.2714733      1.8135751     -3.4578982      0.125          1              8              1905.9061     -1895.8119      10.094204    
       900   1.4758891     -5.7074069      2.2132802     -3.4941267      0.11111111     1              9              2015.9479     -2007.8562      8.0916703    
       950   1.1957302     -5.2857493      1.793147      -3.4926023      0.11111111     1              9              2015.9479     -2007.8562      8.0916703    
      1000   1.52225       -5.7074069      2.2828041     -3.4246028      0.1            1              10             1818.0811     -1808.4998      9.5813343    
      1050   1.2071134     -5.232571       1.8102175     -3.4223535      0.1            1              10             1818.0811     -1808.4998      9.5813343    
      1100   1.4756352     -5.7074069      2.2128994     -3.4945075      0.090909091    1              11             1975.0426     -1962.712       12.33053     
      1150   1.2041048     -5.2982226      1.8057057     -3.4925169      0.090909091    1              11             1975.0426     -1962.712       12.33053     
      1200   1.5178787     -5.7074069      2.2762488     -3.4311581      0.083333333    1              12             1964.9247     -1954.9772      9.9474707    
      1250   1.2146179     -5.2507373      1.8214714     -3.4292659      0.083333333    1              12             1964.9247     -1954.9772      9.9474707    
      1300   1.5109681     -5.7074069      2.2658855     -3.4415214      0.076923077    1              13             1898.4717     -1888.0053      10.466398    
      1350   1.2240971     -5.2753721      1.8356866     -3.4396855      0.076923077    1              13             1898.4717     -1888.0053      10.466398    
      1400   1.4676772     -5.7074069      2.2009654     -3.5064415      0.071428571    1              14             1957.0361     -1946.2831      10.752954    
      1450   1.1953502     -5.2973414      1.7925771     -3.5047643      0.071428571    1              14             1957.0361     -1946.2831      10.752954    
      1500   1.5220994     -5.7074069      2.2825784     -3.4248286      0.066666667    1              15             1772.8478     -1763.5954      9.2524009    
      1550   1.2229764     -5.2577875      1.834006      -3.4237815      0.066666667    1              15             1772.8478     -1763.5954      9.2524009    
      1600   1.4761823     -5.7074069      2.2137198     -3.4936871      0.0625         1              16             2001.892      -1989.9179      11.974091    
      1650   1.1908775     -5.2780822      1.7858696     -3.4922126      0.0625         1              16             2001.892      -1989.9179      11.974091    
      1700   1.4807426     -5.7074069      2.2205586     -3.4868483      0.058823529    1              17             1913.5239     -1904.2451      9.2787635    
      1750   1.1997805     -5.2841584      1.7992208     -3.4849376      0.058823529    1              17             1913.5239     -1904.2451      9.2787635    
      1800   1.5469303     -5.7074069      2.3198153     -3.3875916      0.055555556    1              18             1944.1993     -1934.5236      9.675715     
      1850   1.229907      -5.2300022      1.8443993     -3.3856029      0.055555556    1              18             1944.1993     -1934.5236      9.675715     
      1900   1.4960686     -5.7074069      2.2435418     -3.4638651      0.052631579    1              19             1983.4018     -1973.9662      9.4355689    
      1950   1.1999369     -5.2621346      1.7994554     -3.4626792      0.052631579    1              19             1983.4018     -1973.9662      9.4355689    
      2000   1.5108282     -5.7074069      2.2656757     -3.4417312      0.05           1              20             1845.2845     -1836.485       8.7995268    
      2050   1.2113666     -5.2572419      1.8165957     -3.4406462      0.05           1              20             1845.2845     -1836.485       8.7995268    
      2100   1.5069682     -5.7074069      2.2598873     -3.4475197      0.047619048    1              21             1891.7212     -1881.4277      10.293511    
      2150   1.2187993     -5.2729351      1.8277419     -3.4451932      0.047619048    1              21             1891.7212     -1881.4277      10.293511    
      2200   1.5237876     -5.7074069      2.2851099     -3.422297       0.045454545    1              22             1868.5098     -1859.6034      8.9064652    
      2250   1.2201236     -5.2503131      1.8297279     -3.4205852      0.045454545    1              22             1868.5098     -1859.6034      8.9064652    
      2300   1.4971169     -5.7074069      2.2451139     -3.4622931      0.043478261    1              23             1879.24       -1868.9975      10.242474    
      2350   1.206806      -5.2706351      1.8097565     -3.4608787      0.043478261    1              23             1879.24       -1868.9975      10.242474    
      2400   1.5206079     -5.7074069      2.2803416     -3.4270653      0.041666667    1              24             1912.5094     -1902.0055      10.503901    
      2450   1.225373      -5.2630783      1.8375999     -3.4254783      0.041666667    1              24             1912.5094     -1902.0055      10.503901    
      2500   1.5151176     -5.7074069      2.2721082     -3.4352987      0.04           1              25             1962.3755     -1953.3039      9.0715935    
      2550   1.2114184     -5.2501358      1.8166733     -3.4334624      0.04           1              25             1962.3755     -1953.3039      9.0715935    
      2600   1.4840842     -5.7074069      2.2255697     -3.4818372      0.038461538    1              26             1988.3744     -1976.4499      11.924569    
      2650   1.181211      -5.2512015      1.7713736     -3.4798279      0.038461538    1              26             1988.3744     -1976.4499      11.924569    
      2700   1.4995788     -5.7074069      2.2488058     -3.4586011      0.037037037    1              27             1915.477      -1906.1495      9.3274354    
      2750   1.2298677     -5.301258       1.8443403     -3.4569176      0.037037037    1              27             1915.477      -1906.1495      9.3274354    
      2800   1.500279      -5.7074069      2.2498559     -3.457551       0.035714286    1              28             1836.2853     -1826.5159      9.7694264    
      2850   1.209511      -5.2700036      1.813813      -3.4561906      0.035714286    1              28             1836.2853     -1826.5159      9.7694264    
      2900   1.4998946     -5.7074069      2.2492794     -3.4581275      0.034482759    1              29             1864.04       -1854.8676      9.1724088    
      2950   1.1844109     -5.2328744      1.7761723     -3.4567021      0.034482759    1              29             1864.04       -1854.8676      9.1724088    
      3000   1.5157418     -5.7074069      2.2730443     -3.4343626      0.033333333    1              30             1920.4182     -1909.2876      11.130604    
Loop time of 2.62611 on 4 procs for 3000 steps with 4000 atoms

Performance: 493505.509 tau/day, 1142.374 timesteps/s, 4.569 Matom-step/s
99.4% CPU use with 4 MPI tasks x 1 OpenMP threads

MPI task timing breakdown:
Section |  min time  |  avg time  |  max time  |%varavg| %total
---------------------------------------------------------------
Pair    | 1.5634     | 1.5961     | 1.6148     |   1.5 | 60.78
Neigh   | 0.66311    | 0.66932    | 0.68268    |   1.0 | 25.49
Comm    | 0.26814    | 0.28742    | 0.32351    |   4.1 | 10.94
Output  | 0.001284   | 0.001417   | 0.001804   |   0.6 |  0.05
Modify  | 0.048744   | 0.04889    | 0.04925    |   0.1 |  1.86
Other   |            | 0.02292    |            |       |  0.87

Nlocal:           1000 ave        1009 max         993 min
Histogram: 2 0 0 0 0 0 1 0 0 1
Nghost:        2835.25 ave        2839 max        2832 min
Histogram: 1 1 0 0 0 0 0 1 0 1
Neighs:        37665.2 ave       38621 max       36814 min
Histogram: 1 0 0 0 2 0 0 0 0 1

Total # of neighbors = 150661
Ave neighs/atom = 37.66525
Neighbor list builds = 427
Dangerous builds = 0
Total wall time: 0:00:02
