LAMMPS data file via write_data, version 27 Nov 2018, timestep = 50000

64 atoms
1 atom types

0.0000000000000000e+00 5.0000000000000000e+00 xlo xhi
0.0000000000000000e+00 5.0000000000000000e+00 ylo yhi
0.0000000000000000e+00 5.0000000000000000e+00 zlo zhi

Masses

1 1

Pair Coeffs # lj/cut

1 1 1

Atoms 

161732 1 1 1.3855705891668664e+00 1.2848921275161633e+00 1.1819871641611619e+00 0 0 0
161882 2 1 1.5889575339802342e+00 6.0927360579803291e-01 6.1492647538656665e-02 0 0 0
161756 3 1 2.3450834454712854e-01 1.3817468035881157e+00 1.8527905465349548e-02 1 0 1
161880 4 1 2.9467666791504095e+00 1.3075764809304737e+00 1.4379149984744912e+00 0 0 0
161670 5 1 2.8356152814047482e+00 1.8603456960340792e-01 6.8301132446295132e-01 0 0 0
161867 6 1 2.6680616795402310e+00 1.1126480326581041e+00 2.7548488475172084e-01 0 0 0
161863 7 1 3.7082578659561731e+00 6.8995312540324083e-01 4.2178652268917816e-02 0 0 1
161878 8 1 4.4689910716698460e+00 3.3294155510745083e-01 7.4871669092621496e-01 0 0 0
161850 9 1 3.6489566479106239e-01 2.8014381433843814e+00 7.7087586129590679e-01 0 0 0
161848 10 1 1.4462827013089707e+00 2.6733608998699863e+00 1.1766441148597020e+00 0 0 0
161876 11 1 2.4446511442980965e+00 2.2517822181115776e+00 7.0373980128380464e-01 0 0 0
161871 12 1 3.2649164145183360e+00 2.4501788096736083e+00 1.1552541843407109e+00 0 0 0
161875 13 1 2.3257133794602538e+00 3.2647685884799662e+00 9.6566658279191075e-01 0 0 0
161854 14 1 3.9406610266029185e+00 1.6898741152556025e+00 7.1425510091439603e-01 0 0 0
161678 15 1 7.6275667490565924e-01 4.6514351394266980e+00 6.7038834452181506e-01 0 -1 1
161841 16 1 4.5818170926448976e-01 3.6599876082781644e+00 4.1173233111003971e-01 0 0 0
161847 17 1 1.4504644528266344e+00 4.9560586572420124e+00 1.4778522665043605e+00 0 -1 0
161836 18 1 2.1634627306663727e+00 4.3181143097198174e+00 5.4720346096307204e-01 0 0 1
161845 19 1 3.2359261895697218e+00 4.2114680983179573e+00 1.1443284298965373e+00 0 0 0
161807 20 1 3.5978098202486568e+00 3.3896489191752153e+00 8.2938457784679742e-01 0 0 1
161859 21 1 4.4162319700309229e+00 3.6107203097132592e+00 1.3762453507521404e+00 0 0 0
161840 22 1 3.9245545807874551e+00 4.9888392947562217e+00 1.4220269678263120e+00 -1 0 0
161872 23 1 4.4536432500247116e+00 4.3821031653238940e+00 7.8995986878398483e-03 0 -1 1
161877 24 1 4.5602042645030680e+00 3.3530735030551782e+00 1.0636584838217396e-01 0 0 0
161868 25 1 1.5571270215125415e+00 6.3385056128439055e-01 3.1263835067517980e+00 0 0 0
161811 26 1 1.1096905246887778e+00 5.6864844428778083e-01 2.2744031447332365e+00 0 0 0
161695 27 1 6.9572776029618844e-01 9.6467298034794702e-02 3.3258780708191340e+00 0 1 0
161810 28 1 9.6416080415442806e-02 4.6506354234417147e-01 2.3229561784877237e+00 1 0 0
161813 29 1 3.7595087027919982e-01 1.6062767825118627e+00 2.6938836768706720e+00 1 0 0
161830 30 1 2.6790669419239590e+00 1.0780929159736694e+00 2.5076387694606734e+00 0 0 0
161869 31 1 1.8183871390383632e+00 1.6326458177681293e+00 2.8782592289514177e+00 0 0 0
161795 32 1 4.8689429624327207e+00 1.3243696067130053e+00 1.6799800254776973e+00 0 0 0
161633 33 1 2.7710016550361150e-01 3.2224816192046197e+00 2.2485739720280162e+00 0 0 0
161879 34 1 1.8365527916869859e+00 2.9427698831738764e+00 3.1334265033404467e+00 0 0 0
161661 35 1 2.2835133174823192e+00 3.0083269253411919e+00 1.9506342094161702e+00 0 0 0
161760 36 1 3.0914038923063334e+00 2.2252179925447413e+00 2.2388006994681438e+00 0 0 0
161874 37 1 3.5733172081286635e+00 1.7423170184447976e+00 3.1221290017115555e+00 0 0 0
161802 38 1 4.5805980868547218e+00 2.1120457673035773e+00 3.1532110712273096e+00 0 0 0
161883 39 1 3.9549994952767156e+00 1.6765171157552474e+00 2.2231644984442576e+00 0 0 0
161860 40 1 6.9514580615570054e-01 4.3155640588680120e+00 1.6851373946690642e+00 1 -1 0
161788 41 1 1.1691606501905065e+00 4.0830477518416233e+00 2.7835652021614674e+00 0 -1 0
161855 42 1 2.2835179335826625e+00 4.0859097238098778e+00 1.8847280726231299e+00 0 0 0
161856 43 1 2.0988260545296717e+00 4.9694984801902891e+00 2.3609565581944567e+00 0 0 0
161865 44 1 2.6449567548208672e+00 3.7881782743093457e+00 2.9122563171723188e+00 0 0 0
161771 45 1 3.5254071743811508e+00 4.5183798240117632e+00 2.4097021657087376e+00 0 -1 0
161735 46 1 4.9890042720311349e+00 4.1948000272711727e+00 3.0040583466198569e+00 0 0 0
161838 47 1 3.8422621413330833e+00 3.8998093851375435e+00 3.0963360066974235e+00 0 0 0
161822 48 1 1.1447753231715296e+00 1.2388565438980499e+00 4.4619332945262693e+00 0 0 0
161827 49 1 7.7585157508769598e-02 9.7374224987520941e-01 3.6859936526445645e+00 1 0 -1
161824 50 1 2.8182303099046604e+00 9.9681856762469678e-01 3.5296660682790284e+00 0 0 0
161857 51 1 2.2263064446050240e+00 5.3241447663512764e-01 4.2901088065887381e+00 0 0 0
161851 52 1 4.1045647510814316e+00 1.4197714256214775e+00 4.0983504201743521e+00 0 0 0
161685 53 1 6.6876033631561338e-01 2.8549724565143570e+00 3.5220766367959202e+00 1 0 0
161638 54 1 6.6676453997695972e-01 3.3116233927717538e+00 4.4543623148716813e+00 1 -1 -1
161866 55 1 1.3624340232286762e+00 2.4286284043586948e+00 4.9575920565787666e+00 0 0 -1
161844 56 1 3.1811073041433038e+00 2.8704607365049704e+00 4.8335984390385454e+00 0 0 0
161846 57 1 2.1949737864523069e+00 2.9244289039282263e+00 4.8765883216991037e+00 0 0 0
161870 58 1 2.5685574717673276e+00 1.7454279934733303e+00 4.4082863062658753e+00 0 0 0
161744 59 1 4.5021942204340331e+00 2.3782628347995987e+00 4.4634644768496345e+00 -1 0 -1
161825 60 1 1.3276817073708780e+00 4.3464557823475705e+00 3.8823339156258543e+00 0 -1 0
161605 61 1 2.3761588290222733e+00 4.1014393773402267e+00 3.8916149571964587e+00 0 0 -1
161862 62 1 3.2817128045864923e+00 4.7471066851853898e+00 3.6220579108326043e+00 0 -1 0
161864 63 1 2.9061580881970741e+00 3.7989883282217143e+00 4.5968324223518522e+00 0 0 0
161881 64 1 4.5396799228804561e+00 3.4004638518208936e+00 3.5959575537573349e+00 -1 0 0

Velocities

161732 -3.5012510992863521e-01 5.8769810382967476e-02 2.6078155218408243e+00
161882 1.3462085443131624e-01 -1.3602017195574274e+00 -3.6912601908801718e-01
161756 2.1498566104466738e-01 1.6045733548677724e-01 -8.7098848328153608e-02
161880 8.6906817352015353e-01 9.4621812939296213e-01 -4.7016821319232682e-01
161670 1.8974148344237282e-01 -3.1797593183495687e-01 1.7406302993839213e+00
161867 -1.5387230427714587e+00 2.4796151925284196e-01 -1.4570409069080134e-01
161863 -8.2641817388715635e-02 1.3099776286482367e+00 -1.6700936493417637e-01
161878 4.5991507803498810e-01 1.8319816702638667e+00 -1.1263742048232828e+00
161850 2.6169308443061984e-01 2.9658402172657525e+00 -1.1356710474566216e+00
161848 1.8529384412576491e-01 -2.0836168559090180e+00 1.1398698986032310e+00
161876 -1.2946777157496931e+00 6.6612088628130506e-01 2.9223524576198598e+00
161871 -1.0093234444387424e+00 -3.2913148283003495e+00 1.0925131264887335e-01
161875 1.4357386478554885e+00 -5.6183910618288724e-01 -2.9060709135059482e-01
161854 2.7890200929963110e-01 -2.7819833689318263e-01 5.1353912751141439e-01
161678 5.2394013833841635e-01 3.8883876168284831e-01 1.3553961453988439e+00
161841 -1.8575667829867064e+00 -3.5182835660333206e-01 1.2841233290140777e+00
161847 -9.2403733725356513e-02 1.9859304749133473e+00 2.3631874215309168e+00
161836 -8.0875326990999186e-01 3.0734431730618611e-01 -6.0396895753838131e-01
161845 -3.9722058876154515e-01 -1.0965350197127689e-01 1.6271783558368651e-03
161807 -6.8811440958041800e-02 2.7406768233507002e+00 -1.2615433134644385e-01
161859 1.7350227560265334e+00 7.6146540871953150e-01 -4.9113698500859787e-01
161840 1.4657013812376720e+00 1.2199537028842955e+00 2.9677709850544870e-01
161872 2.4116662582691015e+00 7.1469106962259929e-02 -9.8365013618494285e-02
161877 3.4974442892760599e-01 -1.7418278858855683e+00 1.8994579021665525e-01
161868 -1.5381095357666241e+00 -2.4583369156647326e+00 1.4407700374738148e+00
161811 -1.1673911468362939e+00 -9.9649372805995606e-01 -9.2789226302400413e-02
161695 -3.1131670413466167e-01 -1.1947945366015909e-01 -1.1207263535768497e+00
161810 1.6592386593915917e-01 1.3512984827550134e-01 1.4252741216866791e+00
161813 1.0081223716852994e+00 -3.7620313949016402e+00 2.9557437349638773e+00
161830 5.4185340078543209e-01 -1.1469741016703292e+00 -4.0687350687756174e-01
161869 8.1624207148996486e-02 -1.1024742009790687e+00 3.0493297851754250e-02
161795 -1.5298091731869132e+00 1.5706221100057038e+00 -1.0536723120547684e+00
161633 -1.2339795924179258e+00 -1.1519868852799950e+00 8.4903610659617212e-01
161879 -3.3542771365952094e-02 8.9786549647792546e-01 8.7076432465965481e-01
161661 9.2183240398290200e-01 -1.8808858017141816e+00 -2.2754579979996987e-02
161760 -4.9082007271825645e-01 -4.7005479856686361e-01 -1.8214686278513164e+00
161874 -2.3256263763904483e+00 4.9615316532507997e-01 -9.3876294882713684e-01
161802 1.4386212344906555e+00 6.1763767589976182e-01 6.7993370843526058e-01
161883 2.6583615873199795e-01 -2.6588717132688333e+00 -2.3129727838048297e-02
161860 -3.1477430949775308e-02 4.4332016137561242e-01 1.1051163335266059e+00
161788 -4.9868602314170857e-01 9.3863504251301411e-01 -7.0515752310687510e-03
161855 1.1290334456903539e+00 1.5314566461609682e+00 1.5303187511299072e+00
161856 1.5537815229111618e+00 6.4442547615328316e-01 5.9282823957221942e-01
161865 -2.9993568384011748e+00 -1.9013285227147330e+00 1.2182481932451945e+00
161771 3.1285308345328913e+00 4.9560315767826241e-01 -1.8309680950749856e+00
161735 5.1873551013387698e-01 -2.3023423332769849e-01 3.7208319955574689e+00
161838 -1.3955783119441327e+00 2.0107049393073360e+00 -2.1711232982309419e+00
161822 -3.5079031741109117e+00 -1.0652854463421622e+00 -3.4021094795714957e+00
161827 -2.2909695420396720e-01 -3.0708244635972837e-01 2.9428520562080607e+00
161824 4.3017159666610620e+00 -2.5209325816965178e+00 -1.6017318107353924e+00
161857 -1.3595364135385338e-01 -5.0783381105191960e-01 -1.2311397859301582e-01
161851 -3.2377242922762522e-01 -2.5925780247793320e+00 -7.6610803166534491e-01
161685 2.5765407237126570e-01 -1.7019831773024769e+00 -9.4001231045237421e-01
161638 -9.2302913757999219e-02 1.8364677147179684e+00 -2.4263039995740157e-01
161866 -8.3780829292138248e-01 3.2643168418944096e-01 1.4458137038128083e+00
161844 2.2754627575698336e+00 -3.3104891441106082e-01 4.4048618371968840e-01
161846 2.2217776025011995e-01 -1.0846964048286591e+00 -1.1807954972741100e-01
161870 -2.1995489992047329e-01 -8.3809483209356073e-01 -1.8868819555705749e+00
161744 9.7155231907045358e-01 -1.4479890306319385e+00 -9.4199842641229138e-03
161825 1.7401162702078052e+00 -6.1241034401647554e-01 -3.6014219438935685e-01
161605 3.7570840149892271e-01 -2.9992562042521991e+00 6.4501925147734673e-01
161862 -2.3175279502892785e+00 -2.0334148870394899e+00 -3.2575521830867993e-01
161864 9.2542273464663838e-01 -1.1528630651069722e+00 2.8754323426967558e+00
161881 -2.0794163282719418e+00 -2.0485393120754889e+00 1.7369693970196707e+00
