vesicle with diameter =    30.000000
    2938 atoms
    2938 ellipsoids

2 atom types

  -35.000000    35.000000 xlo xhi
  -35.000000    35.000000 ylo yhi
  -35.000000    35.000000 zlo zhi


Atoms

       1      1        1     0.236369      0.008147     0.007400    15.002449
       2      1        1     0.236369      0.009058     0.008176   -14.997137
       3      1        1     0.236369      0.982317     0.006003    14.977515
       4      1        1     0.236369      0.499657     0.850462    14.970191
       5      1        1     0.236369     -0.484200     0.858835    14.973257
       6      1        1     0.236369     -0.980072     0.000536    14.969934
       7      1        1     0.236369     -0.487738    -0.844341    14.972224
       8      1        1     0.236369      0.495992    -0.848423    14.969306
       9      1        1     0.236369      1.967468     0.003801    14.875429
      10      1        1     0.236369      1.743277     0.918007    14.879609
      11      1        1     0.236369      1.113786     1.613755    14.879801
      12      1        1     0.236369      0.245704     1.952462    14.880711
      13      1        1     0.236369     -0.684707     1.837788    14.877077
      14      1        1     0.236369     -1.460650     1.302105    14.879852
      15      1        1     0.236369     -1.892997     0.471044    14.878757
      16      1        1     0.236369     -1.899581    -0.466026    14.872105
      17      1        1     0.236369     -1.461286    -1.290651    14.873132
      18      1        1     0.236369     -0.685121    -1.830163    14.874006
      19      1        1     0.236369      0.243920    -1.936765    14.874140
      20      1        1     0.236369      1.121805    -1.605111    14.873376
      21      1        1     0.236369      1.740185    -0.902411    14.874023
      22      1        1     0.236369      2.926712     0.009773    14.714534
      23      1        1     0.236369      2.776288     0.954025    14.721295
      24      1        1     0.236369      2.318645     1.800006    14.715246
      25      1        1     0.236369      1.607352     2.458621    14.714752
      26      1        1     0.236369      0.725955     2.844870    14.715823
      27      1        1     0.236369     -0.234225     2.920971    14.714802
      28      1        1     0.236369     -1.171581     2.680787    14.719352
      29      1        1     0.236369     -1.975411     2.158632    14.715377
      30      1        1     0.236369     -2.571940     1.394665    14.713028
      31      1        1     0.236369     -2.879383     0.486979    14.717951
      32      1        1     0.236369     -2.886125    -0.478112    14.715334
      33      1        1     0.236369     -2.570883    -1.389643    14.715409
      34      1        1     0.236369     -1.981504    -2.145722    14.712464
      35      1        1     0.236369     -1.174532    -2.674720    14.720451
      36      1        1     0.236369     -0.233422    -2.908453    14.716358
      37      1        1     0.236369      0.725326    -2.834764    14.712555
      38      1        1     0.236369      1.603735    -2.443065    14.720828
      39      1        1     0.236369      2.318807    -1.796879    14.714596
      40      1        1     0.236369      2.768141    -0.942174    14.717918
      41      1        1     0.236369      3.886673     0.006786    14.495506
      42      1        1     0.236369      3.764132     0.974945    14.490888
      43      1        1     0.236369      3.409728     1.871221    14.498487
      44      1        1     0.236369      2.838016     2.666692    14.495538
      45      1        1     0.236369      2.082101     3.283022    14.494300
      46      1        1     0.236369      1.204590     3.698422    14.497577
      47      1        1     0.236369      0.248227     3.877786    14.494458
      48      1        1     0.236369     -0.721005     3.814295    14.489101
      49      1        1     0.236369     -1.645903     3.521303    14.493714
      50      1        1     0.236369     -2.467115     2.992798    14.496967
      51      1        1     0.236369     -3.138075     2.285655    14.496247
      52      1        1     0.236369     -3.602861     1.435389    14.494610
      53      1        1     0.236369     -3.845122     0.496555    14.488977
      54      1        1     0.236369     -3.850047    -0.481406    14.496070
      55      1        1     0.236369     -3.608468    -1.419260    14.493382
      56      1        1     0.236369     -3.135851    -2.279685    14.495484
      57      1        1     0.236369     -2.465065    -2.987372    14.496419
      58      1        1     0.236369     -1.649593    -3.505831    14.496935
      59      1        1     0.236369     -0.721615    -3.812873    14.489179
      60      1        1     0.236369      0.246009    -3.867148    14.496686
      61      1        1     0.236369      1.207205    -3.688069    14.494561
      62      1        1     0.236369      2.082784    -3.269809    14.489649
      63      1        1     0.236369      2.835124    -2.653811    14.491404
      64      1        1     0.236369      3.409064    -1.867115    14.490222
      65      1        1     0.236369      3.769226    -0.955625    14.494532
      66      1        1     0.236369      4.831185     0.007182    14.209362
      67      1        1     0.236369      4.728366     0.974711    14.204641
      68      1        1     0.236369      4.432226     1.902409    14.213836
      69      1        1     0.236369      3.958879     2.761768    14.206463
      70      1        1     0.236369      3.324492     3.501028    14.207107
      71      1        1     0.236369      2.558856     4.092555    14.206959
      72      1        1     0.236369      1.677107     4.522663    14.204372
      73      1        1     0.236369      0.738266     4.775807    14.209231
      74      1        1     0.236369     -0.241774     4.820371    14.206512
      75      1        1     0.236369     -1.199252     4.667897    14.208039
      76      1        1     0.236369     -2.119901     4.329385    14.213427
      77      1        1     0.236369     -2.949359     3.814207    14.213145
      78      1        1     0.236369     -3.655911     3.149587    14.205164
      79      1        1     0.236369     -4.209582     2.344586    14.209871
      80      1        1     0.236369     -4.595737     1.449015    14.207548
      81      1        1     0.236369     -4.793337     0.492737    14.211145
      82      1        1     0.236369     -4.788546    -0.487115    14.209187
      83      1        1     0.236369     -4.594618    -1.434430    14.206560
      84      1        1     0.236369     -4.210245    -2.337042    14.208883
      85      1        1     0.236369     -3.649250    -3.137962    14.212510
      86      1        1     0.236369     -2.948467    -3.806856    14.211196
      87      1        1     0.236369     -2.115829    -4.324088    14.205943
      88      1        1     0.236369     -1.201007    -4.663990    14.205525
      89      1        1     0.236369     -0.240405    -4.808847    14.207657
      90      1        1     0.236369      0.735801    -4.756609    14.212575
      91      1        1     0.236369      1.675323    -4.515254    14.210800
      92      1        1     0.236369      2.550988    -4.088988    14.210294
      93      1        1     0.236369      3.327225    -3.492603    14.205365
      94      1        1     0.236369      3.965178    -2.750031    14.204745
      95      1        1     0.236369      4.440180    -1.901151    14.212713
      96      1        1     0.236369      4.724193    -0.961817    14.208156
      97      1        1     0.236369      5.745940     0.006101    13.863070
      98      1        1     0.236369      5.662377     0.972143    13.862796
      99      1        1     0.236369      5.412473     1.917505    13.863350
     100      1        1     0.236369      5.014692     2.800030    13.860913
     101      1        1     0.236369      4.467743     3.614763    13.860509
     102      1        1     0.236369      3.800382     4.313477    13.867188
     103      1        1     0.236369      3.012768     4.893471    13.867280
     104      1        1     0.236369      2.145575     5.331985    13.864229
     105      1        1     0.236369      1.211008     5.618217    13.861845
     106      1        1     0.236369      0.249643     5.738793    13.864179
     107      1        1     0.236369     -0.726485     5.694540    13.864878
     108      1        1     0.236369     -1.674336     5.493201    13.867139
     109      1        1     0.236369     -2.577391     5.126097    13.859066
     110      1        1     0.236369     -3.405862     4.622528    13.863583
     111      1        1     0.236369     -4.139704     3.972283    13.862477
     112      1        1     0.236369     -4.755016     3.223939    13.864365
     113      1        1     0.236369     -5.228391     2.371840    13.863782
     114      1        1     0.236369     -5.545897     1.455792    13.860451
     115      1        1     0.236369     -5.718048     0.491941    13.859238
     116      1        1     0.236369     -5.711314    -0.484398    13.858293
     117      1        1     0.236369     -5.549647    -1.443818    13.858785
     118      1        1     0.236369     -5.220719    -2.356827    13.861420
     119      1        1     0.236369     -4.755072    -3.204463    13.865988
     120      1        1     0.236369     -4.139783    -3.968336    13.861548
     121      1        1     0.236369     -3.412277    -4.607617    13.864389
     122      1        1     0.236369     -2.574664    -5.124518    13.868122
     123      1        1     0.236369     -1.680830    -5.482667    13.864673
     124      1        1     0.236369     -0.721365    -5.689452    13.863591
     125      1        1     0.236369      0.251796    -5.727772    13.860516
     126      1        1     0.236369      1.218039    -5.608801    13.865591
     127      1        1     0.236369      2.141134    -5.325368    13.867083
     128      1        1     0.236369      3.013653    -4.883482    13.866791
     129      1        1     0.236369      3.795038    -4.302647    13.864164
     130      1        1     0.236369      4.474122    -3.604820    13.864741
     131      1        1     0.236369      5.015635    -2.794963    13.867343
     132      1        1     0.236369      5.421460    -1.905784    13.862525
     133      1        1     0.236369      5.659502    -0.961837    13.861091
     134      1        1     0.236369      6.636968     0.003081    13.459410
     135      1        1     0.236369      6.565086     0.969990    13.456045
     136      1        1     0.236369      6.354399     1.920187    13.459311
     137      1        1     0.236369      6.015736     2.822992    13.453566
     138      1        1     0.236369      5.538814     3.663028    13.463037
     139      1        1     0.236369      4.946563     4.434812    13.455159
     140      1        1     0.236369      4.245252     5.102368    13.459165
     141      1        1     0.236369      3.464621     5.665793    13.456567
     142      1        1     0.236369      2.600938     6.105942    13.460268
     143      1        1     0.236369      1.681553     6.422354    13.453371
     144      1        1     0.236369      0.730737     6.598900    13.453760
     145      1        1     0.236369     -0.238281     6.632947    13.462362
     146      1        1     0.236369     -1.204279     6.526881    13.453969
     147      1        1     0.236369     -2.139696     6.281419    13.456415
     148      1        1     0.236369     -3.032263     5.909556    13.458353
     149      1        1     0.236369     -3.858405     5.404235    13.455558
     150      1        1     0.236369     -4.602318     4.780050    13.458520
     151      1        1     0.236369     -5.246877     4.059523    13.460900
     152      1        1     0.236369     -5.784967     3.252610    13.458310
     153      1        1     0.236369     -6.187544     2.374884    13.462411
     154      1        1     0.236369     -6.466162     1.445202    13.454562
     155      1        1     0.236369     -6.611723     0.494172    13.457259
     156      1        1     0.236369     -6.611739    -0.482438    13.455894
     157      1        1     0.236369     -6.472233    -1.433887    13.459072
     158      1        1     0.236369     -6.187571    -2.369661    13.453456
     159      1        1     0.236369     -5.781771    -3.243640    13.453728
     160      1        1     0.236369     -5.249937    -4.047241    13.456320
     161      1        1     0.236369     -4.596915    -4.769634    13.454075
     162      1        1     0.236369     -3.856347    -5.393940    13.454792
     163      1        1     0.236369     -3.031080    -5.890668    13.456803
     164      1        1     0.236369     -2.138056    -6.273561    13.453489
     165      1        1     0.236369     -1.204074    -6.521459    13.460184
     166      1        1     0.236369     -0.240979    -6.624119    13.459505
     167      1        1     0.236369      0.735025    -6.585376    13.454832
     168      1        1     0.236369      1.687605    -6.409650    13.453713
     169      1        1     0.236369      2.600470    -6.101056    13.457158
     170      1        1     0.236369      3.456688    -5.658591    13.457722
     171      1        1     0.236369      4.246150    -5.096342    13.455118
     172      1        1     0.236369      4.944596    -4.426660    13.461787
     173      1        1     0.236369      5.541229    -3.653072    13.459071
     174      1        1     0.236369      6.007197    -2.814666    13.453321
     175      1        1     0.236369      6.353469    -1.907785    13.462085
     176      1        1     0.236369      6.565321    -0.962008    13.457621
     177      1        1     0.236369      7.506491     0.008855    12.990961
     178      1        1     0.236369      7.443154     0.979159    12.991444
     179      1        1     0.236369      7.250921     1.949584    13.000365
     180      1        1     0.236369      6.933606     2.873006    12.999044
     181      1        1     0.236369      6.500661     3.752503    12.996533
     182      1        1     0.236369      5.953113     4.570595    12.990651
     183      1        1     0.236369      5.310748     5.310591    12.993606
     184      1        1     0.236369      4.567600     5.952176    12.995019
     185      1        1     0.236369      3.756868     6.497353    12.991371
     186      1        1     0.236369      2.871961     6.938860    12.996091
     187      1        1     0.236369      1.944828     7.250376    12.993640
     188      1        1     0.236369      0.985203     7.438880    12.994886
     189      1        1     0.236369      0.007802     7.509677    12.996159
     190      1        1     0.236369     -0.978135     7.444796    12.991129
     191      1        1     0.236369     -1.931849     7.246344    12.990954
     192      1        1     0.236369     -2.862369     6.929114    12.993391
     193      1        1     0.236369     -3.745132     6.502308    12.995598
     194      1        1     0.236369     -4.561352     5.958827    12.996000
     195      1        1     0.236369     -5.298833     5.304484    12.992797
     196      1        1     0.236369     -5.947087     4.566101    12.999508
     197      1        1     0.236369     -6.490105     3.755982    12.998638
     198      1        1     0.236369     -6.923989     2.876169    12.994827
     199      1        1     0.236369     -7.236267     1.946307    13.000202
     200      1        1     0.236369     -7.427888     0.979022    12.996164
     201      1        1     0.236369     -7.493557     0.006889    12.992725
     202      1        1     0.236369     -7.432050    -0.969486    12.998487
     203      1        1     0.236369     -7.236328    -1.932407    12.994894
     204      1        1     0.236369     -6.923768    -2.868993    12.992881
     205      1        1     0.236369     -6.491683    -3.746454    12.999935
     206      1        1     0.236369     -5.940760    -4.563291    12.991808
     207      1        1     0.236369     -5.294541    -5.297698    12.995507
     208      1        1     0.236369     -4.560209    -5.944023    13.000100
     209      1        1     0.236369     -3.743775    -6.492182    12.996864
     210      1        1     0.236369     -2.864255    -6.921115    12.996528
     211      1        1     0.236369     -1.939065    -7.236487    12.995078
     212      1        1     0.236369     -0.975934    -7.428026    12.996159
     213      1        1     0.236369      0.004709    -7.496489    12.999494
     214      1        1     0.236369      0.981251    -7.435293    12.994143
     215      1        1     0.236369      1.949586    -7.237357    12.992669
     216      1        1     0.236369      2.872073    -6.919167    12.994616
     217      1        1     0.236369      3.752259    -6.493566    12.993117
     218      1        1     0.236369      4.567418    -5.949014    12.994827
     219      1        1     0.236369      5.305578    -5.294172    12.996656
     220      1        1     0.236369      5.954507    -4.560894    12.995727
     221      1        1     0.236369      6.498302    -3.741482    12.994235
     222      1        1     0.236369      6.938330    -2.862027    12.999116
     223      1        1     0.236369      7.248746    -1.939275    12.993385
     224      1        1     0.236369      7.437685    -0.976474    12.994381
     225      1        1     0.236369      8.342602     0.000542    12.477221
     226      1        1     0.236369      8.284859     0.991725    12.472662
     227      1        1     0.236369      8.104794     1.965208    12.474358
     228      1        1     0.236369      7.813148     2.906868    12.473229
     229      1        1     0.236369      7.416586     3.805622    12.473032
     230      1        1     0.236369      6.915984     4.665417    12.480947
     231      1        1     0.236369      6.318709     5.445337    12.472378
     232      1        1     0.236369      5.627629     6.152093    12.480435
     233      1        1     0.236369      4.864319     6.772642    12.477117
     234      1        1     0.236369      4.030487     7.304240    12.473181
     235      1        1     0.236369      3.134197     7.728369    12.476949
     236      1        1     0.236369      2.197792     8.046352    12.478039
     237      1        1     0.236369      1.233387     8.243754    12.472946
     238      1        1     0.236369      0.250139     8.333462    12.481826
     239      1        1     0.236369     -0.735744     8.302074    12.478574
     240      1        1     0.236369     -1.711455     8.163359    12.476656
     241      1        1     0.236369     -2.668131     7.897974    12.480682
     242      1        1     0.236369     -3.581347     7.526266    12.474672
     243      1        1     0.236369     -4.440636     7.046880    12.480284
     244      1        1     0.236369     -5.250579     6.479222    12.475334
     245      1        1     0.236369     -5.970097     5.809719    12.481457
     246      1        1     0.236369     -6.616659     5.062180    12.474485
     247      1        1     0.236369     -7.170667     4.246580    12.481615
     248      1        1     0.236369     -7.620630     3.366679    12.477152
     249      1        1     0.236369     -7.967846     2.440552    12.477690
     250      1        1     0.236369     -8.197550     1.475913    12.481981
     251      1        1     0.236369     -8.309287     0.499190    12.479754
     252      1        1     0.236369     -8.313449    -0.484086    12.475182
     253      1        1     0.236369     -8.196927    -1.468164    12.472623
     254      1        1     0.236369     -7.967903    -2.425785    12.472485
     255      1        1     0.236369     -7.621526    -3.349605    12.480174
     256      1        1     0.236369     -7.169312    -4.229012    12.476165
     257      1        1     0.236369     -6.617171    -5.054663    12.475886
     258      1        1     0.236369     -5.975430    -5.804399    12.477275
     259      1        1     0.236369     -5.247196    -6.466692    12.480966
     260      1        1     0.236369     -4.438766    -7.046682    12.476103
     261      1        1     0.236369     -3.583594    -7.518777    12.478088
     262      1        1     0.236369     -2.660134    -7.885083    12.472992
     263      1        1     0.236369     -1.707401    -8.152363    12.475404
     264      1        1     0.236369     -0.732024    -8.296770    12.473493
     265      1        1     0.236369      0.247938    -8.325579    12.474493
     266      1        1     0.236369      1.233039    -8.233910    12.475834
     267      1        1     0.236369      2.199971    -8.030596    12.474747
     268      1        1     0.236369      3.138777    -7.718087    12.474200
     269      1        1     0.236369      4.024740    -7.294178    12.478381
     270      1        1     0.236369      4.865503    -6.761644    12.480041
     271      1        1     0.236369      5.626075    -6.141365    12.474129
     272      1        1     0.236369      6.319298    -5.432952    12.481007
     273      1        1     0.236369      6.916838    -4.646044    12.479501
     274      1        1     0.236369      7.421795    -3.800243    12.477408
     275      1        1     0.236369      7.819187    -2.893838    12.481744
     276      1        1     0.236369      8.109442    -1.952914    12.477693
     277      1        1     0.236369      8.283970    -0.977144    12.474221
     278      1        1     0.236369      9.134763     0.003904    11.908878
     279      1        1     0.236369      9.086678     0.977994    11.908920
     280      1        1     0.236369      8.927060     1.939988    11.903433
     281      1        1     0.236369      8.669655     2.873200    11.903570
     282      1        1     0.236369      8.322831     3.777514    11.908700
     283      1        1     0.236369      7.872214     4.637782    11.905225
     284      1        1     0.236369      7.334697     5.448916    11.900819
     285      1        1     0.236369      6.718580     6.195060    11.908080
     286      1        1     0.236369      6.019244     6.875793    11.904567
     287      1        1     0.236369      5.254803     7.475567    11.903100
     288      1        1     0.236369      4.433233     7.991251    11.903635
     289      1        1     0.236369      3.558572     8.421059    11.903970
     290      1        1     0.236369      2.641935     8.747941    11.908248
     291      1        1     0.236369      1.693779     8.978514    11.900687
     292      1        1     0.236369      0.730960     9.110054    11.907567
     293      1        1     0.236369     -0.234218     9.129388    11.909027
     294      1        1     0.236369     -1.211686     9.056889    11.903158
     295      1        1     0.236369     -2.162231     8.874002    11.906869
     296      1        1     0.236369     -3.096054     8.593277    11.902619
     297      1        1     0.236369     -3.983451     8.217744    11.906520
     298      1        1     0.236369     -4.836370     7.749660    11.901051
     299      1        1     0.236369     -5.633873     7.184319    11.909968
     300      1        1     0.236369     -6.365657     6.548993    11.906400
     301      1        1     0.236369     -7.029082     5.837095    11.904137
     302      1        1     0.236369     -7.602521     5.049842    11.900606
     303      1        1     0.236369     -8.102361     4.213413    11.908876
     304      1        1     0.236369     -8.503709     3.330269    11.906336
     305      1        1     0.236369     -8.804485     2.411399    11.908779
     306      1        1     0.236369     -9.014196     1.457490    11.905346
     307      1        1     0.236369     -9.110298     0.488764    11.900379
     308      1        1     0.236369     -9.110304    -0.480655    11.909491
     309      1        1     0.236369     -9.007939    -1.446733    11.904407
     310      1        1     0.236369     -8.808203    -2.398372    11.907624
     311      1        1     0.236369     -8.497827    -3.325156    11.901811
     312      1        1     0.236369     -8.097600    -4.203402    11.908452
     313      1        1     0.236369     -7.599611    -5.042783    11.909396
     314      1        1     0.236369     -7.023189    -5.824264    11.908080
     315      1        1     0.236369     -6.362364    -6.541619    11.907871
     316      1        1     0.236369     -5.634340    -7.178748    11.904352
     317      1        1     0.236369     -4.839173    -7.738678    11.907319
     318      1        1     0.236369     -3.984984    -8.209963    11.905955
     319      1        1     0.236369     -3.096898    -8.581793    11.906147
     320      1        1     0.236369     -2.165798    -8.866601    11.903749
     321      1        1     0.236369     -1.210239    -9.050098    11.907342
     322      1        1     0.236369     -0.239174    -9.124435    11.901909
     323      1        1     0.236369      0.736874    -9.094561    11.900315
     324      1        1     0.236369      1.699983    -8.971650    11.905920
     325      1        1     0.236369      2.636773    -8.733502    11.905765
     326      1        1     0.236369      3.554510    -8.409696    11.905808
     327      1        1     0.236369      4.429907    -7.984533    11.907245
     328      1        1     0.236369      5.252794    -7.470225    11.909575
     329      1        1     0.236369      6.019714    -6.864369    11.909742
     330      1        1     0.236369      6.715812    -6.193252    11.909333
     331      1        1     0.236369      7.332818    -5.436181    11.906341
     332      1        1     0.236369      7.871530    -4.634128    11.909562
     333      1        1     0.236369      8.315545    -3.770350    11.901470
     334      1        1     0.236369      8.679190    -2.861096    11.903708
     335      1        1     0.236369      8.926754    -1.928812    11.900667
     336      1        1     0.236369      9.080752    -0.965490    11.905684
     337      1        1     0.236369      9.893911     0.007213    11.284969
     338      1        1     0.236369      9.843022     0.994033    11.279409
     339      1        1     0.236369      9.698986     1.967023    11.281860
     340      1        1     0.236369      9.454189     2.922682    11.278579
     341      1        1     0.236369      9.123089     3.845766    11.280629
     342      1        1     0.236369      8.694979     4.732416    11.285398
     343      1        1     0.236369      8.172183     5.576549    11.282967
     344      1        1     0.236369      7.583702     6.359481    11.285288
     345      1        1     0.236369      6.908384     7.088481    11.283987
     346      1        1     0.236369      6.170659     7.739089    11.286529
     347      1        1     0.236369      5.371363     8.316176    11.278204
     348      1        1     0.236369      4.521436     8.808938    11.279355
     349      1        1     0.236369      3.617469     9.211207    11.281760
     350      1        1     0.236369      2.688493     9.523629    11.284995
     351      1        1     0.236369      1.720428     9.746809    11.286527
     352      1        1     0.236369      0.746106     9.872401    11.277856
     353      1        1     0.236369     -0.239906     9.894813    11.278973
     354      1        1     0.236369     -1.224391     9.821727    11.281838
     355      1        1     0.236369     -2.193793     9.649280    11.285243
     356      1        1     0.236369     -3.143227     9.381132    11.282841
     357      1        1     0.236369     -4.065925     9.022492    11.285142
     358      1        1     0.236369     -4.943813     8.570121    11.279295
     359      1        1     0.236369     -5.763343     8.038870    11.284324
     360      1        1     0.236369     -6.542486     7.416157    11.283784
     361      1        1     0.236369     -7.249694     6.736721    11.277666
     362      1        1     0.236369     -7.878178     5.972726    11.284999
     363      1        1     0.236369     -8.430388     5.162562    11.287514
     364      1        1     0.236369     -8.904059     4.295221    11.278879
     365      1        1     0.236369     -9.291832     3.383714    11.281203
     366      1        1     0.236369     -9.580667     2.447719    11.279508
     367      1        1     0.236369     -9.775115     1.480193    11.284741
     368      1        1     0.236369     -9.868077     0.500815    11.279376
     369      1        1     0.236369     -9.876329    -0.487319    11.287466
     370      1        1     0.236369     -9.771167    -1.465943    11.277767
     371      1        1     0.236369     -9.577908    -2.434709    11.277995
     372      1        1     0.236369     -9.289973    -3.373203    11.285640
     373      1        1     0.236369     -8.908842    -4.282477    11.286195
     374      1        1     0.236369     -8.434924    -5.152016    11.283260
     375      1        1     0.236369     -7.878970    -5.963850    11.285138
     376      1        1     0.236369     -7.248814    -6.722305    11.282792
     377      1        1     0.236369     -6.538302    -7.407188    11.283456
     378      1        1     0.236369     -5.771072    -8.026994    11.279504
     379      1        1     0.236369     -4.941247    -8.555392    11.282632
     380      1        1     0.236369     -4.061877    -9.012181    11.278106
     381      1        1     0.236369     -3.147375    -9.374451    11.278158
     382      1        1     0.236369     -2.197869    -9.634707    11.280949