
3 atoms
1 atom types
3 ellipsoids
0 60 xlo xhi
0 60 zlo zhi
0 60 ylo yhi

Atoms
atom-ID atom-type ellipsoidflag density x y z
1 1 1 1 10 30 30
2 1 1 1 30 10 30
3 1 1 1 30 30 10


Ellipsoids
atom-ID shapex shapey shapez quatw quati quatj quatk
1 14 6 8 0.89453 0.44700 0 0
2 14 6 8 0.25755 0 0.96626 0
3 14 6 8 0.95009 0 0 0.31197


Velocities

1 1.3 0 0 0 0 50
2 0 .5 0 .1 3 10
3 0 0 .9 .5 61 1

