ITEM: TIMESTEP
0
ITEM: NUMBER OF ATOMS
105
ITEM: BOX BOUNDS
0 25
0 25
0 25
ITEM: ATOMS id type xs ys zs
32 3 0.199739 0.03565 0.0214796
101 1 0.742667 0.203888 0.209325
85 2 0.780739 0.204946 0.232003
88 4 0.870692 0.235063 0.160152
89 2 0.851282 0.17845 0.163127
90 4 0.814879 0.162054 0.20781
92 4 0.927669 0.239428 0.181562
97 3 0.959276 0.198408 0.178928
98 3 0.888838 0.106042 0.238384
104 1 0.827971 0.172018 0.125977
105 1 0.884746 0.149704 0.158264
86 4 0.798998 0.261976 0.229804
87 2 0.835605 0.276928 0.184784
96 3 0.945453 0.285275 0.198001
102 1 0.809046 0.290764 0.152103
103 1 0.85864 0.313651 0.194298
93 4 0.845983 0.132326 0.251082
99 3 0.826868 0.129722 0.29921
100 1 0.767544 0.193848 0.2729
8 4 0.686799 0.497272 0.448727
9 4 0.605391 0.495489 0.320875
12 3 0.672809 0.493562 0.498516
13 3 0.706672 0.456312 0.423906
14 3 0.636923 0.454972 0.313624
15 3 0.554376 0.490834 0.312858
91 4 0.822688 0.279083 0.283376
94 3 0.806887 0.25591 0.326988
95 3 0.854911 0.319658 0.285379
51 4 0.195536 0.472685 0.655796
56 3 0.190283 0.431718 0.687153
57 3 0.182917 0.469143 0.60563
66 2 0.498736 0.376878 0.743302
71 4 0.399437 0.371668 0.741049
75 3 0.40349 0.33694 0.702758
82 1 0.493748 0.350386 0.708042
74 3 0.506096 0.266156 0.741194
81 1 0.526248 0.407986 0.727791
22 2 0.13446 0.0343272 0.890156
23 4 0.171606 0.0581644 0.930685
24 2 0.229968 0.0582552 0.917109
28 4 0.162347 0.0332904 0.985634
31 3 0.115668 0.0141456 0.997593
37 1 0.0961488 0.0218956 0.908801
38 1 0.121774 0.0681572 0.864475
39 1 0.237298 0.0970112 0.896878
41 1 0.217397 0.018904 0.803902
25 4 0.251681 0.0165424 0.879972
40 1 0.25497 0.0618792 0.9536
55 3 0.126532 0.48431 0.788135
63 1 0.21173 0.488608 0.755318
67 4 0.447792 0.405667 0.756206
68 2 0.442135 0.426756 0.812006
69 4 0.47153 0.399937 0.856808
72 4 0.434056 0.363581 0.888396
76 3 0.353568 0.380926 0.763376
77 3 0.383378 0.374389 0.890252
78 3 0.453735 0.324958 0.916848
83 1 0.457976 0.468133 0.810629
84 1 0.399516 0.433402 0.822436
64 2 0.522007 0.370981 0.842521
65 4 0.528945 0.349301 0.787091
70 4 0.518345 0.289216 0.785991
73 3 0.526178 0.260995 0.828777
79 1 0.532278 0.340508 0.873112
80 1 0.554494 0.400692 0.847697
1 2 0.588299 0.585318 0.360031
2 4 0.590084 0.593082 0.41942
3 2 0.64345 0.586744 0.44592
4 4 0.684868 0.551486 0.420782
5 2 0.681873 0.544525 0.361342
6 4 0.629079 0.550271 0.333588
7 4 0.548143 0.55834 0.446949
10 3 0.505158 0.54484 0.421287
11 3 0.553591 0.546482 0.49713
16 1 0.547262 0.575405 0.346332
17 1 0.594417 0.625653 0.342692
18 1 0.661255 0.627336 0.446412
19 1 0.638983 0.577968 0.489196
20 1 0.707604 0.576414 0.344432
21 1 0.702933 0.507665 0.34839
43 2 0.206003 0.57083 0.643449
44 4 0.163768 0.608342 0.663441
45 2 0.156811 0.612037 0.722842
47 2 0.21394 0.528519 0.73602
48 4 0.221762 0.523617 0.676814
49 4 0.110339 0.597103 0.636188
52 3 0.109634 0.576103 0.588786
53 3 0.0663088 0.61284 0.658601
58 1 0.198362 0.558958 0.601372
59 1 0.242724 0.59537 0.639682
60 1 0.183377 0.645079 0.735783
61 1 0.116632 0.627664 0.733394
46 4 0.171638 0.56527 0.757244
50 4 0.121904 0.533797 0.773363
54 3 0.0761512 0.557984 0.77654
62 1 0.252256 0.54436 0.751692
26 2 0.213448 0.99349 0.840006
27 4 0.154838 0.992471 0.852429
30 4 0.137692 0.93683 0.870701
35 3 0.163858 0.895221 0.854193
36 3 0.0944408 0.931234 0.898746
42 1 0.227456 0.954045 0.825252
29 4 0.279388 0.972134 0.91134
33 3 0.30035 0.982632 0.957588
34 3 0.285755 0.925496 0.889594
ITEM: TIMESTEP
30
ITEM: NUMBER OF ATOMS
105
ITEM: BOX BOUNDS
0 25
0 25
0 25
ITEM: ATOMS id type xs ys zs
32 3 0.199457 0.035659 0.0218204
101 1 0.743222 0.204602 0.207763
85 2 0.780454 0.205047 0.23137
88 4 0.870712 0.235067 0.160132
89 2 0.850729 0.178654 0.162806
90 4 0.814873 0.162028 0.207824
92 4 0.927618 0.23938 0.18177
97 3 0.95965 0.198665 0.178902
98 3 0.88878 0.105729 0.238714
104 1 0.826696 0.17316 0.12624
105 1 0.884263 0.150135 0.158327
86 4 0.799022 0.261976 0.22983
87 2 0.835104 0.276714 0.184342
96 3 0.945874 0.285197 0.197882
102 1 0.808056 0.289284 0.151873
103 1 0.858281 0.313147 0.194144
93 4 0.846111 0.132507 0.251148
99 3 0.827037 0.129343 0.299297
100 1 0.767484 0.194288 0.272296
8 4 0.68659 0.497207 0.448688
9 4 0.605363 0.4954 0.321123
12 3 0.673073 0.493224 0.498624
13 3 0.706785 0.456104 0.424301
14 3 0.636657 0.454759 0.313276
15 3 0.554424 0.490502 0.312567
91 4 0.822804 0.279017 0.283401
94 3 0.807035 0.256209 0.327251
95 3 0.854819 0.319774 0.285786
51 4 0.195446 0.472707 0.655803
56 3 0.190146 0.431422 0.686781
57 3 0.182917 0.468727 0.605612
66 2 0.499073 0.377484 0.743453
71 4 0.399475 0.371409 0.741293
75 3 0.403049 0.336988 0.702634
82 1 0.493894 0.351126 0.708316
74 3 0.506311 0.265768 0.741303
81 1 0.526222 0.409036 0.729088
22 2 0.134727 0.0348003 0.88971
23 4 0.171611 0.0581794 0.930714
24 2 0.229815 0.0586529 0.916531
28 4 0.162415 0.0330782 0.985577
31 3 0.1157 0.0142309 0.998017
37 1 0.0967214 0.0220727 0.908537
38 1 0.123382 0.0685941 0.863747
39 1 0.236468 0.0967817 0.895499
41 1 0.216802 0.020427 0.804554
25 4 0.251711 0.0165441 0.879984
40 1 0.254703 0.0619168 0.952985
55 3 0.126147 0.484335 0.788404
63 1 0.21212 0.489025 0.754758
67 4 0.447757 0.405669 0.756125
68 2 0.442879 0.427063 0.81187
69 4 0.471544 0.399917 0.856886
72 4 0.433987 0.363392 0.888229
76 3 0.35333 0.381044 0.762972
77 3 0.383311 0.374239 0.890661
78 3 0.453388 0.324949 0.917156
83 1 0.460264 0.467604 0.810371
84 1 0.400181 0.432731 0.822944
64 2 0.522243 0.371577 0.842246
65 4 0.528955 0.34928 0.787056
70 4 0.518073 0.289239 0.786057
73 3 0.5263 0.260624 0.828554
79 1 0.531999 0.340907 0.872659
80 1 0.553938 0.401956 0.846436
1 2 0.588778 0.585823 0.359992
2 4 0.590046 0.593079 0.419442
3 2 0.643668 0.587241 0.445488
4 4 0.684891 0.551469 0.420796
5 2 0.68193 0.54518 0.3613
6 4 0.629076 0.55024 0.33356
7 4 0.548233 0.558121 0.446915
10 3 0.504903 0.544831 0.421666
11 3 0.553141 0.546444 0.497232
16 1 0.547859 0.575544 0.346555
17 1 0.596104 0.625982 0.343307
18 1 0.661367 0.627626 0.444673
19 1 0.638994 0.578067 0.488552
20 1 0.706735 0.577782 0.344974
21 1 0.702625 0.50815 0.348735
43 2 0.206466 0.571212 0.643827
44 4 0.16375 0.608354 0.663438
45 2 0.157477 0.612247 0.722891
47 2 0.214299 0.528913 0.736022
48 4 0.221761 0.523606 0.676828
49 4 0.11031 0.596894 0.636275
52 3 0.109266 0.576293 0.588667
53 3 0.0660944 0.612898 0.65821
58 1 0.198623 0.55911 0.601964
59 1 0.242981 0.595785 0.641231
60 1 0.184732 0.64452 0.735395
61 1 0.117326 0.62761 0.733355
46 4 0.171646 0.565254 0.757251
50 4 0.121868 0.533747 0.773158
54 3 0.0759977 0.557719 0.77687
62 1 0.252307 0.545662 0.750987
26 2 0.213341 0.994144 0.839799
27 4 0.154813 0.992437 0.852419
30 4 0.137846 0.936809 0.870932
35 3 0.163474 0.89493 0.854152
36 3 0.0943481 0.930824 0.898573
42 1 0.227219 0.954563 0.825585
29 4 0.279181 0.972043 0.911455
33 3 0.300687 0.982331 0.957538
34 3 0.286152 0.925408 0.889806
ITEM: TIMESTEP
60
ITEM: NUMBER OF ATOMS
105
ITEM: BOX BOUNDS
0 25
0 25
0 25
ITEM: ATOMS id type xs ys zs
32 3 0.198913 0.0357789 0.0222948
101 1 0.742983 0.205053 0.20545
85 2 0.780183 0.205261 0.230447
88 4 0.870787 0.235061 0.160189
89 2 0.849913 0.179034 0.162496
90 4 0.814909 0.162041 0.20793
92 4 0.927685 0.239293 0.182293
97 3 0.960184 0.199167 0.178759
98 3 0.888525 0.10521 0.239214
104 1 0.824942 0.174068 0.125645
105 1 0.882626 0.14961 0.15569
86 4 0.799123 0.261982 0.229931
87 2 0.834432 0.276286 0.183798
96 3 0.946499 0.285032 0.197543
102 1 0.806569 0.288155 0.150768
103 1 0.856337 0.314169 0.191669
93 4 0.846472 0.13282 0.251433
99 3 0.82725 0.12869 0.299306
100 1 0.76462 0.194018 0.270592
8 4 0.686133 0.496894 0.448697
9 4 0.605228 0.495035 0.321611
12 3 0.673603 0.492764 0.498736
13 3 0.707007 0.455892 0.424998
14 3 0.636206 0.45455 0.312596
15 3 0.554608 0.490039 0.312019
91 4 0.823166 0.278889 0.283594
94 3 0.807264 0.25675 0.327582
95 3 0.854532 0.319951 0.286416
51 4 0.195112 0.472596 0.655724
56 3 0.18995 0.431029 0.686122
57 3 0.18303 0.468114 0.605626
66 2 0.499469 0.378336 0.743714
71 4 0.399433 0.370811 0.74178
75 3 0.402283 0.33723 0.702483
82 1 0.495975 0.353263 0.707059
74 3 0.506796 0.265213 0.741514
81 1 0.527154 0.411089 0.730363
22 2 0.135241 0.0354001 0.889121
23 4 0.171659 0.0581147 0.930782
24 2 0.229542 0.0590964 0.915711
28 4 0.162549 0.0325429 0.985614
31 3 0.115815 0.0145143 0.998655
37 1 0.0958142 0.0246256 0.906639
38 1 0.124629 0.0698073 0.86247
39 1 0.235647 0.0976282 0.893522
41 1 0.216393 0.022365 0.804287
25 4 0.251722 0.01647 0.880069
40 1 0.255228 0.0647155 0.951606
55 3 0.125582 0.484497 0.788894
63 1 0.214347 0.489621 0.756138
67 4 0.447728 0.405563 0.756086
68 2 0.443973 0.427305 0.811749
69 4 0.471597 0.399735 0.85702
72 4 0.433745 0.362874 0.887949
76 3 0.353041 0.381437 0.762143
77 3 0.383327 0.374075 0.891384
78 3 0.452805 0.325049 0.917679
83 1 0.462085 0.468173 0.809945
84 1 0.402076 0.43629 0.822337
64 2 0.522518 0.372343 0.841766
65 4 0.528844 0.349203 0.786972
70 4 0.517457 0.289111 0.786173
73 3 0.526594 0.260127 0.828095
79 1 0.534599 0.343034 0.87295
80 1 0.554357 0.403646 0.845379
1 2 0.589535 0.586418 0.360025
2 4 0.589979 0.592965 0.419484
3 2 0.643924 0.587847 0.444793
4 4 0.684854 0.551359 0.420853
5 2 0.68189 0.546076 0.361338
6 4 0.629049 0.550099 0.333598
7 4 0.548303 0.557536 0.446918
10 3 0.504529 0.54495 0.422333
11 3 0.552391 0.54651 0.49733
16 1 0.548338 0.578546 0.345233
17 1 0.597853 0.627204 0.34347
18 1 0.661905 0.628836 0.443062
19 1 0.640305 0.581017 0.488584
20 1 0.706579 0.579712 0.345036
21 1 0.704475 0.510283 0.347464
43 2 0.207029 0.571706 0.644493
44 4 0.163673 0.608292 0.663455
45 2 0.15846 0.612376 0.722909
47 2 0.214749 0.529542 0.735894
48 4 0.221686 0.523503 0.676814
49 4 0.110088 0.5964 0.636395
52 3 0.108739 0.576732 0.588539
53 3 0.0658778 0.613063 0.657517
58 1 0.201157 0.560896 0.601763
59 1 0.244095 0.596823 0.642865
60 1 0.187068 0.644641 0.735297
61 1 0.119101 0.629823 0.734262
46 4 0.171594 0.565119 0.75721
50 4 0.121595 0.533528 0.772775
54 3 0.0758856 0.557349 0.777478
62 1 0.253043 0.547266 0.750645
26 2 0.21315 0.995066 0.839648
27 4 0.154805 0.992328 0.852505
30 4 0.138119 0.936597 0.87148
35 3 0.162749 0.894557 0.853981
36 3 0.0942189 0.9302 0.898149
42 1 0.227519 0.956428 0.823003
29 4 0.278821 0.971719 0.911809
33 3 0.301273 0.981896 0.957312
34 3 0.286855 0.925418 0.890106
ITEM: TIMESTEP
90
ITEM: NUMBER OF ATOMS
105
ITEM: BOX BOUNDS
0 25
0 25
0 25
ITEM: ATOMS id type xs ys zs
32 3 0.198787 0.0362039 0.0227547
101 1 0.744526 0.205505 0.202706
85 2 0.779824 0.205313 0.230189
88 4 0.870758 0.234994 0.160494
89 2 0.849655 0.179002 0.162188
90 4 0.815061 0.162303 0.208076
92 4 0.927679 0.239161 0.183002
97 3 0.960621 0.199258 0.178337
98 3 0.888351 0.104588 0.239246
104 1 0.822945 0.176033 0.126461
105 1 0.880752 0.14874 0.152441
86 4 0.799348 0.261883 0.229969
87 2 0.834175 0.276389 0.183511
96 3 0.946878 0.285341 0.197086
102 1 0.805522 0.285345 0.150348
103 1 0.854129 0.315756 0.188681
93 4 0.846915 0.133324 0.251782
99 3 0.826959 0.128166 0.299466
100 1 0.761018 0.193501 0.268712
8 4 0.685468 0.496546 0.448657
9 4 0.605074 0.494625 0.322287
12 3 0.674055 0.492732 0.499208
13 3 0.707474 0.455682 0.425287
14 3 0.636246 0.454393 0.311765
15 3 0.554482 0.489958 0.31139
91 4 0.823724 0.278585 0.28371
94 3 0.807186 0.256959 0.32796
95 3 0.854302 0.320486 0.286702
51 4 0.194548 0.472559 0.655646
56 3 0.189837 0.430595 0.685917
57 3 0.183285 0.467895 0.605147
66 2 0.499835 0.378658 0.743441
71 4 0.399476 0.370181 0.742457
75 3 0.401772 0.337469 0.702125
82 1 0.49863 0.355834 0.705246
74 3 0.507351 0.26485 0.741223
81 1 0.527401 0.412441 0.733164
22 2 0.135173 0.0357342 0.888862
23 4 0.171796 0.0578412 0.930731
24 2 0.229643 0.0594732 0.915514
28 4 0.162778 0.0318376 0.985543
31 3 0.115522 0.0148982 0.998996
37 1 0.0943196 0.0277569 0.90443
38 1 0.127516 0.0702617 0.861494
39 1 0.233632 0.096922 0.891292
41 1 0.215426 0.024722 0.805738
25 4 0.251496 0.0163309 0.880248
40 1 0.256097 0.0683749 0.950128
55 3 0.12545 0.484414 0.789507
63 1 0.216833 0.490717 0.757894
67 4 0.447871 0.405283 0.756404
68 2 0.44428 0.427721 0.811814
69 4 0.471646 0.39933 0.856871
72 4 0.433566 0.362229 0.887461
76 3 0.352644 0.382456 0.761409
77 3 0.383211 0.374361 0.891968
78 3 0.452629 0.325043 0.918347
83 1 0.465054 0.467188 0.808908
84 1 0.40328 0.440969 0.821535
64 2 0.522977 0.372503 0.841831
65 4 0.528478 0.349175 0.786962
70 4 0.516631 0.289 0.786278
73 3 0.527144 0.25986 0.828016
79 1 0.538202 0.345283 0.873491
80 1 0.553581 0.405084 0.843041
1 2 0.589628 0.586745 0.359889
2 4 0.590063 0.592598 0.419452
3 2 0.644083 0.588224 0.444819
4 4 0.684553 0.551205 0.420835
5 2 0.682148 0.546284 0.361219
6 4 0.629011 0.54989 0.333952
7 4 0.548477 0.556776 0.446846
10 3 0.503986 0.545287 0.422601
11 3 0.551962 0.546809 0.497724
16 1 0.548595 0.582198 0.343433
17 1 0.600699 0.6273 0.344641
18 1 0.662008 0.628914 0.440081
19 1 0.64194 0.584724 0.489068
20 1 0.70494 0.581659 0.346114
21 1 0.70691 0.512726 0.345729
43 2 0.207388 0.57188 0.64461
44 4 0.16362 0.608005 0.663589
45 2 0.158828 0.61255 0.723052
47 2 0.215037 0.529576 0.735994
48 4 0.221459 0.523414 0.676817
49 4 0.10989 0.59571 0.636635
52 3 0.10865 0.577141 0.588128
53 3 0.0656473 0.613565 0.657204
58 1 0.204318 0.563194 0.601136
59 1 0.24415 0.597314 0.64606
60 1 0.189691 0.64289 0.734491
61 1 0.121195 0.632723 0.735513
46 4 0.171508 0.564888 0.756953
50 4 0.121223 0.533213 0.772234
54 3 0.0757225 0.557576 0.778093
62 1 0.252795 0.549218 0.749404
26 2 0.213195 0.995287 0.839316
27 4 0.154991 0.992246 0.852842
30 4 0.138502 0.936403 0.872195
35 3 0.1623 0.894209 0.853373
36 3 0.0937436 0.929915 0.897776
42 1 0.228058 0.958401 0.81951
29 4 0.278282 0.971358 0.91225
33 3 0.30197 0.981944 0.95727
34 3 0.287509 0.925363 0.889895
ITEM: TIMESTEP
120
ITEM: NUMBER OF ATOMS
105
ITEM: BOX BOUNDS
0 25
0 25
0 25
ITEM: ATOMS id type xs ys zs
32 3 0.198877 0.0369502 0.0225857
101 1 0.747805 0.206657 0.200782
85 2 0.779802 0.205304 0.230494
88 4 0.871095 0.234903 0.161232
89 2 0.849932 0.178811 0.162199
90 4 0.81564 0.162509 0.208594
92 4 0.927782 0.239066 0.183698
97 3 0.960385 0.199212 0.177647
98 3 0.887822 0.104309 0.238712
104 1 0.821496 0.178822 0.128994
105 1 0.880379 0.148858 0.152147
86 4 0.79986 0.261778 0.230382
87 2 0.83436 0.276652 0.183689
96 3 0.946544 0.285711 0.196365
102 1 0.805171 0.281386 0.151536
103 1 0.853732 0.315824 0.188442
93 4 0.847331 0.133757 0.252225
99 3 0.8262 0.128036 0.299232
100 1 0.760471 0.194205 0.268325
8 4 0.68483 0.496095 0.448732
9 4 0.604881 0.494116 0.322813
12 3 0.674438 0.493416 0.499448
13 3 0.707898 0.456068 0.425211
14 3 0.63665 0.454857 0.311006
15 3 0.554529 0.490544 0.310927
91 4 0.824412 0.278254 0.283864
94 3 0.806888 0.256859 0.327697
95 3 0.853787 0.320891 0.286324
51 4 0.193778 0.472498 0.655463
56 3 0.189882 0.430785 0.685965
57 3 0.183871 0.468362 0.604764
66 2 0.499943 0.378368 0.743234
71 4 0.399307 0.36979 0.742995
75 3 0.401845 0.33804 0.702061
82 1 0.498914 0.356819 0.705074
74 3 0.507993 0.265149 0.740755
81 1 0.526254 0.412369 0.736346
22 2 0.134949 0.0356118 0.889009
23 4 0.171875 0.0571738 0.931024
24 2 0.229815 0.0594135 0.915814
28 4 0.162989 0.0311459 0.98561
31 3 0.115278 0.0155654 0.998613
37 1 0.0942953 0.0281802 0.904025
38 1 0.13169 0.0692812 0.861311
39 1 0.231255 0.0941675 0.889557
41 1 0.21392 0.0267163 0.809234
25 4 0.251299 0.0157682 0.88075
40 1 0.256281 0.0689464 0.949531
55 3 0.125874 0.484576 0.789977
63 1 0.217282 0.490912 0.756997
67 4 0.447765 0.404566 0.756842
68 2 0.444159 0.42793 0.81195
69 4 0.471337 0.398561 0.85656
72 4 0.43336 0.361512 0.887108
76 3 0.35275 0.384172 0.760783
77 3 0.383614 0.37516 0.892091
78 3 0.452928 0.325348 0.918651
83 1 0.469265 0.463642 0.808272
84 1 0.403194 0.441268 0.822931
64 2 0.523134 0.372102 0.84209
65 4 0.527994 0.348616 0.787095
70 4 0.515888 0.288701 0.78628
73 3 0.527819 0.260334 0.828025
79 1 0.538452 0.345497 0.873568
80 1 0.550809 0.405881 0.84005
1 2 0.589337 0.586533 0.35986
2 4 0.589979 0.591746 0.419571
3 2 0.644035 0.58808 0.445202
4 4 0.684053 0.55054 0.420977
5 2 0.682304 0.545827 0.361216
6 4 0.628763 0.549181 0.334479
7 4 0.548524 0.555992 0.446834
10 3 0.503853 0.546026 0.422474
11 3 0.552104 0.547521 0.497863
16 1 0.548782 0.582596 0.343349
17 1 0.603989 0.625647 0.346943
18 1 0.661318 0.627231 0.436277
19 1 0.642108 0.585292 0.48903
20 1 0.70171 0.582809 0.348319
21 1 0.707134 0.513037 0.345958
43 2 0.207322 0.571593 0.644428
44 4 0.163197 0.607337 0.66361
45 2 0.158586 0.61247 0.723139
47 2 0.214829 0.529023 0.73607
48 4 0.220827 0.522945 0.67673
49 4 0.109634 0.59504 0.636831
52 3 0.109286 0.577637 0.587985
53 3 0.0660312 0.614245 0.657302
58 1 0.205286 0.563518 0.601277
59 1 0.242687 0.59662 0.650114
60 1 0.191382 0.639453 0.733009
61 1 0.122109 0.633266 0.735847
46 4 0.17092 0.56432 0.756672
50 4 0.120793 0.532869 0.771762
54 3 0.0761033 0.55831 0.778533
62 1 0.251183 0.550827 0.747242
26 2 0.213355 0.994923 0.839243
27 4 0.15524 0.991753 0.853542
30 4 0.138772 0.936098 0.872841
35 3 0.162092 0.894502 0.852445
36 3 0.0933949 0.930312 0.897267
42 1 0.22808 0.958703 0.819104
29 4 0.277906 0.970953 0.912723
33 3 0.302366 0.982594 0.956933
34 3 0.28782 0.925804 0.889233
ITEM: TIMESTEP
150
ITEM: NUMBER OF ATOMS
105
ITEM: BOX BOUNDS
0 25
0 25
0 25
ITEM: ATOMS id type xs ys zs
32 3 0.199299 0.0377974 0.0222917
101 1 0.746389 0.206475 0.20295
85 2 0.780731 0.205451 0.23106
88 4 0.871349 0.234999 0.161195
89 2 0.850524 0.178981 0.163176
90 4 0.815636 0.162293 0.20876
92 4 0.928189 0.239073 0.18425
97 3 0.960001 0.198887 0.176899
98 3 0.887377 0.104095 0.237912
104 1 0.823215 0.177139 0.128203
105 1 0.881305 0.148733 0.152662
86 4 0.799692 0.26213 0.230646
87 2 0.834975 0.276347 0.184539
96 3 0.945981 0.286344 0.195658
102 1 0.805918 0.283976 0.151851
103 1 0.854458 0.315974 0.189344
93 4 0.847704 0.133857 0.252816
99 3 0.825147 0.128146 0.299088
100 1 0.761257 0.194424 0.269424
8 4 0.684403 0.495461 0.449056
9 4 0.604616 0.493431 0.322923
12 3 0.674642 0.494376 0.499891
13 3 0.70832 0.45643 0.424864
14 3 0.637374 0.455359 0.310251
15 3 0.554355 0.491364 0.310577
91 4 0.825167 0.278059 0.284244
94 3 0.806482 0.256358 0.327364
95 3 0.853362 0.321468 0.285605
51 4 0.192832 0.472289 0.655121
56 3 0.189781 0.431032 0.686209
57 3 0.184502 0.469111 0.604127
66 2 0.49934 0.377509 0.743852
71 4 0.398724 0.369827 0.743133
75 3 0.402329 0.338483 0.702074
82 1 0.497792 0.355193 0.705515
74 3 0.508546 0.265618 0.739999
81 1 0.526422 0.411271 0.73406
22 2 0.135358 0.0347603 0.889636
23 4 0.171767 0.057342 0.931352
24 2 0.229609 0.0584034 0.916267
28 4 0.163069 0.030613 0.985984
31 3 0.114803 0.0161694 0.997968
37 1 0.0941736 0.0273785 0.90454
38 1 0.129364 0.0689108 0.861909
39 1 0.232948 0.0947832 0.891082
41 1 0.214786 0.0247417 0.807919
25 4 0.251713 0.0156347 0.88077
40 1 0.25637 0.0679849 0.950394
55 3 0.126424 0.484618 0.790412
63 1 0.216463 0.489125 0.756618
67 4 0.447622 0.404619 0.75671
68 2 0.444202 0.426979 0.812087
69 4 0.471365 0.398373 0.856971
72 4 0.433048 0.360821 0.887083
76 3 0.35277 0.386439 0.760385
77 3 0.383879 0.376263 0.891923
78 3 0.453641 0.3255 0.918845
83 1 0.467025 0.465002 0.809519
84 1 0.40368 0.441171 0.823619
64 2 0.5224 0.371173 0.841803
65 4 0.528577 0.348115 0.786961
70 4 0.515489 0.288085 0.786172
73 3 0.528474 0.260857 0.828283
79 1 0.537476 0.344671 0.874064
80 1 0.551814 0.404434 0.842358
1 2 0.58926 0.585382 0.360388
2 4 0.589669 0.591707 0.419837
3 2 0.643596 0.587008 0.445201
4 4 0.684332 0.550301 0.421312
5 2 0.681639 0.544893 0.361815
6 4 0.628717 0.548834 0.334276
7 4 0.548257 0.55529 0.447021
10 3 0.5037 0.54682 0.422014
11 3 0.552576 0.548284 0.498147
16 1 0.548276 0.581627 0.343681
17 1 0.601668 0.625505 0.345985
18 1 0.661288 0.627222 0.438781
19 1 0.641751 0.584466 0.489505
20 1 0.703304 0.580876 0.347405
21 1 0.706987 0.511838 0.346398
43 2 0.206592 0.570855 0.644505
44 4 0.163097 0.607251 0.663526
45 2 0.157997 0.611529 0.722938
47 2 0.213756 0.528202 0.735665
48 4 0.22095 0.522486 0.676597
49 4 0.109234 0.594549 0.636802
52 3 0.11026 0.577988 0.58775
53 3 0.066521 0.615026 0.657753
58 1 0.205044 0.562738 0.600847
59 1 0.242919 0.596047 0.648237
60 1 0.189945 0.640407 0.733658
61 1 0.121209 0.632919 0.735756
46 4 0.170816 0.564049 0.756928
50 4 0.120191 0.532463 0.771598
54 3 0.0765104 0.559318 0.77889
62 1 0.251152 0.548465 0.748506
26 2 0.213324 0.994276 0.840194
27 4 0.155122 0.991434 0.853494
30 4 0.138759 0.935529 0.873251
35 3 0.162153 0.89486 0.851311
36 3 0.0929212 0.931003 0.896932
42 1 0.228243 0.957899 0.819525
29 4 0.277961 0.970464 0.913174
33 3 0.30269 0.983553 0.956751
34 3 0.287978 0.926165 0.888295
ITEM: TIMESTEP
180
ITEM: NUMBER OF ATOMS
105
ITEM: BOX BOUNDS
0 25
0 25
0 25
ITEM: ATOMS id type xs ys zs
32 3 0.199446 0.038303 0.0222925
101 1 0.742876 0.204731 0.208162
85 2 0.78123 0.205498 0.232068
88 4 0.871637 0.235204 0.160818
89 2 0.851411 0.178804 0.163962
90 4 0.815335 0.161912 0.208881
92 4 0.927713 0.239178 0.183854
97 3 0.959979 0.198838 0.176473
98 3 0.887048 0.103779 0.237696
104 1 0.827248 0.172745 0.126311
105 1 0.884429 0.1491 0.157243
86 4 0.799372 0.262719 0.230958
87 2 0.835685 0.276651 0.185254
96 3 0.945897 0.286764 0.19514
102 1 0.808284 0.290234 0.151986
103 1 0.858051 0.31463 0.193297
93 4 0.847157 0.133996 0.252474
99 3 0.824524 0.128088 0.299108
100 1 0.76602 0.193686 0.272599
8 4 0.684496 0.495949 0.44911
9 4 0.604857 0.493868 0.32258
95 3 0.853054 0.321991 0.285334
13 3 0.70852 0.456389 0.424987
14 3 0.637667 0.455494 0.309417
15 3 0.554204 0.49161 0.310254
91 4 0.825171 0.277912 0.28379
94 3 0.806508 0.255966 0.327291
51 4 0.192615 0.472835 0.655004
56 3 0.189191 0.430998 0.685968
57 3 0.184902 0.469397 0.603527
66 2 0.498576 0.376303 0.743947
71 4 0.398796 0.371252 0.742972
75 3 0.40244 0.338664 0.702361
82 1 0.494126 0.350121 0.707666
74 3 0.508979 0.265641 0.739567
81 1 0.526813 0.408376 0.728561
22 2 0.135206 0.0338857 0.890385
23 4 0.171632 0.0578214 0.931667
24 2 0.229811 0.0576658 0.91705
28 4 0.16308 0.0311092 0.985568
31 3 0.114507 0.0165078 0.997832
37 1 0.0954035 0.0231885 0.907931
38 1 0.123319 0.0683181 0.863702
39 1 0.236876 0.096973 0.895573
41 1 0.217089 0.0197905 0.804439
25 4 0.252399 0.0156653 0.880616
40 1 0.255457 0.0631804 0.953453
55 3 0.126305 0.484591 0.79088
63 1 0.211319 0.486432 0.756075
67 4 0.44752 0.405161 0.756486
68 2 0.443837 0.426331 0.812487
69 4 0.471716 0.398381 0.857774
72 4 0.433461 0.361176 0.886954
76 3 0.352484 0.388546 0.759754
77 3 0.383934 0.376906 0.891961
78 3 0.453958 0.325455 0.919008
83 1 0.461162 0.467846 0.810889
84 1 0.402071 0.436581 0.822211
64 2 0.522006 0.369918 0.842021
65 4 0.52943 0.347723 0.786648
70 4 0.516115 0.288465 0.785951
73 3 0.5288 0.260675 0.828264
79 1 0.533973 0.340046 0.873172
80 1 0.55483 0.400478 0.847183
12 3 0.674853 0.494761 0.500385
1 2 0.588665 0.584279 0.360654
2 4 0.589232 0.591989 0.420142
3 2 0.643176 0.586041 0.445758
4 4 0.68492 0.550171 0.421774
5 2 0.681351 0.543623 0.362207
6 4 0.628764 0.548632 0.333778
7 4 0.54845 0.555741 0.446919
10 3 0.503422 0.547275 0.421957
11 3 0.552641 0.548651 0.498436
16 1 0.547199 0.576334 0.345669
17 1 0.595806 0.625357 0.34332
18 1 0.661295 0.627386 0.445175
19 1 0.639598 0.57939 0.489914
20 1 0.707249 0.576357 0.344986
21 1 0.703946 0.507367 0.348261
43 2 0.206107 0.570225 0.6441
44 4 0.163135 0.60746 0.663348
45 2 0.157179 0.610912 0.722925
47 2 0.212854 0.526894 0.735558
48 4 0.221305 0.521868 0.676296
49 4 0.109843 0.594764 0.636968
52 3 0.110721 0.57823 0.587508
53 3 0.0668066 0.615535 0.657888
58 1 0.200681 0.560046 0.600791
59 1 0.243602 0.595382 0.642123
60 1 0.185693 0.643737 0.735708
61 1 0.117645 0.628911 0.734416
46 4 0.170853 0.563723 0.757493
50 4 0.120585 0.532773 0.771737
54 3 0.0766501 0.559851 0.779357
62 1 0.25159 0.542963 0.751779
26 2 0.213487 0.993254 0.840776
27 4 0.154794 0.991185 0.8531
30 4 0.138678 0.935936 0.872729
35 3 0.161927 0.894849 0.850488
36 3 0.0925878 0.931201 0.89673
42 1 0.228063 0.954463 0.823819
29 4 0.278138 0.970974 0.91274
33 3 0.303115 0.983977 0.956677
34 3 0.288349 0.926244 0.887869
ITEM: TIMESTEP
210
ITEM: NUMBER OF ATOMS
105
ITEM: BOX BOUNDS
0 25
0 25
0 25
ITEM: ATOMS id type xs ys zs
32 3 0.19867 0.0382152 0.0221883
101 1 0.74164 0.203284 0.213762
85 2 0.781183 0.205355 0.233447
88 4 0.87046 0.235131 0.160853
89 2 0.852443 0.178269 0.164394
90 4 0.814918 0.162887 0.208295
92 4 0.9277 0.239613 0.182445
97 3 0.95997 0.199741 0.176604
98 3 0.886328 0.10378 0.238455
104 1 0.831556 0.169292 0.126463
105 1 0.887505 0.151377 0.164893
86 4 0.799406 0.262229 0.230071
87 2 0.836484 0.277564 0.185766
96 3 0.946202 0.286199 0.194755
102 1 0.811611 0.294495 0.153358
103 1 0.862263 0.310926 0.199011
93 4 0.846051 0.133109 0.251973
99 3 0.824831 0.127861 0.298735
100 1 0.773242 0.194721 0.275587
8 4 0.685678 0.496531 0.449652
9 4 0.605209 0.494499 0.321046
95 3 0.852548 0.321744 0.285782
13 3 0.708063 0.456437 0.426084
14 3 0.636907 0.455662 0.308727
15 3 0.554846 0.49112 0.310142
91 4 0.824411 0.278533 0.283645
94 3 0.807434 0.256179 0.326963
51 4 0.193123 0.472764 0.654537
56 3 0.188081 0.431201 0.684711
57 3 0.185028 0.469103 0.603702
66 2 0.497967 0.374902 0.743121
71 4 0.398668 0.373681 0.741883
75 3 0.401829 0.339137 0.703646
82 1 0.488797 0.345701 0.711273
74 3 0.509336 0.265374 0.740165
81 1 0.525404 0.403661 0.723818
22 2 0.134348 0.0331548 0.891155
23 4 0.171984 0.0578167 0.930501
24 2 0.230502 0.0573982 0.918192
28 4 0.162679 0.0326171 0.985629
31 3 0.115206 0.0167137 0.998211
37 1 0.0991135 0.0170857 0.912479
38 1 0.118802 0.0663898 0.866425
39 1 0.239921 0.096952 0.900828
41 1 0.218831 0.0145769 0.803172
25 4 0.251593 0.0163129 0.88022
40 1 0.253528 0.0560183 0.955864
55 3 0.125325 0.485066 0.791103
63 1 0.204427 0.485119 0.75203
67 4 0.448669 0.405783 0.757293
68 2 0.442872 0.426178 0.813058
69 4 0.472641 0.398653 0.856966
72 4 0.434022 0.362265 0.887736
76 3 0.352568 0.38991 0.758505
77 3 0.384604 0.376567 0.892234
78 3 0.453278 0.325705 0.918679
83 1 0.457547 0.467958 0.812264
84 1 0.399722 0.427701 0.823099
64 2 0.522253 0.368345 0.842888
65 4 0.529219 0.34873 0.786833
70 4 0.51806 0.288461 0.78551
73 3 0.528551 0.260069 0.827318
79 1 0.527948 0.334438 0.870695
80 1 0.556271 0.395578 0.850511
12 3 0.67521 0.494359 0.500139
1 2 0.587465 0.583413 0.360503
2 4 0.590174 0.592134 0.419563
3 2 0.642864 0.585325 0.446956
4 4 0.684427 0.550879 0.421293
5 2 0.681615 0.542083 0.362235
6 4 0.62916 0.549364 0.334526
7 4 0.548058 0.557131 0.447233
10 3 0.503619 0.547359 0.42281
11 3 0.552066 0.548566 0.497988
16 1 0.547313 0.568587 0.349452
17 1 0.590667 0.623393 0.341819
18 1 0.660464 0.625755 0.450453
19 1 0.63621 0.571986 0.48857
20 1 0.709467 0.5712 0.343995
21 1 0.698194 0.502359 0.352277
43 2 0.205919 0.569703 0.643295
44 4 0.164245 0.607211 0.664037
45 2 0.156283 0.610661 0.723145
47 2 0.212248 0.525349 0.73578
48 4 0.221181 0.522526 0.676688
49 4 0.110514 0.595932 0.636598
52 3 0.110413 0.578571 0.587979
53 3 0.0673508 0.615347 0.657243
58 1 0.194283 0.556224 0.602877
59 1 0.242603 0.593609 0.6369
60 1 0.180253 0.645012 0.737289
61 1 0.114563 0.622075 0.731951
46 4 0.171652 0.56379 0.756899
50 4 0.120974 0.533228 0.773054
54 3 0.0769961 0.559421 0.779809
62 1 0.251021 0.536858 0.753634
26 2 0.213881 0.991902 0.840845
27 4 0.155379 0.992177 0.85306
30 4 0.137914 0.936213 0.871203
35 3 0.160985 0.894936 0.850467
36 3 0.09313 0.93078 0.896336
42 1 0.226851 0.950687 0.831457
29 4 0.279435 0.971733 0.911838
33 3 0.30329 0.983456 0.956085
34 3 0.288837 0.926637 0.888527
ITEM: TIMESTEP
240
ITEM: NUMBER OF ATOMS
105
ITEM: BOX BOUNDS
0 25
0 25
0 25
ITEM: ATOMS id type xs ys zs
32 3 0.198508 0.0380208 0.0227484
101 1 0.739875 0.202198 0.219952
85 2 0.780903 0.205245 0.234407
88 4 0.870442 0.235338 0.160462
89 2 0.85301 0.177865 0.164562
90 4 0.814554 0.162701 0.208267
92 4 0.927441 0.240269 0.179946
97 3 0.960514 0.199988 0.176857
98 3 0.886393 0.103392 0.239154
104 1 0.836885 0.164935 0.126075
105 1 0.888855 0.152105 0.167113
86 4 0.799268 0.262366 0.230051
87 2 0.837043 0.278343 0.185931
96 3 0.946901 0.286391 0.194779
102 1 0.814942 0.299662 0.154962
103 1 0.863412 0.310754 0.200622
93 4 0.844123 0.13171 0.25088
99 3 0.824934 0.127637 0.299257
100 1 0.77487 0.195773 0.277212
8 4 0.687755 0.497797 0.450254
9 4 0.605871 0.495854 0.318724
95 3 0.852683 0.322134 0.286505
13 3 0.707786 0.455636 0.426862
14 3 0.636608 0.455077 0.307946
15 3 0.554691 0.490419 0.310035
91 4 0.822621 0.279601 0.28308
94 3 0.808437 0.256034 0.327447
51 4 0.194705 0.472718 0.654065
56 3 0.186531 0.430623 0.683862
57 3 0.184797 0.468643 0.602944
66 2 0.497502 0.374143 0.742301
71 4 0.398986 0.377041 0.740254
75 3 0.401129 0.338991 0.704646
82 1 0.48613 0.343827 0.712255
74 3 0.509407 0.26467 0.740034
81 1 0.524061 0.39867 0.718203
22 2 0.13362 0.0327296 0.891561
23 4 0.171997 0.0580159 0.930433
24 2 0.231116 0.0573788 0.918996
28 4 0.162058 0.0352048 0.9855
31 3 0.115211 0.0164613 0.998896
37 1 0.0997308 0.0148766 0.913869
38 1 0.112726 0.0641217 0.869538
39 1 0.24374 0.0970501 0.906414
41 1 0.221122 0.0079613 0.801077
25 4 0.25185 0.0164979 0.880074
40 1 0.253535 0.0538073 0.956967
55 3 0.124269 0.484642 0.79149
63 1 0.202127 0.483768 0.749676
67 4 0.449038 0.406404 0.757089
68 2 0.44226 0.426234 0.813615
69 4 0.473192 0.398789 0.857163
72 4 0.435137 0.364234 0.889024
76 3 0.35192 0.391521 0.757493
77 3 0.384446 0.376203 0.892501
78 3 0.452805 0.325187 0.918702
83 1 0.451235 0.469069 0.815088
84 1 0.39884 0.426447 0.825419
64 2 0.522655 0.367193 0.843571
65 4 0.529225 0.348489 0.786787
70 4 0.5211 0.2887 0.784857
73 3 0.528288 0.258817 0.827082
79 1 0.525758 0.332773 0.871323
80 1 0.558036 0.389865 0.855484
12 3 0.675244 0.493738 0.500788
1 2 0.586548 0.582888 0.360278
2 4 0.590093 0.592329 0.419609
3 2 0.642662 0.585012 0.44793
4 4 0.684546 0.550826 0.421473
5 2 0.681911 0.540983 0.362184
6 4 0.629236 0.549387 0.334295
7 4 0.547615 0.559659 0.447583
10 3 0.503157 0.547079 0.423327