216
Lattice="17.561274918 0.0 0.0 0.0 17.561274918 0.0 0.0 0.0 17.561274918" Properties=species:S:1:pos:R:3:forces:R:3 energy=-1039.91341438 stress="-7.11029 0.66038 0.66038 0.66038 -7.11029 0.66038 0.66038 0.66038 -7.11029" pbc="T T T"
In  8.82764  8.82764  8.82764  -0.248476  -0.248476  -0.248476
In  10.31331  10.31331  10.31331  0.44026  0.44026  0.44026
In  10.25436  7.21487  7.21487  0.19065  -0.141462  -0.141462
In  7.21487  10.25436  7.21487  -0.141462  0.19065  -0.141462
In  7.21487  7.21487  10.25436  -0.141462  -0.141462  0.19065
In  13.16153  10.25692  7.34235  -0.000573  -0.01513  -0.023886
In  13.16153  7.34235  10.25692  -0.000573  -0.023886  -0.01513
In  10.25692  13.16153  7.34235  -0.01513  -0.000573  -0.023886
In  10.25692  7.34235  13.16153  -0.01513  -0.023886  -0.000573
In  7.34235  13.16153  10.25692  -0.023886  -0.000573  -0.01513
In  7.34235  10.25692  13.16153  -0.023886  -0.01513  -0.000573
In  10.24234  10.24234  4.39197  0.00396  0.00396  0.014035
In  10.24234  4.39197  10.24234  0.00396  0.014035  0.00396
In  4.39197  10.24234  10.24234  0.014035  0.00396  0.00396
In  7.30539  7.30539  4.36562  0.00481  0.00481  0.007602
In  7.30539  4.36562  7.30539  0.00481  0.007602  0.00481
In  4.36562  7.30539  7.30539  0.007602  0.00481  0.00481
In  13.22027  13.22027  10.2611  0.014585  0.014585  0.033985
In  13.22027  10.2611  13.22027  0.014585  0.033985  0.014585
In  10.2611  13.22027  13.22027  0.033985  0.014585  0.014585
In  13.18472  7.31857  4.38023  -0.01104  0.017245  0.011711
In  13.18472  4.38023  7.31857  -0.01104  0.011711  0.017245
In  7.31857  13.18472  4.38023  0.017245  -0.01104  0.011711
In  4.38023  13.18472  7.31857  0.011711  -0.01104  0.017245
In  7.31857  4.38023  13.18472  0.017245  0.011711  -0.01104
In  4.38023  7.31857  13.18472  0.011711  0.017245  -0.01104
In  10.24999  4.34819  4.34819  0.011936  0.002163  0.002163
In  4.34819  10.24999  4.34819  0.002163  0.011936  0.002163
In  4.34819  4.34819  10.24999  0.002163  0.002163  0.011936
In  16.09732  10.2525  10.2525  0.003461  -0.004731  -0.004731
In  10.2525  16.09732  10.2525  -0.004731  0.003461  -0.004731
In  10.2525  10.2525  16.09732  -0.004731  -0.004731  0.003461
In  16.09549  7.32267  7.32267  -0.001383  -0.005192  -0.005192
In  13.17049  13.17049  4.39715  -0.001759  -0.001759  -0.003831
In  13.17049  4.39715  13.17049  -0.001759  -0.003831  -0.001759
In  7.32267  16.09549  7.32267  -0.005192  -0.001383  -0.005192
In  7.32267  7.32267  16.09549  -0.005192  -0.005192  -0.001383
In  4.39715  13.17049  13.17049  -0.003831  -0.001759  -0.001759
In  10.24503  7.31841  1.46178  0.000611  -0.001804  0.004113
In  7.31841  10.24503  1.46178  -0.001804  0.000611  0.004113
In  10.24503  1.46178  7.31841  0.000611  0.004113  -0.001804
In  7.31841  1.46178  10.24503  -0.001804  0.004113  0.000611
In  1.46178  10.24503  7.31841  0.004113  0.000611  -0.001804
In  1.46178  7.31841  10.24503  0.004113  -0.001804  0.000611
In  4.38397  4.38397  4.38397  0.001457  0.001457  0.001457
In  16.09741  13.17199  7.32014  0.001658  -0.005854  -0.005274
In  13.17199  16.09741  7.32014  -0.005854  0.001658  -0.005274
In  16.09741  7.32014  13.17199  0.001658  -0.005274  -0.005854
In  13.17199  7.32014  16.09741  -0.005854  -0.005274  0.001658
In  7.32014  16.09741  13.17199  -0.005274  0.001658  -0.005854
In  7.32014  13.17199  16.09741  -0.005274  -0.005854  0.001658
In  16.09762  10.24853  4.39524  -0.001133  -0.003994  -0.004084
In  16.09762  4.39524  10.24853  -0.001133  -0.004084  -0.003994
In  10.24853  16.09762  4.39524  -0.003994  -0.001133  -0.004084
In  10.24853  4.39524  16.09762  -0.003994  -0.004084  -0.001133
In  4.39524  16.09762  10.24853  -0.004084  -0.001133  -0.003994
In  4.39524  10.24853  16.09762  -0.004084  -0.003994  -0.001133
In  13.17221  10.24797  1.4635  0.000724  -0.000218  0.004583
In  10.24797  13.17221  1.4635  -0.000218  0.000724  0.004583
In  13.17221  1.4635  10.24797  0.000724  0.004583  -0.000218
In  10.24797  1.4635  13.17221  -0.000218  0.004583  0.000724
In  1.4635  13.17221  10.24797  0.004583  0.000724  -0.000218
In  1.4635  10.24797  13.17221  0.004583  -0.000218  0.000724
In  7.31409  4.38507  1.45154  0.002664  0.00112  0.000325
In  7.31409  1.45154  4.38507  0.002664  0.000325  0.00112
In  4.38507  7.31409  1.45154  0.00112  0.002664  0.000325
In  4.38507  1.45154  7.31409  0.00112  0.000325  0.002664
In  1.45154  7.31409  4.38507  0.000325  0.002664  0.00112
In  1.45154  4.38507  7.31409  0.000325  0.00112  0.002664
In  16.11462  13.18353  13.18353  -0.000493  0.004754  0.004754
In  13.18353  16.11462  13.18353  0.004754  -0.000493  0.004754
In  13.18353  13.18353  16.11462  0.004754  0.004754  -0.000493
In  16.09505  4.389  4.389  -0.004094  0.006017  0.006017
In  4.389  16.09505  4.389  0.006017  -0.004094  0.006017
In  4.389  4.389  16.09505  0.006017  0.006017  -0.004094
In  13.17437  4.39248  1.46224  -0.003749  0.00103  0.005651
In  13.17437  1.46224  4.39248  -0.003749  0.005651  0.00103
In  4.39248  13.17437  1.46224  0.00103  -0.003749  0.005651
In  1.46224  13.17437  4.39248  0.005651  -0.003749  0.00103
In  4.39248  1.46224  13.17437  0.00103  0.005651  -0.003749
In  1.46224  4.39248  13.17437  0.005651  0.00103  -0.003749
In  16.11578  16.11578  10.2526  0.001722  0.001722  0.013665
In  16.11578  10.2526  16.11578  0.001722  0.013665  0.001722
In  10.2526  16.11578  16.11578  0.013665  0.001722  0.001722
In  16.09795  7.31577  1.45923  -0.002806  0.00747  0.00402
In  16.09795  1.45923  7.31577  -0.002806  0.00402  0.00747
In  7.31577  16.09795  1.45923  0.00747  -0.002806  0.00402
In  1.45923  16.09795  7.31577  0.00402  -0.002806  0.00747
In  7.31577  1.45923  16.09795  0.00747  0.00402  -0.002806
In  1.45923  7.31577  16.09795  0.00402  0.00747  -0.002806
In  10.24991  1.4558  1.4558  0.00648  0.000233  0.000233
In  1.4558  10.24991  1.4558  0.000233  0.00648  0.000233
In  1.4558  1.4558  10.24991  0.000233  0.000233  0.00648
In  16.09821  16.09821  4.39322  0.001656  0.001656  0.000733
In  16.09821  4.39322  16.09821  0.001656  0.000733  0.001656
In  16.10221  13.1765  1.47236  0.002746  0.001786  -0.000899
In  4.39322  16.09821  16.09821  0.000733  0.001656  0.001656
In  13.1765  16.10221  1.47236  0.001786  0.002746  -0.000899
In  16.10221  1.47236  13.1765  0.002746  -0.000899  0.001786
In  13.1765  1.47236  16.10221  0.001786  -0.000899  0.002746
In  1.47236  16.10221  13.1765  -0.000899  0.002746  0.001786
In  1.47236  13.1765  16.10221  -0.000899  0.001786  0.002746
In  4.38869  1.46117  1.46117  0.003962  0.001045  0.001045
In  1.46117  4.38869  1.46117  0.001045  0.003962  0.001045
In  1.46117  1.46117  4.38869  0.001045  0.001045  0.003962
In  16.10438  16.10438  16.10438  0.00248  0.00248  0.00248
In  16.09889  1.46547  1.46547  0.001008  0.002633  0.002633
In  1.46547  16.09889  1.46547  0.002633  0.001008  0.002633
In  1.46547  1.46547  16.09889  0.002633  0.002633  0.001008
P  11.7694  11.7694  8.81817  -0.046221  -0.046221  -0.011059
P  11.7694  8.81817  11.7694  -0.046221  -0.011059  -0.046221
P  8.81817  11.7694  11.7694  -0.011059  -0.046221  -0.046221
P  11.71965  8.7828  5.84901  0.01376  -0.019867  -0.015552
P  11.71965  5.84901  8.7828  0.01376  -0.015552  -0.019867
P  8.7828  11.71965  5.84901  -0.019867  0.01376  -0.015552
P  8.7828  5.84901  11.71965  -0.019867  -0.015552  0.01376
P  5.84901  11.71965  8.7828  -0.015552  0.01376  -0.019867
P  5.84901  8.7828  11.71965  -0.015552  -0.019867  0.01376
P  8.75681  5.78748  5.78748  -0.010125  0.006602  0.006602
P  5.78748  8.75681  5.78748  0.006602  -0.010125  0.006602
P  5.78748  5.78748  8.75681  0.006602  0.006602  -0.010125
P  14.63594  8.78684  8.78684  0.000899  0.006543  0.006543
P  8.78684  14.63594  8.78684  0.006543  0.000899  0.006543
P  8.78684  8.78684  14.63594  0.006543  0.006543  0.000899
P  8.77966  8.77966  2.92608  -0.000312  -0.000312  -0.002055
P  8.77966  2.92608  8.77966  -0.000312  -0.002055  -0.000312
P  2.92608  8.77966  8.77966  -0.002055  -0.000312  -0.000312
P  14.65378  11.72482  11.72482  -0.010767  -0.005547  -0.005547
P  11.72482  14.65378  11.72482  -0.005547  -0.010767  -0.005547
P  11.72482  11.72482  14.65378  -0.005547  -0.005547  -0.010767
P  14.63125  11.70516  5.85998  0.001117  0.006232  0.007337
P  11.70516  14.63125  5.85998  0.006232  0.001117  0.007337
P  14.63125  5.85998  11.70516  0.001117  0.007337  0.006232
P  11.70516  5.85998  14.63125  0.006232  0.007337  0.001117
P  5.85998  14.63125  11.70516  0.007337  0.001117  0.006232
P  5.85998  11.70516  14.63125  0.007337  0.006232  0.001117
P  14.63549  5.85619  5.85619  0.006761  -0.003434  -0.003434
P  11.70825  11.70825  2.92906  0.000706  0.000706  -0.000511
P  11.70825  2.92906  11.70825  0.000706  -0.000511  0.000706
P  5.85619  14.63549  5.85619  -0.003434  0.006761  -0.003434
P  5.85619  5.85619  14.63549  -0.003434  -0.003434  0.006761
P  2.92906  11.70825  11.70825  -0.000511  0.000706  0.000706
P  11.70959  5.85476  2.9263  -0.000633  -0.002492  -0.002373
P  11.70959  2.9263  5.85476  -0.000633  -0.002373  -0.002492
P  5.85476  11.70959  2.9263  -0.002492  -0.000633  -0.002373
P  2.9263  11.70959  5.85476  -0.002373  -0.000633  -0.002492
P  5.85476  2.9263  11.70959  -0.002492  -0.002373  -0.000633
P  2.9263  5.85476  11.70959  -0.002373  -0.002492  -0.000633
P  5.84159  5.84159  2.90891  -0.00183  -0.00183  0.001138
P  5.84159  2.90891  5.84159  -0.00183  0.001138  -0.00183
P  2.90891  5.84159  5.84159  0.001138  -0.00183  -0.00183
P  14.66697  14.66697  8.78034  -0.012778  -0.012778  -0.004754
P  14.66697  8.78034  14.66697  -0.012778  -0.004754  -0.012778
P  8.78034  14.66697  14.66697  -0.004754  -0.012778  -0.012778
P  14.6433  8.78726  2.92065  0.005097  -0.004577  -0.004463
P  14.6433  2.92065  8.78726  0.005097  -0.004463  -0.004577
P  8.78726  14.6433  2.92065  -0.004577  0.005097  -0.004463
P  8.78726  2.92065  14.6433  -0.004577  -0.004463  0.005097
P  2.92065  14.6433  8.78726  -0.004463  0.005097  -0.004577
P  2.92065  8.78726  14.6433  -0.004463  -0.004577  0.005097
P  8.7695  2.90238  2.90238  -0.003639  0.002396  0.002396
P  2.90238  8.7695  2.90238  0.002396  -0.003639  0.002396
P  2.90238  2.90238  8.7695  0.002396  0.002396  -0.003639
P  0.00121  11.70968  8.78299  -0.002383  0.000863  0.002387
P  0.00121  8.78299  11.70968  -0.002383  0.002387  0.000863
P  11.70968  0.00121  8.78299  0.000863  -0.002383  0.002387
P  8.78299  0.00121  11.70968  0.002387  -0.002383  0.000863
P  11.70968  8.78299  0.00121  0.000863  0.002387  -0.002383
P  8.78299  11.70968  0.00121  0.002387  0.000863  -0.002383
P  17.56015  8.78122  5.85478  0.000217  0.000474  0.000657
P  17.56015  5.85478  8.78122  0.000217  0.000657  0.000474
P  8.78122  17.56015  5.85478  0.000474  0.000217  0.000657
P  5.85478  17.56015  8.78122  0.000657  0.000217  0.000474
P  8.78122  5.85478  17.56015  0.000474  0.000657  0.000217
P  5.85478  8.78122  17.56015  0.000657  0.000474  0.000217
P  14.64327  14.64327  14.64327  -0.003689  -0.003689  -0.003689
P  14.63507  14.63507  2.93395  -0.001662  -0.001662  -0.000444
P  14.63507  2.93395  14.63507  -0.001662  -0.000444  -0.001662
P  2.93395  14.63507  14.63507  -0.000444  -0.001662  -0.001662
P  14.63231  2.92757  2.92757  0.001179  -0.002343  -0.002343
P  2.92757  14.63231  2.92757  -0.002343  0.001179  -0.002343
P  2.92757  2.92757  14.63231  -0.002343  -0.002343  0.001179
P  2.92179  2.92179  2.92179  -0.000604  -0.000604  -0.000604
P  0.01022  14.64344  11.71334  -0.004438  -0.001767  -0.003115
P  0.01022  11.71334  14.64344  -0.004438  -0.003115  -0.001767
P  14.64344  0.01022  11.71334  -0.001767  -0.004438  -0.003115
P  14.64344  11.71334  0.01022  -0.001767  -0.003115  -0.004438
P  11.71334  0.01022  14.64344  -0.003115  -0.004438  -0.001767
P  11.71334  14.64344  0.01022  -0.003115  -0.001767  -0.004438
P  17.56021  14.63365  5.85464  -0.00142  0.002561  -0.000121
P  14.63365  17.56021  5.85464  0.002561  -0.00142  -0.000121
P  17.56021  5.85464  14.63365  -0.00142  -0.000121  0.002561
P  14.63365  5.85464  17.56021  0.002561  -0.000121  -0.00142
P  0.00219  11.70923  2.93091  -0.000809  -0.000336  -0.000907
P  5.85464  17.56021  14.63365  -0.000121  -0.00142  0.002561
P  5.85464  14.63365  17.56021  -0.000121  0.002561  -0.00142
P  11.70923  0.00219  2.93091  -0.000336  -0.000809  -0.000907
P  0.00219  2.93091  11.70923  -0.000809  -0.000907  -0.000336
P  11.70923  2.93091  0.00219  -0.000336  -0.000907  -0.000809
P  17.55445  5.84981  2.92221  0.002319  -0.003356  -0.001774
P  2.93091  0.00219  11.70923  -0.000907  -0.000809  -0.000336
P  17.55445  2.92221  5.84981  0.002319  -0.001774  -0.003356
P  2.93091  11.70923  0.00219  -0.000907  -0.000336  -0.000809
P  5.84981  17.55445  2.92221  -0.003356  0.002319  -0.001774
P  2.92221  17.55445  5.84981  -0.001774  0.002319  -0.003356
P  5.84981  2.92221  17.55445  -0.003356  -0.001774  0.002319
P  2.92221  5.84981  17.55445  -0.001774  -0.003356  0.002319
P  0.00442  0.00442  8.77849  -0.001862  -0.001862  -0.006868
P  0.00442  8.77849  0.00442  -0.001862  -0.006868  -0.001862
P  8.77849  0.00442  0.00442  -0.006868  -0.001862  -0.001862
P  0.00407  0.00407  14.63617  -0.002113  -0.002113  -0.001484
P  0.00407  14.63617  0.00407  -0.002113  -0.001484  -0.002113
P  14.63617  0.00407  0.00407  -0.001484  -0.002113  -0.002113
P  17.56004  17.56004  2.92728  -0.000853  -0.000853  -0.002169
P  17.56004  2.92728  17.56004  -0.000853  -0.002169  -0.000853
P  2.92728  17.56004  17.56004  -0.002169  -0.000853  -0.000853
216
Lattice="17.561274918 0.0 0.0 0.0 17.561274918 0.0 0.0 0.0 17.561274918" Properties=species:S:1:pos:R:3:forces:R:3 energy=-1039.94040106 stress="-7.13971 0.46679 0.46679 0.46679 -7.13971 0.46679 0.46679 0.46679 -7.13971" pbc="T T T"
In  8.81566  8.81566  8.81566  -0.031344  -0.031344  -0.031344
In  10.33455  10.33455  10.33455  0.129518  0.129518  0.129518
In  10.26356  7.20805  7.20805  0.156116  -0.084133  -0.084133
In  7.20805  10.26356  7.20805  -0.084133  0.156116  -0.084133
In  7.20805  7.20805  10.26356  -0.084133  -0.084133  0.156116
In  13.1615  10.25619  7.34119  0.004738  -0.023805  -0.01959
In  13.1615  7.34119  10.25619  0.004738  -0.01959  -0.023805
In  10.25619  13.1615  7.34119  -0.023805  0.004738  -0.01959
In  10.25619  7.34119  13.1615  -0.023805  -0.01959  0.004738
In  7.34119  13.1615  10.25619  -0.01959  0.004738  -0.023805
In  7.34119  10.25619  13.1615  -0.01959  -0.023805  0.004738
In  10.24253  10.24253  4.39265  -0.000566  -0.000566  0.009321
In  10.24253  4.39265  10.24253  -0.000566  0.009321  -0.000566
In  4.39265  10.24253  10.24253  0.009321  -0.000566  -0.000566
In  7.30562  7.30562  4.36598  0.00494  0.00494  0.000987
In  7.30562  4.36598  7.30562  0.00494  0.000987  0.00494
In  4.36598  7.30562  7.30562  0.000987  0.00494  0.00494
In  13.22097  13.22097  10.26274  0.007662  0.007662  0.014231
In  13.22097  10.26274  13.22097  0.007662  0.014231  0.007662
In  10.26274  13.22097  13.22097  0.014231  0.007662  0.007662
In  13.18419  7.3194  4.38079  -5.3e-5  0.013674  0.002012
In  13.18419  4.38079  7.3194  -5.3e-5  0.002012  0.013674
In  7.3194  13.18419  4.38079  0.013674  -5.3e-5  0.002012
In  4.38079  13.18419  7.3194  0.002012  -5.3e-5  0.013674
In  7.3194  4.38079  13.18419  0.013674  0.002012  -5.3e-5
In  4.38079  7.3194  13.18419  0.002012  0.013674  -5.3e-5
In  10.25057  4.3483  4.3483  0.002378  0.000818  0.000818
In  4.3483  10.25057  4.3483  0.000818  0.002378  0.000818
In  4.3483  4.3483  10.25057  0.000818  0.000818  0.002378
In  16.09748  10.25227  10.25227  0.005119  -0.003691  -0.003691
In  10.25227  16.09748  10.25227  -0.003691  0.005119  -0.003691
In  10.25227  10.25227  16.09748  -0.003691  -0.003691  0.005119
In  16.09542  7.32242  7.32242  -0.001137  -0.003806  -0.003806
In  13.1704  13.1704  4.39696  -0.000308  -0.000308  -0.003576
In  13.1704  4.39696  13.1704  -0.000308  -0.003576  -0.000308
In  7.32242  16.09542  7.32242  -0.003806  -0.001137  -0.003806
In  7.32242  7.32242  16.09542  -0.003806  -0.003806  -0.001137
In  4.39696  13.1704  13.1704  -0.003576  -0.000308  -0.000308
In  10.24506  7.31832  1.46198  0.000486  -0.001602  0.002308
In  7.31832  10.24506  1.46198  -0.001602  0.000486  0.002308
In  10.24506  1.46198  7.31832  0.000486  0.002308  -0.001602
In  7.31832  1.46198  10.24506  -0.001602  0.002308  0.000486
In  1.46198  10.24506  7.31832  0.002308  0.000486  -0.001602
In  1.46198  7.31832  10.24506  0.002308  -0.001602  0.000486
In  4.38404  4.38404  4.38404  -0.000632  -0.000632  -0.000632
In  16.09749  13.1717  7.31989  0.003862  -0.001931  -0.002706
In  13.1717  16.09749  7.31989  -0.001931  0.003862  -0.002706
In  16.09749  7.31989  13.1717  0.003862  -0.002706  -0.001931
In  13.1717  7.31989  16.09749  -0.001931  -0.002706  0.003862
In  7.31989  16.09749  13.1717  -0.002706  0.003862  -0.001931
In  7.31989  13.1717  16.09749  -0.002706  -0.001931  0.003862
In  16.09756  10.24833  4.39504  -0.001627  -0.004254  -0.003944
In  16.09756  4.39504  10.24833  -0.001627  -0.003944  -0.004254
In  10.24833  16.09756  4.39504  -0.004254  -0.001627  -0.003944
In  10.24833  4.39504  16.09756  -0.004254  -0.003944  -0.001627
In  4.39504  16.09756  10.24833  -0.003944  -0.001627  -0.004254
In  4.39504  10.24833  16.09756  -0.003944  -0.004254  -0.001627
In  13.17224  10.24796  1.46373  0.002657  -0.00177  0.004009
In  10.24796  13.17224  1.46373  -0.00177  0.002657  0.004009
In  13.17224  1.46373  10.24796  0.002657  0.004009  -0.00177
In  10.24796  1.46373  13.17224  -0.00177  0.004009  0.002657
In  1.46373  13.17224  10.24796  0.004009  0.002657  -0.00177
In  1.46373  10.24796  13.17224  0.004009  -0.00177  0.002657
In  7.31422  4.38512  1.45156  0.001237  -0.000808  -0.000333
In  7.31422  1.45156  4.38512  0.001237  -0.000333  -0.000808
In  4.38512  7.31422  1.45156  -0.000808  0.001237  -0.000333
In  4.38512  1.45156  7.31422  -0.000808  -0.000333  0.001237
In  1.45156  7.31422  4.38512  -0.000333  0.001237  -0.000808
In  1.45156  4.38512  7.31422  -0.000333  -0.000808  0.001237
In  16.1146  13.18375  13.18375  0.00088  0.003931  0.003931
In  13.18375  16.1146  13.18375  0.003931  0.00088  0.003931
In  13.18375  13.18375  16.1146  0.003931  0.003931  0.00088
In  16.09485  4.38929  4.38929  -0.001129  0.002802  0.002802
In  4.38929  16.09485  4.38929  0.002802  -0.001129  0.002802
In  4.38929  4.38929  16.09485  0.002802  0.002802  -0.001129
In  13.17419  4.39253  1.46251  -0.001207  0.000373  0.002821
In  13.17419  1.46251  4.39253  -0.001207  0.002821  0.000373
In  4.39253  13.17419  1.46251  0.000373  -0.001207  0.002821
In  1.46251  13.17419  4.39253  0.002821  -0.001207  0.000373
In  4.39253  1.46251  13.17419  0.000373  0.002821  -0.001207
In  1.46251  4.39253  13.17419  0.002821  0.000373  -0.001207
In  16.11586  16.11586  10.25326  0.000201  0.000201  0.004375
In  16.11586  10.25326  16.11586  0.000201  0.004375  0.000201
In  10.25326  16.11586  16.11586  0.004375  0.000201  0.000201
In  16.09781  7.31613  1.45942  -0.000551  0.005367  0.002499
In  16.09781  1.45942  7.31613  -0.000551  0.002499  0.005367
In  7.31613  16.09781  1.45942  0.005367  -0.000551  0.002499
In  1.45942  16.09781  7.31613  0.002499  -0.000551  0.005367
In  7.31613  1.45942  16.09781  0.005367  0.002499  -0.000551
In  1.45942  7.31613  16.09781  0.002499  0.005367  -0.000551
In  10.25022  1.45581  1.45581  0.000656  -0.000535  -0.000535
In  1.45581  10.25022  1.45581  -0.000535  0.000656  -0.000535
In  1.45581  1.45581  10.25022  -0.000535  -0.000535  0.000656
In  16.09829  16.09829  4.39325  0.001035  0.001035  -0.000219
In  16.09829  4.39325  16.09829  0.001035  -0.000219  0.001035
In  16.10234  13.17659  1.47231  0.001152  0.001123  -0.000861
In  4.39325  16.09829  16.09829  -0.000219  0.001035  0.001035
In  13.17659  16.10234  1.47231  0.001123  0.001152  -0.000861
In  16.10234  1.47231  13.17659  0.001152  -0.000861  0.001123
In  13.17659  1.47231  16.10234  0.001123  -0.000861  0.001152
In  1.47231  16.10234  13.17659  -0.000861  0.001152  0.001123
In  1.47231  13.17659  16.10234  -0.000861  0.001123  0.001152
In  4.38888  1.46122  1.46122  0.001583  0.000668  0.000668
In  1.46122  4.38888  1.46122  0.000668  0.001583  0.000668
In  1.46122  1.46122  4.38888  0.000668  0.000668  0.001583
In  16.1045  16.1045  16.1045  0.001556  0.001556  0.001556
In  16.09894  1.4656  1.4656  0.000827  0.001229  0.001229
In  1.4656  16.09894  1.4656  0.001229  0.000827  0.001229
In  1.4656  1.4656  16.09894  0.001229  0.001229  0.000827
P  11.76717  11.76717  8.81763  0.004438  0.004438  -0.037545
P  11.76717  8.81763  11.76717  0.004438  -0.037545  0.004438
P  8.81763  11.76717  11.76717  -0.037545  0.004438  0.004438
P  11.72031  8.78184  5.84826  0.025446  -0.007118  -0.029785
P  11.72031  5.84826  8.78184  0.025446  -0.029785  -0.007118
P  8.78184  11.72031  5.84826  -0.007118  0.025446  -0.029785
P  8.78184  5.84826  11.72031  -0.007118  -0.029785  0.025446
P  5.84826  11.72031  8.78184  -0.029785  0.025446  -0.007118
P  5.84826  8.78184  11.72031  -0.029785  -0.007118  0.025446
P  8.75632  5.7878  5.7878  -0.010174  -0.009276  -0.009276
P  5.7878  8.75632  5.7878  -0.009276  -0.010174  -0.009276
P  5.7878  5.7878  8.75632  -0.009276  -0.009276  -0.010174
P  14.63598  8.78715  8.78715  -0.002645  0.003143  0.003143
P  8.78715  14.63598  8.78715  0.003143  -0.002645  0.003143
P  8.78715  8.78715  14.63598  0.003143  0.003143  -0.002645
P  8.77965  8.77965  2.92598  0.002018  0.002018  0.001879
P  8.77965  2.92598  8.77965  0.002018  0.001879  0.002018
P  2.92598  8.77965  8.77965  0.001879  0.002018  0.002018
P  14.65326  11.72455  11.72455  -0.004225  -0.005507  -0.005507
P  11.72455  14.65326  11.72455  -0.005507  -0.004225  -0.005507
P  11.72455  11.72455  14.65326  -0.005507  -0.005507  -0.004225
P  14.6313  11.70546  5.86033  -0.0032  0.003198  0.004205
P  11.70546  14.6313  5.86033  0.003198  -0.0032  0.004205
P  14.6313  5.86033  11.70546  -0.0032  0.004205  0.003198
P  11.70546  5.86033  14.6313  0.003198  0.004205  -0.0032
P  5.86033  14.6313  11.70546  0.004205  -0.0032  0.003198
P  5.86033  11.70546  14.6313  0.004205  0.003198  -0.0032
P  14.63582  5.85602  5.85602  -0.001344  -0.001798  -0.001798
P  11.70828  11.70828  2.92904  -0.000969  -0.000969  0.00203
P  11.70828  2.92904  11.70828  -0.000969  0.00203  -0.000969
P  5.85602  14.63582  5.85602  -0.001798  -0.001344  -0.001798
P  5.85602  5.85602  14.63582  -0.001798  -0.001798  -0.001344
P  2.92904  11.70828  11.70828  0.00203  -0.000969  -0.000969
P  11.70955  5.85464  2.92618  0.001909  0.001258  0.000615
P  11.70955  2.92618  5.85464  0.001909  0.000615  0.001258
P  5.85464  11.70955  2.92618  0.001258  0.001909  0.000615
P  2.92618  11.70955  5.85464  0.000615  0.001909  0.001258
P  5.85464  2.92618  11.70955  0.001258  0.000615  0.001909
P  2.92618  5.85464  11.70955  0.000615  0.001258  0.001909
P  5.8415  5.8415  2.90896  0.0014  0.0014  0.003782
P  5.8415  2.90896  5.8415  0.0014  0.003782  0.0014
P  2.90896  5.8415  5.8415  0.003782  0.0014  0.0014
P  14.66635  14.66635  8.78011  -0.008214  -0.008214  -0.002791
P  14.66635  8.78011  14.66635  -0.008214  -0.002791  -0.008214
P  8.78011  14.66635  14.66635  -0.002791  -0.008214  -0.008214
P  14.64355  8.78704  2.92043  0.002948  -0.004118  -0.003978
P  14.64355  2.92043  8.78704  0.002948  -0.003978  -0.004118
P  8.78704  14.64355  2.92043  -0.004118  0.002948  -0.003978
P  8.78704  2.92043  14.64355  -0.004118  -0.003978  0.002948
P  2.92043  14.64355  8.78704  -0.003978  0.002948  -0.004118
P  2.92043  8.78704  14.64355  -0.003978  -0.004118  0.002948
P  8.76933  2.90249  2.90249  0.000526  0.001238  0.001238
P  2.90249  8.76933  2.90249  0.001238  0.000526  0.001238
P  2.90249  2.90249  8.76933  0.001238  0.001238  0.000526
P  0.0011  11.70973  8.7831  -0.000536  0.000298  0.001787
P  0.0011  8.7831  11.70973  -0.000536  0.001787  0.000298
P  11.70973  0.0011  8.7831  0.000298  -0.000536  0.001787
P  8.7831  0.0011  11.70973  0.001787  -0.000536  0.000298
P  11.70973  8.7831  0.0011  0.000298  0.001787  -0.000536
P  8.7831  11.70973  0.0011  0.001787  0.000298  -0.000536
P  17.56016  8.78124  5.85481  -0.000444  0.001156  0.001572
P  17.56016  5.85481  8.78124  -0.000444  0.001572  0.001156
P  8.78124  17.56016  5.85481  0.001156  -0.000444  0.001572
P  5.85481  17.56016  8.78124  0.001572  -0.000444  0.001156
P  8.78124  5.85481  17.56016  0.001156  0.001572  -0.000444
P  5.85481  8.78124  17.56016  0.001572  0.001156  -0.000444
P  14.64309  14.64309  14.64309  -0.002224  -0.002224  -0.002224
P  14.63499  14.63499  2.93392  -0.001024  -0.001024  -0.000522
P  14.63499  2.93392  14.63499  -0.001024  -0.000522  -0.001024
P  2.93392  14.63499  14.63499  -0.000522  -0.001024  -0.001024
P  14.63236  2.92746  2.92746  0.000719  -0.000397  -0.000397
P  2.92746  14.63236  2.92746  -0.000397  0.000719  -0.000397
P  2.92746  2.92746  14.63236  -0.000397  -0.000397  0.000719
P  2.92176  2.92176  2.92176  -7.1e-5  -7.1e-5  -7.1e-5
P  0.01  14.64336  11.71319  -0.002544  -0.003661  -0.000605
P  0.01  11.71319  14.64336  -0.002544  -0.000605  -0.003661
P  14.64336  0.01  11.71319  -0.003661  -0.002544  -0.000605
P  14.64336  11.71319  0.01  -0.003661  -0.000605  -0.002544
P  11.71319  0.01  14.64336  -0.000605  -0.002544  -0.003661
P  11.71319  14.64336  0.01  -0.000605  -0.003661  -0.002544
P  17.56014  14.63377  5.85463  0.000129  0.000618  2.2e-5
P  14.63377  17.56014  5.85463  0.000618  0.000129  2.2e-5
P  17.56014  5.85463  14.63377  0.000129  2.2e-5  0.000618
P  14.63377  5.85463  17.56014  0.000618  2.2e-5  0.000129
P  0.00216  11.70922  2.93087  -0.001419  0.000898  0.000687
P  5.85463  17.56014  14.63377  2.2e-5  0.000129  0.000618
P  5.85463  14.63377  17.56014  2.2e-5  0.000618  0.000129
P  11.70922  0.00216  2.93087  0.000898  -0.001419  0.000687
P  0.00216  2.93087  11.70922  -0.001419  0.000687  0.000898
P  11.70922  2.93087  0.00216  0.000898  0.000687  -0.001419
P  17.55456  5.84965  2.92213  0.000518  -0.001227  -0.000242
P  2.93087  0.00216  11.70922  0.000687  -0.001419  0.000898
P  17.55456  2.92213  5.84965  0.000518  -0.000242  -0.001227
P  2.93087  11.70922  0.00216  0.000687  0.000898  -0.001419
P  5.84965  17.55456  2.92213  -0.001227  0.000518  -0.000242
P  2.92213  17.55456  5.84965  -0.000242  0.000518  -0.001227
P  5.84965  2.92213  17.55456  -0.001227  -0.000242  0.000518
P  2.92213  5.84965  17.55456  -0.000242  -0.001227  0.000518
P  0.00433  0.00433  8.77816  -0.002344  -0.002344  -0.00261
P  0.00433  8.77816  0.00433  -0.002344  -0.00261  -0.002344
P  8.77816  0.00433  0.00433  -0.00261  -0.002344  -0.002344
P  0.00397  0.00397  14.6361  -0.001111  -0.001111  -6.1e-5
P  0.00397  14.6361  0.00397  -0.001111  -6.1e-5  -0.001111
P  14.6361  0.00397  0.00397  -6.1e-5  -0.001111  -0.001111
P  17.56  17.56  2.92718  -8.8e-5  -8.8e-5  -0.001063
P  17.56  2.92718  17.56  -8.8e-5  -0.001063  -8.8e-5
P  2.92718  17.56  17.56  -0.001063  -8.8e-5  -8.8e-5
216
Lattice="17.561274918 0.0 0.0 0.0 17.561274918 0.0 0.0 0.0 17.561274918" Properties=species:S:1:pos:R:3:forces:R:3 energy=-1039.94231334 stress="-7.14061 0.34006 0.34006 0.34006 -7.14061 0.34006 0.34006 0.34006 -7.14061" pbc="T T T"
In  8.80725  8.80725  8.80725  0.079307  0.079307  0.079307
In  10.34944  10.34944  10.34944  -0.046117  -0.046117  -0.046117
In  10.27001  7.20327  7.20327  0.132049  -0.041188  -0.041188
In  7.20327  10.27001  7.20327  -0.041188  0.132049  -0.041188
In  7.20327  7.20327  10.27001  -0.041188  -0.041188  0.132049
In  13.16148  10.25568  7.34039  0.009057  -0.031427  -0.017812
In  13.16148  7.34039  10.25568  0.009057  -0.017812  -0.031427
In  10.25568  13.16148  7.34039  -0.031427  0.009057  -0.017812
In  10.25568  7.34039  13.16148  -0.031427  -0.017812  0.009057
In  7.34039  13.16148  10.25568  -0.017812  0.009057  -0.031427
In  7.34039  10.25568  13.16148  -0.017812  -0.031427  0.009057
In  10.24267  10.24267  4.39312  -0.003742  -0.003742  0.006251
In  10.24267  4.39312  10.24267  -0.003742  0.006251  -0.003742
In  4.39312  10.24267  10.24267  0.006251  -0.003742  -0.003742
In  7.30578  7.30578  4.36624  0.004929  0.004929  -0.003995
In  7.30578  4.36624  7.30578  0.004929  -0.003995  0.004929
In  4.36624  7.30578  7.30578  -0.003995  0.004929  0.004929
In  13.22147  13.22147  10.26389  0.004145  0.004145  0.002674
In  13.22147  10.26389  13.22147  0.004145  0.002674  0.004145
In  10.26389  13.22147  13.22147  0.002674  0.004145  0.004145
In  13.18381  7.31998  4.38119  0.007667  0.011869  -0.004607
In  13.18381  4.38119  7.31998  0.007667  -0.004607  0.011869
In  7.31998  13.18381  4.38119  0.011869  0.007667  -0.004607
In  4.38119  13.18381  7.31998  -0.004607  0.007667  0.011869
In  7.31998  4.38119  13.18381  0.011869  -0.004607  0.007667
In  4.38119  7.31998  13.18381  -0.004607  0.011869  0.007667
In  10.25097  4.34837  4.34837  -0.00412  -0.000161  -0.000161
In  4.34837  10.25097  4.34837  -0.000161  -0.00412  -0.000161
In  4.34837  4.34837  10.25097  -0.000161  -0.000161  -0.00412
In  16.0976  10.25211  10.25211  0.006577  -0.003184  -0.003184
In  10.25211  16.0976  10.25211  -0.003184  0.006577  -0.003184
In  10.25211  10.25211  16.0976  -0.003184  -0.003184  0.006577
In  16.09538  7.32224  7.32224  -0.000946  -0.003132  -0.003132
In  13.17034  13.17034  4.39683  0.000621  0.000621  -0.003642
In  13.17034  4.39683  13.17034  0.000621  -0.003642  0.000621
In  7.32224  16.09538  7.32224  -0.003132  -0.000946  -0.003132
In  7.32224  7.32224  16.09538  -0.003132  -0.003132  -0.000946
In  4.39683  13.17034  13.17034  -0.003642  0.000621  0.000621
In  10.24508  7.31826  1.46212  0.000317  -0.00152  0.001202
In  7.31826  10.24508  1.46212  -0.00152  0.000317  0.001202
In  10.24508  1.46212  7.31826  0.000317  0.001202  -0.00152
In  7.31826  1.46212  10.24508  -0.00152  0.001202  0.000317