216
Lattice="17.561274918 0.0 0.0 0.0 17.561274918 0.0 0.0 0.0 17.561274918" Properties=species:S:1:pos:R:3:forces:R:3 energy=-1045.37160458 stress="-10.83907 -0.56188 -0.56188 -0.56188 -10.83907 -0.56188 -0.56188 -0.56188 -10.83907" pbc="T T T"
In  11.58307  11.58307  8.78506  -0.008311  -0.008311  0.025254
In  11.58307  8.78506  11.58307  -0.008311  0.025254  -0.008311
In  8.78506  11.58307  11.58307  0.025254  -0.008311  -0.008311
In  11.74551  8.81161  5.86818  0.003583  0.003899  -0.011034
In  11.74551  5.86818  8.81161  0.003583  -0.011034  0.003899
In  8.81161  11.74551  5.86818  0.003899  0.003583  -0.011034
In  8.81161  5.86818  11.74551  0.003899  -0.011034  0.003583
In  5.86818  11.74551  8.81161  -0.011034  0.003583  0.003899
In  5.86818  8.81161  11.74551  -0.011034  0.003899  0.003583
In  8.81031  5.90119  5.90119  0.002716  -0.000331  -0.000331
In  5.90119  8.81031  5.90119  -0.000331  0.002716  -0.000331
In  5.90119  5.90119  8.81031  -0.000331  -0.000331  0.002716
In  14.64297  8.78041  8.78041  9.0e-5  0.0011  0.0011
In  8.78041  14.64297  8.78041  0.0011  9.0e-5  0.0011
In  8.78041  8.78041  14.64297  0.0011  0.0011  9.0e-5
In  8.78836  8.78836  2.93736  0.000469  0.000469  -0.005688
In  8.78836  2.93736  8.78836  0.000469  -0.005688  0.000469
In  2.93736  8.78836  8.78836  -0.005688  0.000469  0.000469
In  14.60262  11.69631  11.69631  -0.00125  0.001409  0.001409
In  11.69631  14.60262  11.69631  0.001409  -0.00125  0.001409
In  11.69631  11.69631  14.60262  0.001409  0.001409  -0.00125
In  14.64337  11.72133  5.85551  0.002142  -0.002426  -0.004977
In  11.72133  14.64337  5.85551  -0.002426  0.002142  -0.004977
In  14.64337  5.85551  11.72133  0.002142  -0.004977  -0.002426
In  11.72133  5.85551  14.64337  -0.002426  -0.004977  0.002142
In  5.85551  14.64337  11.72133  -0.004977  0.002142  -0.002426
In  5.85551  11.72133  14.64337  -0.004977  -0.002426  0.002142
In  14.6356  5.85588  5.85588  0.003436  -0.001918  -0.001918
In  11.70958  11.70958  2.93118  0.00165  0.00165  -0.001858
In  11.70958  2.93118  11.70958  0.00165  -0.001858  0.00165
In  5.85588  14.6356  5.85588  -0.001918  0.003436  -0.001918
In  5.85588  5.85588  14.6356  -0.001918  -0.001918  0.003436
In  2.93118  11.70958  11.70958  -0.001858  0.00165  0.00165
In  11.70735  5.8526  2.92582  -0.000393  -0.00284  -0.00211
In  11.70735  2.92582  5.8526  -0.000393  -0.00211  -0.00284
In  5.8526  11.70735  2.92582  -0.00284  -0.000393  -0.00211
In  2.92582  11.70735  5.8526  -0.00211  -0.000393  -0.00284
In  5.8526  2.92582  11.70735  -0.00284  -0.00211  -0.000393
In  2.92582  5.8526  11.70735  -0.00211  -0.00284  -0.000393
In  5.8707  5.8707  2.94983  -0.001169  -0.001169  -0.004844
In  5.8707  2.94983  5.8707  -0.001169  -0.004844  -0.001169
In  2.94983  5.8707  5.8707  -0.004844  -0.001169  -0.001169
In  14.59144  14.59144  8.78428  -0.001404  -0.001404  0.010422
In  14.59144  8.78428  14.59144  -0.001404  0.010422  -0.001404
In  8.78428  14.59144  14.59144  0.010422  -0.001404  -0.001404
In  14.6345  8.78236  2.92922  0.001685  0.002784  0.001956
In  14.6345  2.92922  8.78236  0.001685  0.001956  0.002784
In  8.78236  14.6345  2.92922  0.002784  0.001685  0.001956
In  8.78236  2.92922  14.6345  0.002784  0.001956  0.001685
In  2.92922  14.6345  8.78236  0.001956  0.001685  0.002784
In  2.92922  8.78236  14.6345  0.001956  0.002784  0.001685
In  8.78631  2.93837  2.93837  0.006191  -0.001023  -0.001023
In  2.93837  8.78631  2.93837  -0.001023  0.006191  -0.001023
In  2.93837  2.93837  8.78631  -0.001023  -0.001023  0.006191
In  0.00237  11.70757  8.78464  0.00017  -0.000412  -0.000353
In  0.00237  8.78464  11.70757  0.00017  -0.000353  -0.000412
In  11.70757  0.00237  8.78464  -0.000412  0.00017  -0.000353
In  8.78464  0.00237  11.70757  -0.000353  0.00017  -0.000412
In  11.70757  8.78464  0.00237  -0.000412  -0.000353  0.00017
In  8.78464  11.70757  0.00237  -0.000353  -0.000412  0.00017
In  0.00443  8.78337  5.85687  0.00025  0.003417  4.8e-5
In  0.00443  5.85687  8.78337  0.00025  4.8e-5  0.003417
In  8.78337  0.00443  5.85687  0.003417  0.00025  4.8e-5
In  5.85687  0.00443  8.78337  4.8e-5  0.00025  0.003417
In  8.78337  5.85687  0.00443  0.003417  4.8e-5  0.00025
In  5.85687  8.78337  0.00443  4.8e-5  0.003417  0.00025
In  14.62969  14.62969  14.62969  -0.000198  -0.000198  -0.000198
In  14.63554  14.63554  2.92114  0.003647  0.003647  -0.000899
In  14.63554  2.92114  14.63554  0.003647  -0.000899  0.003647
In  2.92114  14.63554  14.63554  -0.000899  0.003647  0.003647
In  14.63709  2.92794  2.92794  -0.00026  0.001317  0.001317
In  2.92794  14.63709  2.92794  0.001317  -0.00026  0.001317
In  2.92794  2.92794  14.63709  0.001317  0.001317  -0.00026
In  2.93648  2.93648  2.93648  -0.000522  -0.000522  -0.000522
In  17.55011  14.6277  11.70567  -0.00033  0.001225  0.001582
In  17.55011  11.70567  14.6277  -0.00033  0.001582  0.001225
In  14.6277  17.55011  11.70567  0.001225  -0.00033  0.001582
In  14.6277  11.70567  17.55011  0.001225  0.001582  -0.00033
In  11.70567  17.55011  14.6277  0.001582  -0.00033  0.001225
In  11.70567  14.6277  17.55011  0.001582  0.001225  -0.00033
In  0.00317  14.64172  5.85711  0.000879  -0.001853  -0.004325
In  14.64172  0.00317  5.85711  -0.001853  0.000879  -0.004325
In  0.00317  5.85711  14.64172  0.000879  -0.004325  -0.001853
In  14.64172  5.85711  0.00317  -0.001853  -0.004325  0.000879
In  17.55982  11.70757  2.92439  0.001243  0.000842  -0.000602
In  5.85711  0.00317  14.64172  -0.004325  0.000879  -0.001853
In  5.85711  14.64172  0.00317  -0.004325  -0.001853  0.000879
In  11.70757  17.55982  2.92439  0.000842  0.001243  -0.000602
In  17.55982  2.92439  11.70757  0.001243  -0.000602  0.000842
In  11.70757  2.92439  17.55982  0.000842  -0.000602  0.001243
In  0.01024  5.85829  2.93478  -0.002668  0.000965  0.001228
In  2.92439  17.55982  11.70757  -0.000602  0.001243  0.000842
In  0.01024  2.93478  5.85829  -0.002668  0.001228  0.000965
In  2.92439  11.70757  17.55982  -0.000602  0.000842  0.001243
In  5.85829  0.01024  2.93478  0.000965  -0.002668  0.001228
In  2.93478  0.01024  5.85829  0.001228  -0.002668  0.000965
In  5.85829  2.93478  0.01024  0.000965  0.001228  -0.002668
In  2.93478  5.85829  0.01024  0.001228  0.000965  -0.002668
In  17.55049  17.55049  8.78523  0.001557  0.001557  0.00768
In  17.55049  8.78523  17.55049  0.001557  0.00768  0.001557
In  8.78523  17.55049  17.55049  0.00768  0.001557  0.001557
In  17.56005  17.56005  14.63463  0.001121  0.001121  0.001654
In  17.56005  14.63463  17.56005  0.001121  0.001654  0.001121
In  14.63463  17.56005  17.56005  0.001654  0.001121  0.001121
In  0.00387  0.00387  2.92866  0.001166  0.001166  0.000476
In  0.00387  2.92866  0.00387  0.001166  0.000476  0.001166
In  2.92866  0.00387  0.00387  0.000476  0.001166  0.001166
P  8.36413  8.36413  8.36413  0.028516  0.028516  0.028516
P  9.94735  9.94735  9.94735  0.04085  0.04085  0.04085
P  10.25963  7.39997  7.39997  -0.095117  0.003377  0.003377
P  7.39997  10.25963  7.39997  0.003377  -0.095117  0.003377
P  7.39997  7.39997  10.25963  0.003377  0.003377  -0.095117
P  13.19028  10.26399  7.32967  0.002637  -0.005437  0.000277
P  13.19028  7.32967  10.26399  0.002637  0.000277  -0.005437
P  10.26399  13.19028  7.32967  -0.005437  0.002637  0.000277
P  10.26399  7.32967  13.19028  -0.005437  0.000277  0.002637
P  7.32967  13.19028  10.26399  0.000277  0.002637  -0.005437
P  7.32967  10.26399  13.19028  0.000277  -0.005437  0.002637
P  10.25097  10.25097  4.40496  0.000467  0.000467  0.000266
P  10.25097  4.40496  10.25097  0.000467  0.000266  0.000467
P  4.40496  10.25097  10.25097  0.000266  0.000467  0.000467
P  7.33602  7.33602  4.41856  0.000473  0.000473  0.003957
P  7.33602  4.41856  7.33602  0.000473  0.003957  0.000473
P  4.41856  7.33602  7.33602  0.003957  0.000473  0.000473
P  13.09685  13.09685  10.21477  0.00155  0.00155  -0.013805
P  13.09685  10.21477  13.09685  0.00155  -0.013805  0.00155
P  10.21477  13.09685  13.09685  -0.013805  0.00155  0.00155
P  13.16654  7.31561  4.39303  -0.003595  0.00367  0.010568
P  13.16654  4.39303  7.31561  -0.003595  0.010568  0.00367
P  7.31561  13.16654  4.39303  0.00367  -0.003595  0.010568
P  4.39303  13.16654  7.31561  0.010568  -0.003595  0.00367
P  7.31561  4.39303  13.16654  0.00367  0.010568  -0.003595
P  4.39303  7.31561  13.16654  0.010568  0.00367  -0.003595
P  10.24552  4.41107  4.41107  -0.002409  0.001259  0.001259
P  4.41107  10.24552  4.41107  0.001259  -0.002409  0.001259
P  4.41107  4.41107  10.24552  0.001259  0.001259  -0.002409
P  16.09894  10.24693  10.24693  -0.00066  2.6e-5  2.6e-5
P  10.24693  16.09894  10.24693  2.6e-5  -0.00066  2.6e-5
P  10.24693  10.24693  16.09894  2.6e-5  2.6e-5  -0.00066
P  16.10248  7.31673  7.31673  -0.001167  0.000649  0.000649
P  13.17546  13.17546  4.38957  0.000459  0.000459  0.001418
P  13.17546  4.38957  13.17546  0.000459  0.001418  0.000459
P  7.31673  16.10248  7.31673  0.000649  -0.001167  0.000649
P  7.31673  7.31673  16.10248  0.000649  0.000649  -0.001167
P  4.38957  13.17546  13.17546  0.001418  0.000459  0.000459
P  10.24541  7.3223  1.46815  -0.000713  0.002099  0.001337
P  7.3223  10.24541  1.46815  0.002099  -0.000713  0.001337
P  10.24541  1.46815  7.3223  -0.000713  0.001337  0.002099
P  7.3223  1.46815  10.24541  0.002099  0.001337  -0.000713
P  1.46815  10.24541  7.3223  0.001337  -0.000713  0.002099
P  1.46815  7.3223  10.24541  0.001337  0.002099  -0.000713
P  4.40187  4.40187  4.40187  -0.001703  -0.001703  -0.001703
P  16.10407  13.17611  7.32205  -0.000638  0.000102  0.001125
P  13.17611  16.10407  7.32205  0.000102  -0.000638  0.001125
P  16.10407  7.32205  13.17611  -0.000638  0.001125  0.000102
P  13.17611  7.32205  16.10407  0.000102  0.001125  -0.000638
P  7.32205  16.10407  13.17611  0.001125  -0.000638  0.000102
P  7.32205  13.17611  16.10407  0.001125  0.000102  -0.000638
P  16.09882  10.24544  4.39365  -0.000383  0.000288  0.001278
P  16.09882  4.39365  10.24544  -0.000383  0.001278  0.000288
P  10.24544  16.09882  4.39365  0.000288  -0.000383  0.001278
P  10.24544  4.39365  16.09882  0.000288  0.001278  -0.000383
P  4.39365  16.09882  10.24544  0.001278  -0.000383  0.000288
P  4.39365  10.24544  16.09882  0.001278  0.000288  -0.000383
P  13.17188  10.2466  1.46604  -0.000499  0.000474  0.000873
P  10.2466  13.17188  1.46604  0.000474  -0.000499  0.000873
P  13.17188  1.46604  10.2466  -0.000499  0.000873  0.000474
P  10.2466  1.46604  13.17188  0.000474  0.000873  -0.000499
P  1.46604  13.17188  10.2466  0.000873  -0.000499  0.000474
P  1.46604  10.2466  13.17188  0.000873  0.000474  -0.000499
P  7.32118  4.4007  1.47575  -0.002208  0.001028  -0.000789
P  7.32118  1.47575  4.4007  -0.002208  -0.000789  0.001028
P  4.4007  7.32118  1.47575  0.001028  -0.002208  -0.000789
P  4.4007  1.47575  7.32118  0.001028  -0.000789  -0.002208
P  1.47575  7.32118  4.4007  -0.000789  -0.002208  0.001028
P  1.47575  4.4007  7.32118  -0.000789  0.001028  -0.002208
P  16.079  13.15938  13.15938  -0.002367  -0.006819  -0.006819
P  13.15938  16.079  13.15938  -0.006819  -0.002367  -0.006819
P  13.15938  13.15938  16.079  -0.006819  -0.006819  -0.002367
P  16.10137  4.39269  4.39269  -0.00054  0.001915  0.001915
P  4.39269  16.10137  4.39269  0.001915  -0.00054  0.001915
P  4.39269  4.39269  16.10137  0.001915  0.001915  -0.00054
P  13.17262  4.3905  1.46218  5.6e-5  0.001073  0.001193
P  13.17262  1.46218  4.3905  5.6e-5  0.001193  0.001073
P  4.3905  13.17262  1.46218  0.001073  5.6e-5  0.001193
P  1.46218  13.17262  4.3905  0.001193  5.6e-5  0.001073
P  4.3905  1.46218  13.17262  0.001073  0.001193  5.6e-5
P  1.46218  4.3905  13.17262  0.001193  0.001073  5.6e-5
P  16.07288  16.07288  10.23655  0.000661  0.000661  -0.006976
P  16.07288  10.23655  16.07288  0.000661  -0.006976  0.000661
P  10.23655  16.07288  16.07288  -0.006976  0.000661  0.000661
P  16.104  7.31894  1.46937  -0.002333  0.000685  0.002714
P  16.104  1.46937  7.31894  -0.002333  0.002714  0.000685
P  7.31894  16.104  1.46937  0.000685  -0.002333  0.002714
P  1.46937  16.104  7.31894  0.002714  -0.002333  0.000685
P  7.31894  1.46937  16.104  0.000685  0.002714  -0.002333
P  1.46937  7.31894  16.104  0.002714  0.000685  -0.002333
P  10.24123  1.46354  1.46354  -0.003168  0.00201  0.00201
P  1.46354  10.24123  1.46354  0.00201  -0.003168  0.00201
P  1.46354  1.46354  10.24123  0.00201  0.00201  -0.003168
P  16.09957  16.09957  4.38805  -0.000952  -0.000952  0.002867
P  16.09957  4.38805  16.09957  -0.000952  0.002867  -0.000952
P  16.09458  13.16779  1.45645  -0.002391  -0.002922  -2.6e-5
P  4.38805  16.09957  16.09957  0.002867  -0.000952  -0.000952
P  13.16779  16.09458  1.45645  -0.002922  -0.002391  -2.6e-5
P  16.09458  1.45645  13.16779  -0.002391  -2.6e-5  -0.002922
P  13.16779  1.45645  16.09458  -0.002922  -2.6e-5  -0.002391
P  1.45645  16.09458  13.16779  -2.6e-5  -0.002391  -0.002922
P  1.45645  13.16779  16.09458  -2.6e-5  -0.002922  -0.002391
P  4.39251  1.469  1.469  0.000305  -0.000251  -0.000251
P  1.469  4.39251  1.469  -0.000251  0.000305  -0.000251
P  1.469  1.469  4.39251  -0.000251  -0.000251  0.000305
P  16.09464  16.09464  16.09464  -0.003705  -0.003705  -0.003705
P  16.09915  1.46347  1.46347  -0.002387  -0.000506  -0.000506
P  1.46347  16.09915  1.46347  -0.000506  -0.002387  -0.000506
P  1.46347  1.46347  16.09915  -0.000506  -0.000506  -0.002387
216
Lattice="17.561274918 0.0 0.0 0.0 17.561274918 0.0 0.0 0.0 17.561274918" Properties=species:S:1:pos:R:3:forces:R:3 energy=-1045.3872506 stress="-10.86091 -0.19743 -0.19743 -0.19743 -10.86091 -0.19743 -0.19743 -0.19743 -10.86091" pbc="T T T"
In  11.58967  11.58967  8.79669  0.003427  0.003427  0.060799
In  11.58967  8.79669  11.58967  0.003427  0.060799  0.003427
In  8.79669  11.58967  11.58967  0.060799  0.003427  0.003427
In  11.73397  8.81002  5.87815  0.014427  0.043235  -0.019573
In  11.73397  5.87815  8.81002  0.014427  -0.019573  0.043235
In  8.81002  11.73397  5.87815  0.043235  0.014427  -0.019573
In  8.81002  5.87815  11.73397  0.043235  -0.019573  0.014427
In  5.87815  11.73397  8.81002  -0.019573  0.014427  0.043235
In  5.87815  8.81002  11.73397  -0.019573  0.043235  0.014427
In  8.79213  5.8945  5.8945  0.048059  0.033503  0.033503
In  5.8945  8.79213  5.8945  0.033503  0.048059  0.033503
In  5.8945  5.8945  8.79213  0.033503  0.033503  0.048059
In  14.64324  8.78046  8.78046  -0.017422  0.004376  0.004376
In  8.78046  14.64324  8.78046  0.004376  -0.017422  0.004376
In  8.78046  8.78046  14.64324  0.004376  0.004376  -0.017422
In  8.78741  8.78741  2.9365  0.010631  0.010631  -0.018659
In  8.78741  2.9365  8.78741  0.010631  -0.018659  0.010631
In  2.9365  8.78741  8.78741  -0.018659  0.010631  0.010631
In  14.59632  11.69439  11.69439  0.022151  0.006415  0.006415
In  11.69439  14.59632  11.69439  0.006415  0.022151  0.006415
In  11.69439  11.69439  14.59632  0.006415  0.006415  0.022151
In  14.64217  11.71987  5.85578  -0.007581  -0.010394  0.002371
In  11.71987  14.64217  5.85578  -0.010394  -0.007581  0.002371
In  14.64217  5.85578  11.71987  -0.007581  0.002371  -0.010394
In  11.71987  5.85578  14.64217  -0.010394  0.002371  -0.007581
In  5.85578  14.64217  11.71987  0.002371  -0.007581  -0.010394
In  5.85578  11.71987  14.64217  0.002371  -0.010394  -0.007581
In  14.63814  5.85693  5.85693  0.000148  -0.004279  -0.004279
In  11.71188  11.71188  2.93009  0.001865  0.001865  -0.001704
In  11.71188  2.93009  11.71188  0.001865  -0.001704  0.001865
In  5.85693  14.63814  5.85693  -0.004279  0.000148  -0.004279
In  5.85693  5.85693  14.63814  -0.004279  -0.004279  0.000148
In  2.93009  11.71188  11.71188  -0.001704  0.001865  0.001865
In  11.70778  5.85319  2.92597  -0.003864  -0.010256  -0.003093
In  11.70778  2.92597  5.85319  -0.003864  -0.003093  -0.010256
In  5.85319  11.70778  2.92597  -0.010256  -0.003864  -0.003093
In  2.92597  11.70778  5.85319  -0.003093  -0.003864  -0.010256
In  5.85319  2.92597  11.70778  -0.010256  -0.003093  -0.003864
In  2.92597  5.85319  11.70778  -0.003093  -0.010256  -0.003864
In  5.87059  5.87059  2.94842  -0.022524  -0.022524  -0.029259
In  5.87059  2.94842  5.87059  -0.022524  -0.029259  -0.022524
In  2.94842  5.87059  5.87059  -0.029259  -0.022524  -0.022524
In  14.59212  14.59212  8.78692  0.008285  0.008285  0.0094
In  14.59212  8.78692  14.59212  0.008285  0.0094  0.008285
In  8.78692  14.59212  14.59212  0.0094  0.008285  0.008285
In  14.6329  8.78416  2.93203  -0.000865  0.001911  0.006465
In  14.6329  2.93203  8.78416  -0.000865  0.006465  0.001911
In  8.78416  14.6329  2.93203  0.001911  -0.000865  0.006465
In  8.78416  2.93203  14.6329  0.001911  0.006465  -0.000865
In  2.93203  14.6329  8.78416  0.006465  -0.000865  0.001911
In  2.93203  8.78416  14.6329  0.006465  0.001911  -0.000865
In  8.78564  2.93901  2.93901  0.018859  0.002484  0.002484
In  2.93901  8.78564  2.93901  0.002484  0.018859  0.002484
In  2.93901  2.93901  8.78564  0.002484  0.002484  0.018859
In  0.00167  11.70817  8.7847  -0.001969  -0.000309  0.001086
In  0.00167  8.7847  11.70817  -0.001969  0.001086  -0.000309
In  11.70817  0.00167  8.7847  -0.000309  -0.001969  0.001086
In  8.7847  0.00167  11.70817  0.001086  -0.001969  -0.000309
In  11.70817  8.7847  0.00167  -0.000309  0.001086  -0.001969
In  8.7847  11.70817  0.00167  0.001086  -0.000309  -0.001969
In  0.0051  8.78418  5.8579  0.001203  0.004428  -0.00449
In  0.0051  5.8579  8.78418  0.001203  -0.00449  0.004428
In  8.78418  0.0051  5.8579  0.004428  0.001203  -0.00449
In  5.8579  0.0051  8.78418  -0.00449  0.001203  0.004428
In  8.78418  5.8579  0.0051  0.004428  -0.00449  0.001203
In  5.8579  8.78418  0.0051  -0.00449  0.004428  0.001203
In  14.6262  14.6262  14.6262  0.009239  0.009239  0.009239
In  14.63706  14.63706  2.92106  0.002275  0.002275  -0.004371
In  14.63706  2.92106  14.63706  0.002275  -0.004371  0.002275
In  2.92106  14.63706  14.63706  -0.004371  0.002275  0.002275
In  14.63751  2.92895  2.92895  -6.8e-5  -0.004068  -0.004068
In  2.92895  14.63751  2.92895  -0.004068  -6.8e-5  -0.004068
In  2.92895  2.92895  14.63751  -0.004068  -0.004068  -6.8e-5
In  2.93561  2.93561  2.93561  0.001408  0.001408  0.001408
In  17.5484  14.62744  11.70479  0.002563  0.000987  0.01067
In  17.5484  11.70479  14.62744  0.002563  0.01067  0.000987
In  14.62744  17.5484  11.70479  0.000987  0.002563  0.01067
In  14.62744  11.70479  17.5484  0.000987  0.01067  0.002563
In  11.70479  17.5484  14.62744  0.01067  0.002563  0.000987
In  11.70479  14.62744  17.5484  0.01067  0.000987  0.002563
In  0.00314  14.64  5.85733  -0.001048  0.001058  -0.005206
In  14.64  0.00314  5.85733  0.001058  -0.001048  -0.005206
In  0.00314  5.85733  14.64  -0.001048  -0.005206  0.001058
In  14.64  5.85733  0.00314  0.001058  -0.005206  -0.001048
In  17.56046  11.70818  2.92397  -0.00202  0.002652  -0.002061
In  5.85733  0.00314  14.64  -0.005206  -0.001048  0.001058
In  5.85733  14.64  0.00314  -0.005206  0.001058  -0.001048
In  11.70818  17.56046  2.92397  0.002652  -0.00202  -0.002061
In  17.56046  2.92397  11.70818  -0.00202  -0.002061  0.002652
In  11.70818  2.92397  17.56046  0.002652  -0.002061  -0.00202
In  0.00881  5.85963  2.93462  0.001606  -0.000815  -0.000453
In  2.92397  17.56046  11.70818  -0.002061  -0.00202  0.002652
In  0.00881  2.93462  5.85963  0.001606  -0.000453  -0.000815
In  2.92397  11.70818  17.56046  -0.002061  0.002652  -0.00202
In  5.85963  0.00881  2.93462  -0.000815  0.001606  -0.000453
In  2.93462  0.00881  5.85963  -0.000453  0.001606  -0.000815
In  5.85963  2.93462  0.00881  -0.000815  -0.000453  0.001606
In  2.93462  5.85963  0.00881  -0.000453  -0.000815  0.001606
In  17.55224  17.55224  8.7863  -0.000133  -0.000133  0.011233
In  17.55224  8.7863  17.55224  -0.000133  0.011233  -0.000133
In  8.7863  17.55224  17.55224  0.011233  -0.000133  -0.000133
In  17.55947  17.55947  14.634  0.000217  0.000217  0.008051
In  17.55947  14.634  17.55947  0.000217  0.008051  0.000217
In  14.634  17.55947  17.55947  0.008051  0.000217  0.000217
In  0.00418  0.00418  2.92907  0.002486  0.002486  -0.003331
In  0.00418  2.92907  0.00418  0.002486  -0.003331  0.002486
In  2.92907  0.00418  0.00418  -0.003331  0.002486  0.002486
P  8.34719  8.34719  8.34719  -0.255047  -0.255047  -0.255047
P  9.98456  9.98456  9.98456  0.038153  0.038153  0.038153
P  10.21084  7.41536  7.41536  -0.033018  -0.04862  -0.04862
P  7.41536  10.21084  7.41536  -0.04862  -0.033018  -0.04862
P  7.41536  7.41536  10.21084  -0.04862  -0.04862  -0.033018
P  13.18562  10.26442  7.33246  0.018599  -0.002853  -0.011204
P  13.18562  7.33246  10.26442  0.018599  -0.011204  -0.002853
P  10.26442  13.18562  7.33246  -0.002853  0.018599  -0.011204
P  10.26442  7.33246  13.18562  -0.002853  -0.011204  0.018599
P  7.33246  13.18562  10.26442  -0.011204  0.018599  -0.002853
P  7.33246  10.26442  13.18562  -0.011204  -0.002853  0.018599
P  10.25119  10.25119  4.40059  -0.008139  -0.008139  0.034078
P  10.25119  4.40059  10.25119  -0.008139  0.034078  -0.008139
P  4.40059  10.25119  10.25119  0.034078  -0.008139  -0.008139
P  7.33397  7.33397  4.41283  0.000592  0.000592  -0.016757
P  7.33397  4.41283  7.33397  0.000592  -0.016757  0.000592
P  4.41283  7.33397  7.33397  -0.016757  0.000592  0.000592
P  13.1003  13.1003  10.21202  0.043912  0.043912  0.001053
P  13.1003  10.21202  13.1003  0.043912  0.001053  0.043912
P  10.21202  13.1003  13.1003  0.001053  0.043912  0.043912
P  13.16282  7.31422  4.39831  -0.028751  0.025429  0.039997
P  13.16282  4.39831  7.31422  -0.028751  0.039997  0.025429
P  7.31422  13.16282  4.39831  0.025429  -0.028751  0.039997
P  4.39831  13.16282  7.31422  0.039997  -0.028751  0.025429
P  7.31422  4.39831  13.16282  0.025429  0.039997  -0.028751
P  4.39831  7.31422  13.16282  0.039997  0.025429  -0.028751
P  10.24665  4.41268  4.41268  -0.013374  -0.003104  -0.003104
P  4.41268  10.24665  4.41268  -0.003104  -0.013374  -0.003104
P  4.41268  4.41268  10.24665  -0.003104  -0.003104  -0.013374
P  16.09876  10.24749  10.24749  -0.002564  -0.003593  -0.003593
P  10.24749  16.09876  10.24749  -0.003593  -0.002564  -0.003593
P  10.24749  10.24749  16.09876  -0.003593  -0.003593  -0.002564
P  16.10396  7.31731  7.31731  -0.002547  0.002634  0.002634
P  13.17685  13.17685  4.38892  -0.002147  -0.002147  0.008109
P  13.17685  4.38892  13.17685  -0.002147  0.008109  -0.002147
P  7.31731  16.10396  7.31731  0.002634  -0.002547  0.002634
P  7.31731  7.31731  16.10396  0.002634  0.002634  -0.002547
P  4.38892  13.17685  13.17685  0.008109  -0.002147  -0.002147
P  10.24642  7.32258  1.46868  -0.002911  0.003915  -0.001119
P  7.32258  10.24642  1.46868  0.003915  -0.002911  -0.001119
P  10.24642  1.46868  7.32258  -0.002911  -0.001119  0.003915
P  7.32258  1.46868  10.24642  0.003915  -0.001119  -0.002911
P  1.46868  10.24642  7.32258  -0.001119  -0.002911  0.003915
P  1.46868  7.32258  10.24642  -0.001119  0.003915  -0.002911
P  4.4013  4.4013  4.4013  0.00308  0.00308  0.00308
P  16.10277  13.17647  7.32247  0.000658  -0.005868  -0.002073
P  13.17647  16.10277  7.32247  -0.005868  0.000658  -0.002073
P  16.10277  7.32247  13.17647  0.000658  -0.002073  -0.005868
P  13.17647  7.32247  16.10277  -0.005868  -0.002073  0.000658
P  7.32247  16.10277  13.17647  -0.002073  0.000658  -0.005868
P  7.32247  13.17647  16.10277  -0.002073  -0.005868  0.000658
P  16.10081  10.24598  4.39362  -0.011592  0.000469  0.009023
P  16.10081  4.39362  10.24598  -0.011592  0.009023  0.000469
P  10.24598  16.10081  4.39362  0.000469  -0.011592  0.009023
P  10.24598  4.39362  16.10081  0.000469  0.009023  -0.011592
P  4.39362  16.10081  10.24598  0.009023  -0.011592  0.000469
P  4.39362  10.24598  16.10081  0.009023  0.000469  -0.011592
P  13.17228  10.24657  1.46615  -0.0037  -0.00156  0.000278
P  10.24657  13.17228  1.46615  -0.00156  -0.0037  0.000278
P  13.17228  1.46615  10.24657  -0.0037  0.000278  -0.00156
P  10.24657  1.46615  13.17228  -0.00156  0.000278  -0.0037
P  1.46615  13.17228  10.24657  0.000278  -0.0037  -0.00156
P  1.46615  10.24657  13.17228  0.000278  -0.00156  -0.0037
P  7.32219  4.40035  1.47486  -0.009602  0.004384  0.001745
P  7.32219  1.47486  4.40035  -0.009602  0.001745  0.004384
P  4.40035  7.32219  1.47486  0.004384  -0.009602  0.001745
P  4.40035  1.47486  7.32219  0.004384  0.001745  -0.009602
P  1.47486  7.32219  4.40035  0.001745  -0.009602  0.004384
P  1.47486  4.40035  7.32219  0.001745  0.004384  -0.009602
P  16.07732  13.15667  13.15667  6.7e-5  -0.005468  -0.005468
P  13.15667  16.07732  13.15667  -0.005468  6.7e-5  -0.005468
P  13.15667  13.15667  16.07732  -0.005468  -0.005468  6.7e-5
P  16.10125  4.39305  4.39305  0.004228  0.004044  0.004044
P  4.39305  16.10125  4.39305  0.004044  0.004228  0.004044
P  4.39305  4.39305  16.10125  0.004044  0.004044  0.004228
P  13.17225  4.38992  1.46346  0.003892  0.009618  -0.003412
P  13.17225  1.46346  4.38992  0.003892  -0.003412  0.009618
P  4.38992  13.17225  1.46346  0.009618  0.003892  -0.003412
P  1.46346  13.17225  4.38992  -0.003412  0.003892  0.009618
P  4.38992  1.46346  13.17225  0.009618  -0.003412  0.003892
P  1.46346  4.38992  13.17225  -0.003412  0.009618  0.003892
P  16.0744  16.0744  10.23577  0.006443  0.006443  -0.011092
P  16.0744  10.23577  16.0744  0.006443  -0.011092  0.006443
P  10.23577  16.0744  16.0744  -0.011092  0.006443  0.006443
P  16.10203  7.31998  1.46986  -0.005988  -0.000556  0.008093
P  16.10203  1.46986  7.31998  -0.005988  0.008093  -0.000556
P  7.31998  16.10203  1.46986  -0.000556  -0.005988  0.008093
P  1.46986  16.10203  7.31998  0.008093  -0.005988  -0.000556
P  7.31998  1.46986  16.10203  -0.000556  0.008093  -0.005988
P  1.46986  7.31998  16.10203  0.008093  -0.000556  -0.005988
P  10.24242  1.46528  1.46528  -0.014164  -0.000305  -0.000305
P  1.46528  10.24242  1.46528  -0.000305  -0.014164  -0.000305
P  1.46528  1.46528  10.24242  -0.000305  -0.000305  -0.014164
P  16.10054  16.10054  4.38899  -0.003568  -0.003568  0.00493
P  16.10054  4.38899  16.10054  -0.003568  0.00493  -0.003568
P  16.09439  13.16721  1.45611  -0.005351  -0.001248  0.00017
P  4.38899  16.10054  16.10054  0.00493  -0.003568  -0.003568
P  13.16721  16.09439  1.45611  -0.001248  -0.005351  0.00017
P  16.09439  1.45611  13.16721  -0.005351  0.00017  -0.001248
P  13.16721  1.45611  16.09439  -0.001248  0.00017  -0.005351
P  1.45611  16.09439  13.16721  0.00017  -0.005351  -0.001248
P  1.45611  13.16721  16.09439  0.00017  -0.001248  -0.005351
P  4.3942  1.46892  1.46892  -0.003021  0.000544  0.000544
P  1.46892  4.3942  1.46892  0.000544  -0.003021  0.000544
P  1.46892  1.46892  4.3942  0.000544  0.000544  -0.003021
P  16.0927  16.0927  16.0927  -0.003499  -0.003499  -0.003499
P  16.09849  1.46398  1.46398  0.00144  -0.004626  -0.004626
P  1.46398  16.09849  1.46398  -0.004626  0.00144  -0.004626
P  1.46398  1.46398  16.09849  -0.004626  -0.004626  0.00144
216
Lattice="17.561274918 0.0 0.0 0.0 17.561274918 0.0 0.0 0.0 17.561274918" Properties=species:S:1:pos:R:3:forces:R:3 energy=-1045.37266169 stress="-10.83057 -0.53585 -0.53585 -0.53585 -10.83057 -0.53585 -0.53585 -0.53585 -10.83057" pbc="T T T"
In  11.58267  11.58267  8.78628  7.7e-5  7.7e-5  0.013618
In  11.58267  8.78628  11.58267  7.7e-5  0.013618  7.7e-5
In  8.78628  11.58267  11.58267  0.013618  7.7e-5  7.7e-5
In  11.74568  8.81179  5.86764  -0.005204  -0.000311  0.001916
In  11.74568  5.86764  8.81179  -0.005204  0.001916  -0.000311
In  8.81179  11.74568  5.86764  -0.000311  -0.005204  0.001916
In  8.81179  5.86764  11.74568  -0.000311  0.001916  -0.005204
In  5.86764  11.74568  8.81179  0.001916  -0.005204  -0.000311
In  5.86764  8.81179  11.74568  0.001916  -0.000311  -0.005204
In  8.81044  5.90117  5.90117  -0.009988  -0.00491  -0.00491
In  5.90117  8.81044  5.90117  -0.00491  -0.009988  -0.00491
In  5.90117  5.90117  8.81044  -0.00491  -0.00491  -0.009988
In  14.64298  8.78046  8.78046  0.00094  0.000145  0.000145
In  8.78046  14.64298  8.78046  0.000145  0.00094  0.000145
In  8.78046  8.78046  14.64298  0.000145  0.000145  0.00094
In  8.78838  8.78838  2.93709  -0.000742  -0.000742  -0.001732
In  8.78838  2.93709  8.78838  -0.000742  -0.001732  -0.000742
In  2.93709  8.78838  8.78838  -0.001732  -0.000742  -0.000742
In  14.60256  11.69638  11.69638  -0.004379  -0.000789  -0.000789
In  11.69638  14.60256  11.69638  -0.000789  -0.004379  -0.000789
In  11.69638  11.69638  14.60256  -0.000789  -0.000789  -0.004379
In  14.64347  11.72121  5.85527  0.000632  -0.001147  -0.001939
In  11.72121  14.64347  5.85527  -0.001147  0.000632  -0.001939
In  14.64347  5.85527  11.72121  0.000632  -0.001939  -0.001147
In  11.72121  5.85527  14.64347  -0.001147  -0.001939  0.000632
In  5.85527  14.64347  11.72121  -0.001939  0.000632  -0.001147
In  5.85527  11.72121  14.64347  -0.001939  -0.001147  0.000632
In  14.63576  5.85579  5.85579  0.002362  0.000185  0.000185
In  11.70966  11.70966  2.93109  0.001367  0.001367  -0.000744
In  11.70966  2.93109  11.70966  0.001367  -0.000744  0.001367
In  5.85579  14.63576  5.85579  0.000185  0.002362  0.000185
In  5.85579  5.85579  14.63576  0.000185  0.000185  0.002362
In  2.93109  11.70966  11.70966  -0.000744  0.001367  0.001367
In  11.70733  5.85246  2.92571  5.2e-5  -0.000223  -0.000234
In  11.70733  2.92571  5.85246  5.2e-5  -0.000234  -0.000223
In  5.85246  11.70733  2.92571  -0.000223  5.2e-5  -0.000234
In  2.92571  11.70733  5.85246  -0.000234  5.2e-5  -0.000223
In  5.85246  2.92571  11.70733  -0.000223  -0.000234  5.2e-5
In  2.92571  5.85246  11.70733  -0.000234  -0.000223  5.2e-5
In  5.87064  5.87064  2.9496  0.000371  0.000371  -0.00124
In  5.87064  2.9496  5.87064  0.000371  -0.00124  0.000371
In  2.9496  5.87064  5.87064  -0.00124  0.000371  0.000371
In  14.59137  14.59137  8.78478  -0.000292  -0.000292  0.004672
In  14.59137  8.78478  14.59137  -0.000292  0.004672  -0.000292