8
Lattice="5.83 0.0 0.0 0.0 5.83 0.0 0.0 0.0 5.83" Properties=species:S:1:pos:R:3:forces:R:3 energy=-38.72767843 stress="-0.49498 0.0 0.0 0.0 -0.49498 -0.0 0.0 -0.0 -0.49498" pbc="T T T"
In  0.0  0.0  0.0  -0.0  -0.0  -0.0
In  2.915  0.0  2.915  -0.0  -0.0  0.0
In  0.0  2.915  2.915  -0.0  0.0  -0.0
In  2.915  2.915  0.0  -0.0  0.0  0.0
P  1.4575  1.4575  4.3725  0.0  -0.0  -0.0
P  4.3725  1.4575  1.4575  0.0  0.0  0.0
P  1.4575  4.3725  1.4575  0.0  -0.0  0.0
P  4.3725  4.3725  4.3725  0.0  -0.0  -0.0
