217
Lattice="17.561274918 0.0 0.0 0.0 17.561274918 0.0 0.0 0.0 17.561274918" Properties=species:S:1:pos:R:3:forces:R:3 energy=-1044.36820895 stress="-4.90259 0.0 0.0 0.0 -4.90259 0.0 0.0 0.0 -1.42338" pbc="T T T"
In  8.78064  8.78064  10.0225  -0.0  -0.0  1.117175
In  8.78064  8.78064  7.53878  -0.0  -0.0  -1.117175
In  11.6652  11.6652  8.78513  -0.002091  -0.002091  0.022105
In  11.86655  8.74181  11.9047  -0.025555  -0.01745  -0.004734
In  8.74181  11.86655  11.9047  -0.01745  -0.025555  -0.004734
In  11.86655  8.81947  5.65657  -0.025555  0.01745  0.004734
In  11.6652  5.89607  8.77614  -0.002091  0.002091  -0.022105
In  8.81947  11.86655  5.65657  0.01745  -0.025555  0.004734
In  8.81947  5.69472  11.9047  0.01745  0.025555  -0.004734
In  5.89607  11.6652  8.77614  0.002091  -0.002091  -0.022105
In  5.69472  8.81947  11.9047  0.025555  0.01745  -0.004734
In  8.74181  5.69472  5.65657  -0.01745  0.025555  0.004734
In  5.69472  8.74181  5.65657  0.025555  -0.01745  0.004734
In  5.89607  5.89607  8.78513  0.002091  0.002091  0.022105
In  14.63888  8.78064  8.78064  -0.006462  -0.0  -0.0
In  8.78064  14.63888  8.78064  -0.0  -0.006462  -0.0
In  8.78064  8.78064  14.66871  -0.0  -0.0  -0.008272
In  8.78064  8.78064  2.89257  -0.0  -0.0  0.008272
In  8.78064  2.92239  8.78064  -0.0  0.006462  -0.0
In  2.92239  8.78064  8.78064  0.006462  -0.0  -0.0
In  14.64071  11.71412  11.70414  -0.006454  0.001346  -0.002939
In  11.71412  14.64071  11.70414  0.001346  -0.006454  -0.002939
In  11.72  11.72  14.66859  0.000378  0.000378  -0.001017
In  14.63025  11.71707  5.86179  -0.005249  -0.014299  0.003918
In  11.71707  14.63025  5.86179  -0.014299  -0.005249  0.003918
In  14.63025  5.8442  11.69949  -0.005249  0.014299  -0.003918
In  11.73584  5.82543  14.68347  -0.009843  0.009843  -0.006962
In  5.8442  14.63025  11.69949  0.014299  -0.005249  -0.003918
In  5.82543  11.73584  14.68347  0.009843  -0.009843  -0.006962
In  14.64071  5.84715  5.85714  -0.006454  -0.001346  0.002939
In  11.73584  11.73584  2.8778  -0.009843  -0.009843  0.006962
In  11.71707  2.93103  11.69949  -0.014299  0.005249  -0.003918
In  5.84715  14.64071  5.85714  -0.001346  -0.006454  0.002939
In  5.84127  5.84127  14.66859  -0.000378  -0.000378  -0.001017
In  2.93103  11.71707  11.69949  0.005249  -0.014299  -0.003918
In  11.72  5.84127  2.89269  0.000378  -0.000378  0.001017
In  11.71412  2.92057  5.85714  0.001346  0.006454  0.002939
In  5.84127  11.72  2.89269  -0.000378  0.000378  0.001017
In  2.92057  11.71412  5.85714  0.006454  0.001346  0.002939
In  5.84715  2.92057  11.70414  -0.001346  0.006454  -0.002939
In  2.92057  5.84715  11.70414  0.006454  -0.001346  -0.002939
In  5.82543  5.82543  2.8778  0.009843  0.009843  0.006962
In  5.8442  2.93103  5.86179  0.014299  0.005249  0.003918
In  2.93103  5.8442  5.86179  0.005249  0.014299  0.003918
In  14.62644  14.62644  8.78875  -0.003944  -0.003944  0.006513
In  14.70275  8.76644  14.69632  0.004101  -0.011951  0.002493
In  8.76644  14.70275  14.69632  -0.011951  0.004101  0.002493
In  14.70275  8.79483  2.86496  0.004101  0.011951  -0.002493
In  14.62644  2.93484  8.77253  -0.003944  0.003944  -0.006513
In  8.79483  14.70275  2.86496  0.011951  0.004101  -0.002493
In  8.79483  2.85853  14.69632  0.011951  -0.004101  0.002493
In  2.93484  14.62644  8.77253  0.003944  -0.003944  -0.006513
In  2.85853  8.79483  14.69632  -0.004101  0.011951  0.002493
In  8.76644  2.85853  2.86496  -0.011951  -0.004101  -0.002493
In  2.85853  8.76644  2.86496  -0.004101  -0.011951  -0.002493
In  2.93484  2.93484  8.78875  0.003944  0.003944  0.006513
In  0.0  11.70771  8.78064  -0.0  -0.004873  -0.0
In  0.0  8.78064  11.70923  -0.0  -0.0  -0.007675
In  11.70771  0.0  8.78064  -0.004873  -0.0  -0.0
In  8.78064  0.0  11.70923  -0.0  -0.0  -0.007675
In  11.72425  8.78064  0.0  -0.00825  -0.0  -0.0
In  8.78064  11.72425  0.0  -0.0  -0.00825  -0.0
In  0.0  8.78064  5.85205  -0.0  -0.0  0.007675
In  0.0  5.85356  8.78064  -0.0  0.004873  -0.0
In  8.78064  0.0  5.85205  -0.0  -0.0  0.007675
In  5.85356  0.0  8.78064  0.004873  -0.0  -0.0
In  8.78064  5.83703  0.0  -0.0  0.00825  -0.0
In  5.83703  8.78064  0.0  0.00825  -0.0  -0.0
In  14.64395  14.64395  14.6271  -0.001695  -0.001695  -0.00162
In  14.64293  14.64293  2.9328  -0.004769  -0.004769  0.000827
In  14.64293  2.91834  14.62847  -0.004769  0.004769  -0.000827
In  2.91834  14.64293  14.62847  0.004769  -0.004769  -0.000827
In  14.64395  2.91732  2.93418  -0.001695  0.001695  0.00162
In  2.91732  14.64395  2.93418  0.001695  -0.001695  0.00162
In  2.91732  2.91732  14.6271  0.001695  0.001695  -0.00162
In  2.91834  2.91834  2.9328  0.004769  0.004769  0.000827
In  0.00344  14.6411  11.69976  0.00056  -0.005357  -0.003675
In  0.00443  11.72155  14.61846  -0.001232  -0.004246  -0.000614
In  14.6411  0.00344  11.69976  -0.005357  0.00056  -0.003675
In  14.65611  11.72691  17.55658  -0.000796  -0.002879  -0.002004
In  11.72155  0.00443  14.61846  -0.004246  -0.001232  -0.000614
In  11.72691  14.65611  17.55658  -0.002879  -0.000796  -0.002004
In  17.55784  14.6411  5.86151  -0.00056  -0.005357  0.003675
In  14.6411  17.55784  5.86151  -0.005357  -0.00056  0.003675
In  17.55684  5.83972  14.61846  0.001232  0.004246  -0.000614
In  14.65611  5.83436  0.0047  -0.000796  0.002879  0.002004
In  17.55684  11.72155  2.94281  0.001232  -0.004246  0.000614
In  5.83972  17.55684  14.61846  0.004246  0.001232  -0.000614
In  5.83436  14.65611  0.0047  0.002879  -0.000796  0.002004
In  11.72155  17.55684  2.94281  -0.004246  0.001232  0.000614
In  17.55784  2.92017  11.69976  -0.00056  0.005357  -0.003675
In  11.72691  2.90516  0.0047  -0.002879  0.000796  0.002004
In  0.00443  5.83972  2.94281  -0.001232  0.004246  0.000614
In  2.92017  17.55784  11.69976  0.005357  -0.00056  -0.003675
In  0.00344  2.92017  5.86151  0.00056  0.005357  0.003675
In  2.90516  11.72691  0.0047  0.000796  -0.002879  0.002004
In  5.83972  0.00443  2.94281  0.004246  -0.001232  0.000614
In  2.92017  0.00344  5.86151  0.005357  0.00056  0.003675
In  5.83436  2.90516  17.55658  0.002879  0.000796  -0.002004
In  2.90516  5.83436  17.55658  0.000796  0.002879  -0.002004
In  0.0  0.0  8.78064  -0.0  -0.0  -0.0
In  0.0  8.78064  0.0  -0.0  -0.0  -0.0
In  8.78064  0.0  0.0  -0.0  -0.0  -0.0
In  0.0  0.0  14.63188  -0.0  -0.0  0.00047
In  0.0  14.64105  0.0  -0.0  -0.002001  -0.0
In  14.64105  0.0  0.0  -0.002001  -0.0  -0.0
In  0.0  0.0  2.9294  -0.0  -0.0  -0.00047
In  0.0  2.92023  0.0  -0.0  0.002001  -0.0
In  2.92023  0.0  0.0  0.002001  -0.0  -0.0
P  10.46166  10.46166  10.70553  -0.030276  -0.030276  -0.029573
P  10.46166  7.09961  6.85574  -0.030276  0.030276  0.029573
P  7.09961  10.46166  6.85574  0.030276  -0.030276  0.029573
P  7.09961  7.09961  10.70553  0.030276  0.030276  -0.029573
P  13.15584  10.2287  7.31336  0.00262  0.007112  -0.009182
P  13.15584  7.33257  10.24791  0.00262  -0.007112  0.009182
P  10.2287  13.15584  7.31336  0.007112  0.00262  -0.009182
P  10.2639  7.29737  13.23556  0.009683  -0.009683  0.010773
P  7.33257  13.15584  10.24791  -0.007112  0.00262  0.009182
P  7.29737  10.2639  13.23556  -0.009683  0.009683  0.010773
P  10.2639  10.2639  4.32572  0.009683  0.009683  -0.010773
P  10.2287  4.40544  10.24791  0.007112  -0.00262  0.009182
P  4.40544  10.2287  10.24791  -0.00262  0.007112  0.009182
P  7.29737  7.29737  4.32572  -0.009683  -0.009683  -0.010773
P  7.33257  4.40544  7.31336  -0.007112  -0.00262  -0.009182
P  4.40544  7.33257  7.31336  -0.00262  -0.007112  -0.009182
P  13.14892  13.14892  10.23353  0.005029  0.005029  0.008129
P  13.27383  10.27411  13.2818  -0.001041  0.009213  0.002507
P  10.27411  13.27383  13.2818  0.009213  -0.001041  0.002507
P  13.27383  7.28717  4.27948  -0.001041  -0.009213  -0.002507
P  13.14892  4.41236  7.32774  0.005029  -0.005029  -0.008129
P  7.28717  13.27383  4.27948  -0.009213  -0.001041  -0.002507
P  4.41236  13.14892  7.32774  -0.005029  0.005029  -0.008129
P  7.28717  4.28744  13.2818  -0.009213  0.001041  0.002507
P  4.28744  7.28717  13.2818  0.001041  -0.009213  0.002507
P  10.27411  4.28744  4.27948  0.009213  0.001041  -0.002507
P  4.28744  10.27411  4.27948  0.001041  0.009213  -0.002507
P  4.41236  4.41236  10.23353  -0.005029  -0.005029  0.008129
P  16.09685  10.24391  10.24338  0.002095  -0.001587  0.00071
P  10.24391  16.09685  10.24338  -0.001587  0.002095  0.00071
P  10.2499  10.2499  16.11169  0.002308  0.002308  0.005295
P  16.09685  7.31736  7.3179  0.002095  0.001587  -0.00071
P  13.17382  13.17382  4.38832  0.003112  0.003112  -0.004542
P  13.17382  4.38745  13.17296  0.003112  -0.003112  0.004542
P  7.31736  16.09685  7.3179  0.001587  0.002095  -0.00071
P  7.31137  7.31137  16.11169  -0.002308  -0.002308  0.005295
P  4.38745  13.17382  13.17296  -0.003112  0.003112  0.004542
P  10.2499  7.31137  1.44959  0.002308  -0.002308  -0.005295
P  7.31137  10.2499  1.44959  -0.002308  0.002308  -0.005295
P  10.24391  1.46443  7.3179  -0.001587  -0.002095  -0.00071
P  7.31736  1.46443  10.24338  0.001587  -0.002095  0.00071
P  1.46443  10.24391  7.3179  -0.002095  -0.001587  -0.00071
P  1.46443  7.31736  10.24338  -0.002095  0.001587  0.00071
P  4.38745  4.38745  4.38832  -0.003112  -0.003112  -0.004542
P  16.09602  13.17227  7.32327  0.000168  0.00333  -0.002795
P  13.17227  16.09602  7.32327  0.00333  0.000168  -0.002795
P  16.09694  7.31095  13.16252  -0.003256  -0.000764  0.003737
P  13.19674  7.30939  16.11969  0.004719  -0.000908  -0.003176
P  7.31095  16.09694  13.16252  -0.000764  -0.003256  0.003737
P  7.30939  13.19674  16.11969  -0.000908  0.004719  -0.003176
P  16.09694  10.25032  4.39875  -0.003256  0.000764  -0.003737
P  16.09602  4.38901  10.23801  0.000168  -0.00333  0.002795
P  10.25032  16.09694  4.39875  0.000764  -0.003256  -0.003737
P  10.25188  4.36453  16.11969  0.000908  -0.004719  -0.003176
P  4.38901  16.09602  10.23801  -0.00333  0.000168  0.002795
P  4.36453  10.25188  16.11969  -0.004719  0.000908  -0.003176
P  13.19674  10.25188  1.44159  0.004719  0.000908  0.003176
P  10.25188  13.19674  1.44159  0.000908  0.004719  0.003176
P  13.17227  1.46526  10.23801  0.00333  -0.000168  0.002795
P  10.25032  1.46434  13.16252  0.000764  0.003256  0.003737
P  1.46526  13.17227  10.23801  -0.000168  0.00333  0.002795
P  1.46434  10.25032  13.16252  0.003256  0.000764  0.003737
P  7.30939  4.36453  1.44159  -0.000908  -0.004719  0.003176
P  7.31095  1.46434  4.39875  -0.000764  0.003256  -0.003737
P  4.36453  7.30939  1.44159  -0.004719  -0.000908  0.003176
P  4.38901  1.46526  7.32327  -0.00333  -0.000168  -0.002795
P  1.46434  7.31095  4.39875  0.003256  -0.000764  -0.003737
P  1.46526  4.38901  7.32327  -0.000168  -0.00333  -0.002795
P  16.10035  13.18226  13.1594  0.002827  0.000786  0.003674
P  13.18226  16.10035  13.1594  0.000786  0.002827  0.003674
P  13.19101  13.19101  16.10548  0.004704  0.004704  0.00392
P  16.10035  4.37901  4.40188  0.002827  -0.000786  -0.003674
P  4.37901  16.10035  4.40188  -0.000786  0.002827  -0.003674
P  4.37027  4.37027  16.10548  -0.004704  -0.004704  0.00392
P  13.19101  4.37027  1.45579  0.004704  -0.004704  -0.00392
P  13.18226  1.46093  4.40188  0.000786  -0.002827  -0.003674
P  4.37027  13.19101  1.45579  -0.004704  0.004704  -0.00392
P  1.46093  13.18226  4.40188  -0.002827  0.000786  -0.003674
P  4.37901  1.46093  13.1594  -0.000786  -0.002827  0.003674
P  1.46093  4.37901  13.1594  -0.002827  -0.000786  0.003674
P  16.09585  16.09585  10.23836  0.001133  0.001133  -0.002539
P  16.13497  10.26471  16.11511  0.000368  0.005759  0.001005
P  10.26471  16.13497  16.11511  0.005759  0.000368  0.001005
P  16.13497  7.29656  1.44616  0.000368  -0.005759  -0.001005
P  16.09585  1.46543  7.32291  0.001133  -0.001133  0.002539
P  7.29656  16.13497  1.44616  -0.005759  0.000368  -0.001005
P  1.46543  16.09585  7.32291  -0.001133  0.001133  0.002539
P  7.29656  1.42631  16.11511  -0.005759  -0.000368  0.001005
P  1.42631  7.29656  16.11511  -0.000368  -0.005759  0.001005
P  10.26471  1.42631  1.44616  0.005759  -0.000368  -0.001005
P  1.42631  10.26471  1.44616  -0.000368  0.005759  -0.001005
P  1.46543  1.46543  10.23836  -0.001133  -0.001133  -0.002539
P  16.10165  16.10165  4.39713  0.000548  0.000548  -0.000143
P  16.10506  4.37866  16.08884  -0.000788  -0.002072  0.000553
P  16.10506  13.18261  1.47244  -0.000788  0.002072  -0.000553
P  4.37866  16.10506  16.08884  -0.002072  -0.000788  0.000553
P  13.18261  16.10506  1.47244  0.002072  -0.000788  -0.000553
P  16.10165  1.45962  13.16414  0.000548  -0.000548  0.000143
P  13.18261  1.45621  16.08884  0.002072  0.000788  0.000553
P  1.45962  16.10165  13.16414  -0.000548  0.000548  0.000143
P  1.45621  13.18261  16.08884  0.000788  0.002072  0.000553
P  4.37866  1.45621  1.47244  -0.002072  0.000788  -0.000553
P  1.45621  4.37866  1.47244  0.000788  -0.002072  -0.000553
P  1.45962  1.45962  4.39713  -0.000548  -0.000548  -0.000143
P  16.10104  16.10104  16.09648  0.000614  0.000614  -0.001553
P  16.10104  1.46023  1.4648  0.000614  -0.000614  0.001553
P  1.46023  16.10104  1.4648  -0.000614  0.000614  0.001553
P  1.46023  1.46023  16.09648  -0.000614  -0.000614  -0.001553
217
Lattice="17.561274918 0.0 0.0 0.0 17.561274918 0.0 0.0 0.0 17.561274918" Properties=species:S:1:pos:R:3:forces:R:3 energy=-1044.41869023 stress="-4.66337 0.0 -0.0 0.0 -4.66337 0.0 -0.0 0.0 -1.97904" pbc="T T T"
In  8.78064  8.78064  10.06871  0.0  -0.0  0.011
In  8.78064  8.78064  7.49257  0.0  -0.0  -0.011
In  11.66623  11.66623  8.78859  -0.005354  -0.005354  0.007077
In  11.86574  8.73924  11.90712  -0.005377  0.000872  -0.001841
In  8.73924  11.86574  11.90712  0.000872  -0.005377  -0.001841
In  11.86574  8.82204  5.65416  -0.005377  -0.000872  0.001841
In  11.66623  5.89504  8.77268  -0.005354  0.005354  -0.007077
In  8.82204  11.86574  5.65416  -0.000872  -0.005377  0.001841
In  8.82204  5.69554  11.90712  -0.000872  0.005377  -0.001841
In  5.89504  11.66623  8.77268  0.005354  -0.005354  -0.007077
In  5.69554  8.82204  11.90712  0.005377  -0.000872  -0.001841
In  8.73924  5.69554  5.65416  0.000872  0.005377  0.001841
In  5.69554  8.73924  5.65416  0.005377  0.000872  0.001841
In  5.89504  5.89504  8.78859  0.005354  0.005354  0.007077
In  14.63556  8.78064  8.78064  0.001519  -0.0  0.0
In  8.78064  14.63556  8.78064  0.0  0.001519  0.0
In  8.78064  8.78064  14.67026  0.0  -0.0  0.000732
In  8.78064  8.78064  2.89102  0.0  -0.0  -0.000732
In  8.78064  2.92572  8.78064  0.0  -0.001519  0.0
In  2.92572  8.78064  8.78064  -0.001519  -0.0  0.0
In  14.63992  11.71281  11.70568  0.001288  0.000409  -0.000244
In  11.71281  14.63992  11.70568  0.000409  0.001288  -0.000244
In  11.72099  11.72099  14.66859  0.000315  0.000315  0.001073
In  14.62924  11.71456  5.86169  0.000604  0.001048  0.001227
In  11.71456  14.62924  5.86169  0.001048  0.000604  0.001227
In  14.62924  5.84672  11.69959  0.000604  -0.001048  -0.001227
In  11.7362  5.82507  14.68412  0.002272  -0.002272  0.002362
In  5.84672  14.62924  11.69959  -0.001048  0.000604  -0.001227
In  5.82507  11.7362  14.68412  -0.002272  0.002272  0.002362
In  14.63992  5.84847  5.85559  0.001288  -0.000409  0.000244
In  11.7362  11.7362  2.87715  0.002272  0.002272  -0.002362
In  11.71456  2.93203  11.69959  0.001048  -0.000604  -0.001227
In  5.84847  14.63992  5.85559  -0.000409  0.001288  0.000244
In  5.84028  5.84028  14.66859  -0.000315  -0.000315  0.001073
In  2.93203  11.71456  11.69959  -0.000604  0.001048  -0.001227
In  11.72099  5.84028  2.89268  0.000315  -0.000315  -0.001073
In  11.71281  2.92136  5.85559  0.000409  -0.001288  0.000244
In  5.84028  11.72099  2.89268  -0.000315  0.000315  -0.001073
In  2.92136  11.71281  5.85559  -0.001288  0.000409  0.000244
In  5.84847  2.92136  11.70568  -0.000409  -0.001288  -0.000244
In  2.92136  5.84847  11.70568  -0.001288  -0.000409  -0.000244
In  5.82507  5.82507  2.87715  -0.002272  -0.002272  -0.002362
In  5.84672  2.93203  5.86169  -0.001048  -0.000604  0.001227
In  2.93203  5.84672  5.86169  -0.000604  -0.001048  0.001227
In  14.62561  14.62561  8.78969  0.000198  0.000198  0.00086
In  14.70417  8.76495  14.69742  0.000271  0.000636  -0.0005
In  8.76495  14.70417  14.69742  0.000636  0.000271  -0.0005
In  14.70417  8.79632  2.86386  0.000271  -0.000636  0.0005
In  14.62561  2.93567  8.77158  0.000198  -0.000198  -0.00086
In  8.79632  14.70417  2.86386  -0.000636  0.000271  0.0005
In  8.79632  2.85711  14.69742  -0.000636  -0.000271  -0.0005
In  2.93567  14.62561  8.77158  -0.000198  0.000198  -0.00086
In  2.85711  8.79632  14.69742  -0.000271  -0.000636  -0.0005
In  8.76495  2.85711  2.86386  0.000636  -0.000271  0.0005
In  2.85711  8.76495  2.86386  -0.000271  0.000636  0.0005
In  2.93567  2.93567  8.78969  -0.000198  -0.000198  0.00086
In  -0.0  11.70689  8.78064  0.0  -0.000431  0.0
In  -0.0  8.78064  11.70721  0.0  -0.0  -0.00047
In  11.70689  0.0  8.78064  -0.000431  -0.0  0.0
In  8.78064  0.0  11.70721  0.0  -0.0  -0.00047
In  11.72335  8.78064  -0.0  0.001302  -0.0  0.0
In  8.78064  11.72335  -0.0  0.0  0.001302  0.0
In  -0.0  8.78064  5.85407  0.0  -0.0  0.00047
In  -0.0  5.85438  8.78064  0.0  0.000431  0.0
In  8.78064  0.0  5.85407  0.0  -0.0  0.00047
In  5.85438  0.0  8.78064  0.000431  -0.0  0.0
In  8.78064  5.83793  -0.0  0.0  -0.001302  0.0
In  5.83793  8.78064  -0.0  -0.001302  -0.0  0.0
In  14.64411  14.64411  14.62643  0.001032  0.001032  0.000377
In  14.64217  14.64217  2.9332  0.00086  0.00086  0.000782
In  14.64217  2.91911  14.62807  0.00086  -0.00086  -0.000782
In  2.91911  14.64217  14.62807  -0.00086  0.00086  -0.000782
In  14.64411  2.91717  2.93485  0.001032  -0.001032  -0.000377
In  2.91717  14.64411  2.93485  -0.001032  0.001032  -0.000377
In  2.91717  2.91717  14.62643  -0.001032  -0.001032  0.000377
In  2.91911  2.91911  2.9332  -0.00086  -0.00086  0.000782
In  0.00384  14.63976  11.69892  0.000507  0.000687  -0.001389
In  0.00445  11.72097  14.61888  0.000758  0.001214  -0.001157
In  14.63976  0.00384  11.69892  0.000687  0.000507  -0.001389
In  14.65612  11.72655  17.55648  0.000197  0.001644  8.1e-5
In  11.72097  0.00445  14.61888  0.001214  0.000758  -0.001157
In  11.72655  14.65612  17.55648  0.001644  0.000197  8.1e-5
In  17.55744  14.63976  5.86235  -0.000507  0.000687  0.001389
In  14.63976  17.55744  5.86235  0.000687  -0.000507  0.001389
In  17.55683  5.8403  14.61888  -0.000758  -0.001214  -0.001157
In  14.65612  5.83472  0.00479  0.000197  -0.001644  -8.1e-5
In  17.55683  11.72097  2.94239  -0.000758  0.001214  0.001157
In  5.8403  17.55683  14.61888  -0.001214  -0.000758  -0.001157
In  5.83472  14.65612  0.00479  -0.001644  0.000197  -8.1e-5
In  11.72097  17.55683  2.94239  0.001214  -0.000758  0.001157
In  17.55744  2.92151  11.69892  -0.000507  -0.000687  -0.001389
In  11.72655  2.90515  0.00479  0.001644  -0.000197  -8.1e-5
In  0.00445  5.8403  2.94239  0.000758  -0.001214  0.001157
In  2.92151  17.55744  11.69892  -0.000687  -0.000507  -0.001389
In  0.00384  2.92151  5.86235  0.000507  -0.000687  0.001389
In  2.90515  11.72655  0.00479  -0.000197  0.001644  -8.1e-5
In  5.8403  0.00445  2.94239  -0.001214  0.000758  0.001157
In  2.92151  0.00384  5.86235  -0.000687  0.000507  0.001389
In  5.83472  2.90515  17.55648  -0.001644  -0.000197  8.1e-5
In  2.90515  5.83472  17.55648  -0.000197  -0.001644  8.1e-5
In  -0.0  0.0  8.78064  0.0  -0.0  0.0
In  -0.0  8.78064  -0.0  0.0  -0.0  0.0
In  8.78064  0.0  -0.0  0.0  -0.0  0.0
In  -0.0  0.0  14.63112  0.0  -0.0  -0.000674
In  -0.0  14.64087  -0.0  0.0  0.000625  0.0
In  14.64087  0.0  -0.0  0.000625  -0.0  0.0
In  -0.0  0.0  2.93016  0.0  -0.0  0.000674
In  -0.0  2.9204  -0.0  0.0  -0.000625  0.0
In  2.9204  0.0  -0.0  -0.000625  -0.0  0.0
P  10.46537  10.46537  10.71129  -0.002485  -0.002485  -0.004353
P  10.46537  7.0959  6.84999  -0.002485  0.002485  0.004353
P  7.0959  10.46537  6.84999  0.002485  -0.002485  0.004353
P  7.0959  7.0959  10.71129  0.002485  0.002485  -0.004353
P  13.1539  10.22949  7.3129  -0.001972  0.001552  -0.000183
P  13.1539  7.33178  10.24838  -0.001972  -0.001552  0.000183
P  10.22949  13.1539  7.3129  0.001552  -0.001972  -0.000183
P  10.26443  7.29685  13.2389  -0.000478  0.000478  0.001896
P  7.33178  13.1539  10.24838  -0.001552  -0.001972  0.000183
P  7.29685  10.26443  13.2389  0.000478  -0.000478  0.001896
P  10.26443  10.26443  4.32238  -0.000478  -0.000478  -0.001896
P  10.22949  4.40737  10.24838  0.001552  0.001972  0.000183
P  4.40737  10.22949  10.24838  0.001972  0.001552  0.000183
P  7.29685  7.29685  4.32238  0.000478  0.000478  -0.001896
P  7.33178  4.40737  7.3129  -0.001552  0.001972  -0.000183
P  4.40737  7.33178  7.3129  0.001972  -0.001552  -0.000183
P  13.14956  13.14956  10.2366  0.000344  0.000344  0.003665
P  13.27371  10.27285  13.28333  0.002147  0.000323  0.003151
P  10.27285  13.27371  13.28333  0.000323  0.002147  0.003151
P  13.27371  7.28843  4.27794  0.002147  -0.000323  -0.003151
P  13.14956  4.41172  7.32467  0.000344  -0.000344  -0.003665
P  7.28843  13.27371  4.27794  -0.000323  0.002147  -0.003151
P  4.41172  13.14956  7.32467  -0.000344  0.000344  -0.003665
P  7.28843  4.28757  13.28333  -0.000323  -0.002147  0.003151
P  4.28757  7.28843  13.28333  -0.002147  -0.000323  0.003151
P  10.27285  4.28757  4.27794  0.000323  -0.002147  -0.003151
P  4.28757  10.27285  4.27794  -0.002147  0.000323  -0.003151
P  4.41172  4.41172  10.2366  -0.000344  -0.000344  0.003665
P  16.09548  10.24341  10.24281  0.000411  0.000343  -0.000123
P  10.24341  16.09548  10.24281  0.000343  0.000411  -0.000123
P  10.25064  10.25064  16.11188  0.000293  0.000293  0.001715
P  16.09548  7.31787  7.31846  0.000411  -0.000343  0.000123
P  13.17359  13.17359  4.3887  -0.001018  -0.001018  -0.000798
P  13.17359  4.38768  13.17257  -0.001018  0.001018  0.000798
P  7.31787  16.09548  7.31846  -0.000343  0.000411  0.000123
P  7.31064  7.31064  16.11188  -0.000293  -0.000293  0.001715
P  4.38768  13.17359  13.17257  0.001018  -0.001018  0.000798
P  10.25064  7.31064  1.4494  0.000293  -0.000293  -0.001715
P  7.31064  10.25064  1.4494  -0.000293  0.000293  -0.001715
P  10.24341  1.4658  7.31846  0.000343  -0.000411  0.000123
P  7.31787  1.4658  10.24281  -0.000343  -0.000411  -0.000123
P  1.4658  10.24341  7.31846  -0.000411  0.000343  0.000123
P  1.4658  7.31787  10.24281  -0.000411  -0.000343  -0.000123
P  4.38768  4.38768  4.3887  0.001018  0.001018  -0.000798
P  16.09473  13.17129  7.32327  0.000993  -0.001623  -0.000428
P  13.17129  16.09473  7.32327  -0.001623  0.000993  -0.000428
P  16.09733  7.31129  13.16252  0.001454  4.0e-5  -0.000837
P  13.19698  7.30946  16.11979  -0.00026  -0.001114  0.001449
P  7.31129  16.09733  13.16252  4.0e-5  0.001454  -0.000837
P  7.30946  13.19698  16.11979  -0.001114  -0.00026  0.001449
P  16.09733  10.24999  4.39876  0.001454  -4.0e-5  0.000837
P  16.09473  4.38998  10.23801  0.000993  0.001623  0.000428
P  10.24999  16.09733  4.39876  -4.0e-5  0.001454  0.000837
P  10.25182  4.3643  16.11979  0.001114  0.00026  0.001449
P  4.38998  16.09473  10.23801  0.001623  0.000993  0.000428
P  4.3643  10.25182  16.11979  0.00026  0.001114  0.001449
P  13.19698  10.25182  1.44148  -0.00026  0.001114  -0.001449
P  10.25182  13.19698  1.44148  0.001114  -0.00026  -0.001449
P  13.17129  1.46654  10.23801  -0.001623  -0.000993  0.000428
P  10.24999  1.46394  13.16252  -4.0e-5  -0.001454  -0.000837
P  1.46654  13.17129  10.23801  -0.000993  -0.001623  0.000428
P  1.46394  10.24999  13.16252  -0.001454  -4.0e-5  -0.000837
P  7.30946  4.3643  1.44148  -0.001114  0.00026  -0.001449
P  7.31129  1.46394  4.39876  4.0e-5  -0.001454  0.000837
P  4.3643  7.30946  1.44148  0.00026  -0.001114  -0.001449
P  4.38998  1.46654  7.32327  0.001623  -0.000993  -0.000428
P  1.46394  7.31129  4.39876  -0.001454  4.0e-5  0.000837
P  1.46654  4.38998  7.32327  -0.000993  0.001623  -0.000428
P  16.10076  13.18181  13.15977  -8.0e-6  -0.001163  -0.000222
P  13.18181  16.10076  13.15977  -0.001163  -8.0e-6  -0.000222
P  13.192  13.192  16.10615  -0.000274  -0.000274  -0.001244
P  16.10076  4.37947  4.4015  -8.0e-6  0.001163  0.000222
P  4.37947  16.10076  4.4015  0.001163  -8.0e-6  0.000222
P  4.36928  4.36928  16.10615  0.000274  0.000274  -0.001244
P  13.192  4.36928  1.45513  -0.000274  0.000274  0.001244
P  13.18181  1.46052  4.4015  -0.001163  8.0e-6  0.000222
P  4.36928  13.192  1.45513  0.000274  -0.000274  0.001244
P  1.46052  13.18181  4.4015  8.0e-6  -0.001163  0.000222
P  4.37947  1.46052  13.15977  0.001163  8.0e-6  -0.000222
P  1.46052  4.37947  13.15977  8.0e-6  0.001163  -0.000222
P  16.09566  16.09566  10.23805  0.000272  0.000272  0.001609
P  16.13518  10.26494  16.11557  0.000264  0.000554  -9.0e-6
P  10.26494  16.13518  16.11557  0.000554  0.000264  -9.0e-6
P  16.13518  7.29634  1.4457  0.000264  -0.000554  9.0e-6
P  16.09566  1.46561  7.32323  0.000272  -0.000272  -0.001609
P  7.29634  16.13518  1.4457  -0.000554  0.000264  9.0e-6
P  1.46561  16.09566  7.32323  -0.000272  0.000272  -0.001609
P  7.29634  1.4261  16.11557  -0.000554  -0.000264  -9.0e-6
P  1.4261  7.29634  16.11557  -0.000264  -0.000554  -9.0e-6
P  10.26494  1.4261  1.4457  0.000554  -0.000264  9.0e-6
P  1.4261  10.26494  1.4457  -0.000264  0.000554  9.0e-6
P  1.46561  1.46561  10.23805  -0.000272  -0.000272  0.001609
P  16.10127  16.10127  4.39774  -1.8e-5  -1.8e-5  0.000957
P  16.10479  4.37866  16.08877  -0.000371  0.000431  0.000532
P  16.10479  13.18262  1.4725  -0.000371  -0.000431  -0.000532
P  4.37866  16.10479  16.08877  0.000431  -0.000371  0.000532
P  13.18262  16.10479  1.4725  -0.000431  -0.000371  -0.000532
P  16.10127  1.46  13.16353  -1.8e-5  1.8e-5  -0.000957
P  13.18262  1.45648  16.08877  -0.000431  0.000371  0.000532
P  1.46  16.10127  13.16353  1.8e-5  -1.8e-5  -0.000957
P  1.45648  13.18262  16.08877  0.000371  -0.000431  0.000532
P  4.37866  1.45648  1.4725  0.000431  0.000371  -0.000532
P  1.45648  4.37866  1.4725  0.000371  0.000431  -0.000532
P  1.46  1.46  4.39774  1.8e-5  1.8e-5  0.000957
P  16.10115  16.10115  16.09617  0.000292  0.000292  -0.000781
P  16.10115  1.46012  1.46511  0.000292  -0.000292  0.000781
P  1.46012  16.10115  1.46511  -0.000292  0.000292  0.000781
P  1.46012  1.46012  16.09617  -0.000292  -0.000292  -0.000781
217
Lattice="17.561274918 0.0 0.0 0.0 17.561274918 0.0 0.0 0.0 17.561274918" Properties=species:S:1:pos:R:3:forces:R:3 energy=-1044.4187647 stress="-4.65671 0.0 0.0 0.0 -4.65671 0.0 0.0 0.0 -1.9837" pbc="T T T"
In  8.78064  8.78064  10.06935  -0.0  0.0  -0.004135
In  8.78064  8.78064  7.49193  -0.0  0.0  0.004135
In  11.66619  11.66619  8.78971  -0.004466  -0.004466  0.003011
In  11.86556  8.73888  11.90765  -0.004131  0.002656  -0.002506
In  8.73888  11.86556  11.90765  0.002656  -0.004131  -0.002506
In  11.86556  8.8224  5.65362  -0.004131  -0.002656  0.002506
In  11.66619  5.89508  8.77156  -0.004466  0.004466  -0.003011
In  8.8224  11.86556  5.65362  -0.002656  -0.004131  0.002506
In  8.8224  5.69571  11.90765  -0.002656  0.004131  -0.002506
In  5.89508  11.66619  8.77156  0.004466  -0.004466  -0.003011
In  5.69571  8.8224  11.90765  0.004131  -0.002656  -0.002506
In  8.73888  5.69571  5.65362  0.002656  0.004131  0.002506
In  5.69571  8.73888  5.65362  0.004131  0.002656  0.002506
In  5.89508  5.89508  8.78971  0.004466  0.004466  0.003011
In  14.63499  8.78064  8.78064  0.00164  0.0  0.0
In  8.78064  14.63499  8.78064  -0.0  0.00164  0.0
In  8.78064  8.78064  14.67078  -0.0  0.0  0.001177
In  8.78064  8.78064  2.8905  -0.0  0.0  -0.001177
In  8.78064  2.92629  8.78064  -0.0  -0.00164  0.0
In  2.92629  8.78064  8.78064  -0.00164  0.0  0.0
In  14.63989  11.71247  11.70605  0.001667  0.000365  -7.3e-5
In  11.71247  14.63989  11.70605  0.000365  0.001667  -7.3e-5
In  11.7212  11.7212  14.66863  -0.000329  -0.000329  0.001627
In  14.62912  11.71422  5.86174  0.000618  0.002126  0.000203
In  11.71422  14.62912  5.86174  0.002126  0.000618  0.000203
In  14.62912  5.84705  11.69954  0.000618  -0.002126  -0.000203
In  11.73644  5.82484  14.68447  0.002034  -0.002034  0.002382
In  5.84705  14.62912  11.69954  -0.002126  0.000618  -0.000203
In  5.82484  11.73644  14.68447  -0.002034  0.002034  0.002382
In  14.63989  5.84881  5.85522  0.001667  -0.000365  7.3e-5
In  11.73644  11.73644  2.87681  0.002034  0.002034  -0.002382
In  11.71422  2.93216  11.69954  0.002126  -0.000618  -0.000203
In  5.84881  14.63989  5.85522  -0.000365  0.001667  7.3e-5
In  5.84007  5.84007  14.66863  0.000329  0.000329  0.001627
In  2.93216  11.71422  11.69954  -0.000618  0.002126  -0.000203
In  11.7212  5.84007  2.89265  -0.000329  0.000329  -0.001627
In  11.71247  2.92138  5.85522  0.000365  -0.001667  7.3e-5
In  5.84007  11.7212  2.89265  0.000329  -0.000329  -0.001627
In  2.92138  11.71247  5.85522  -0.001667  0.000365  7.3e-5
In  5.84881  2.92138  11.70605  -0.000365  -0.001667  -7.3e-5
In  2.92138  5.84881  11.70605  -0.001667  -0.000365  -7.3e-5
In  5.82484  5.82484  2.87681  -0.002034  -0.002034  -0.002382
In  5.84705  2.93216  5.86174  -0.002126  -0.000618  0.000203
In  2.93216  5.84705  5.86174  -0.000618  -0.002126  0.000203
In  14.62554  14.62554  8.78981  -0.000272  -0.000272  0.000728
In  14.70448  8.76475  14.69767  -0.000347  0.000595  -0.000687
In  8.76475  14.70448  14.69767  0.000595  -0.000347  -0.000687
In  14.70448  8.79652  2.8636  -0.000347  -0.000595  0.000687
In  14.62554  2.93573  8.77146  -0.000272  0.000272  -0.000728
In  8.79652  14.70448  2.8636  -0.000595  -0.000347  0.000687
In  8.79652  2.85679  14.69767  -0.000595  0.000347  -0.000687
In  2.93573  14.62554  8.77146  0.000272  -0.000272  -0.000728
In  2.85679  8.79652  14.69767  0.000347  -0.000595  -0.000687
In  8.76475  2.85679  2.8636  0.000595  0.000347  0.000687
In  2.85679  8.76475  2.8636  0.000347  0.000595  0.000687
In  2.93573  2.93573  8.78981  0.000272  0.000272  0.000728
In  -0.0  11.7067  8.78064  -0.0  -0.000192  0.0