217
Lattice="17.561274918 0.0 0.0 0.0 17.561274918 0.0 0.0 0.0 17.561274918" Properties=species:S:1:pos:R:3:forces:R:3 energy=-1047.96287107 stress="-6.86713 0.68848 0.0 0.68848 -6.86713 0.0 0.0 0.0 -5.58001" pbc="T T T"
In  8.78064  8.78064  8.25678  -0.0  0.0  -0.101968
In  11.7691  11.7691  8.71056  0.007278  0.007278  -0.008047
In  11.78407  8.79661  11.76428  -0.010648  -0.016104  0.007421
In  8.79661  11.78407  11.76428  -0.016104  -0.010648  0.007421
In  11.76892  8.80402  5.74079  -0.003631  0.00783  0.00505
In  11.67542  5.88586  8.79848  0.011785  -0.011785  -0.023763
In  8.80402  11.76892  5.74079  0.00783  -0.003631  0.00505
In  8.76466  5.7772  11.76428  0.016104  0.010648  0.007421
In  5.88586  11.67542  8.79848  -0.011785  0.011785  -0.023763
In  5.7772  8.76466  11.76428  0.010648  0.016104  0.007421
In  8.75725  5.79235  5.74079  -0.00783  0.003631  0.00505
In  5.79235  8.75725  5.74079  0.003631  -0.00783  0.00505
In  5.79217  5.79217  8.71056  -0.007278  -0.007278  -0.008047
In  14.63829  8.7864  8.76226  -0.00178  0.002427  -0.001502
In  8.7864  14.63829  8.76226  0.002427  -0.00178  -0.001502
In  8.78064  8.78064  14.61283  -0.0  0.0  0.00167
In  8.78064  8.78064  2.88161  -0.0  0.0  0.005043
In  8.77487  2.92298  8.76226  -0.002427  0.00178  -0.001502
In  2.92298  8.77487  8.76226  0.00178  -0.002427  -0.001502
In  14.63621  11.71064  11.70069  0.001247  0.000632  -0.004114
In  11.71064  14.63621  11.70069  0.000632  0.001247  -0.004114
In  11.72096  11.72096  14.64602  -0.002867  -0.002867  9.7e-5
In  14.65078  11.71811  5.82643  -0.005073  0.000315  0.003164
In  11.71811  14.65078  5.82643  0.000315  -0.005073  0.003164
In  14.62587  5.85526  11.69579  0.00108  0.001746  0.002526
In  11.70093  5.86035  14.64208  0.005265  -0.005265  0.000419
In  5.85526  14.62587  11.69579  0.001746  0.00108  0.002526
In  5.86035  11.70093  14.64208  -0.005265  0.005265  0.000419
In  14.63146  5.84953  5.85033  -0.002415  3.6e-5  0.000259
In  11.72689  11.72689  2.88405  -0.002411  -0.002411  0.004492
In  11.70602  2.93541  11.69579  -0.001746  -0.00108  0.002526
In  5.84953  14.63146  5.85033  3.6e-5  -0.002415  0.000259
In  5.84031  5.84031  14.64602  0.002867  0.002867  9.7e-5
In  2.93541  11.70602  11.69579  -0.00108  -0.001746  0.002526
In  11.71276  5.84852  2.89252  -0.001568  0.001568  0.004538
In  11.71175  2.92981  5.85033  -3.6e-5  0.002415  0.000259
In  5.84852  11.71276  2.89252  0.001568  -0.001568  0.004538
In  2.92981  11.71175  5.85033  0.002415  -3.6e-5  0.000259
In  5.85063  2.92507  11.70069  -0.000632  -0.001247  -0.004114
In  2.92507  5.85063  11.70069  -0.001247  -0.000632  -0.004114
In  5.83439  5.83439  2.88405  0.002411  0.002411  0.004492
In  5.84317  2.91049  5.82643  -0.000315  0.005073  0.003164
In  2.91049  5.84317  5.82643  0.005073  -0.000315  0.003164
In  14.65699  14.65699  8.77047  -0.002189  -0.002189  -0.008561
In  14.67346  8.78023  14.6632  0.004344  -0.013592  0.000147
In  8.78023  14.67346  14.6632  -0.013592  0.004344  0.000147
In  14.65886  8.78712  2.88949  -0.00307  0.006655  0.001101
In  14.62323  2.93805  8.76608  0.001465  -0.001465  -0.004069
In  8.78712  14.65886  2.88949  0.006655  -0.00307  0.001101
In  8.78105  2.88781  14.6632  0.013592  -0.004344  0.000147
In  2.93805  14.62323  8.76608  -0.001465  0.001465  -0.004069
In  2.88781  8.78105  14.6632  -0.004344  0.013592  0.000147
In  8.77416  2.90241  2.88949  -0.006655  0.00307  0.001101
In  2.90241  8.77416  2.88949  0.00307  -0.006655  0.001101
In  2.90428  2.90428  8.77047  0.002189  0.002189  -0.008561
In  0.00109  11.70808  8.76908  -0.000609  -4.9e-5  -0.0021
In  0.0  8.78064  11.69474  -0.0  0.0  -0.000974
In  11.70808  0.00109  8.76908  -4.9e-5  -0.000609  -0.0021
In  8.78064  0.0  11.69474  -0.0  0.0  -0.000974
In  11.71564  8.78371  17.53954  -0.001385  -0.000856  0.003792
In  8.78371  11.71564  17.53954  -0.000856  -0.001385  0.003792
In  0.0  8.78064  5.83721  -0.0  0.0  0.003043
In  17.56018  5.8532  8.76908  0.000609  4.9e-5  -0.0021
In  8.78064  0.0  5.83721  -0.0  0.0  0.003043
In  5.8532  17.56018  8.76908  4.9e-5  0.000609  -0.0021
In  8.77756  5.84564  17.53954  0.000856  0.001385  0.003792
In  5.84564  8.77756  17.53954  0.001385  0.000856  0.003792
In  14.64097  14.64097  14.61855  -0.000771  -0.000771  0.00127
In  14.64472  14.64472  2.91365  -0.001457  -0.001457  0.002143
In  14.63184  2.92944  14.61634  -0.000393  0.000393  0.000877
In  2.92944  14.63184  14.61634  0.000393  -0.000393  0.000877
In  14.63699  2.92428  2.91851  0.001454  -0.001454  -0.000948
In  2.92428  14.63699  2.91851  -0.001454  0.001454  -0.000948
In  2.92031  2.92031  14.61855  0.000771  0.000771  0.00127
In  2.91656  2.91656  2.91365  0.001457  0.001457  0.002143
In  0.00729  14.63565  11.69289  0.000178  -0.00125  -0.001668
In  0.00462  11.71452  14.61458  0.00133  -0.003328  0.002166
In  14.63565  0.00729  11.69289  -0.00125  0.000178  -0.001668
In  14.65092  11.71971  17.54943  -0.002466  -0.002126  0.004248
In  11.71452  0.00462  14.61458  -0.003328  0.00133  0.002166
In  11.71971  14.65092  17.54943  -0.002126  -0.002466  0.004248
In  0.00465  14.63806  5.84402  -0.00212  0.000753  0.000763
In  14.63806  0.00465  5.84402  0.000753  -0.00212  0.000763
In  17.55665  5.84675  14.61458  -0.00133  0.003328  0.002166
In  14.6416  5.84558  17.54928  0.000711  -0.000208  0.000916
In  0.00849  11.71601  2.91856  -0.003064  0.001029  0.000875
In  5.84675  17.55665  14.61458  0.003328  -0.00133  0.002166
In  5.84558  14.6416  17.54928  -0.000208  0.000711  0.000916
In  11.71601  0.00849  2.91856  0.001029  -0.003064  0.000875
In  17.55398  2.92562  11.69289  -0.000178  0.00125  -0.001668
In  11.7157  2.91967  17.54928  0.000208  -0.000711  0.000916
In  17.55278  5.84527  2.91856  0.003064  -0.001029  0.000875
In  2.92562  17.55398  11.69289  0.00125  -0.000178  -0.001668
In  17.55662  2.92321  5.84402  0.00212  -0.000753  0.000763
In  2.91967  11.7157  17.54928  -0.000711  0.000208  0.000916
In  5.84527  17.55278  2.91856  -0.001029  0.003064  0.000875
In  2.92321  17.55662  5.84402  -0.000753  0.00212  0.000763
In  5.84156  2.91035  17.54943  0.002126  0.002466  0.004248
In  2.91035  5.84156  17.54943  0.002466  0.002126  0.004248
In  0.0  0.0  8.76527  -0.0  0.0  -0.005997
In  0.0  8.78064  0.00158  -0.0  0.0  0.00108
In  8.78064  0.0  0.00158  -0.0  0.0  0.00108
In  0.0  0.0  14.61812  -0.0  0.0  0.001209
In  0.00381  14.63857  17.54593  -0.001038  -0.000717  0.001707
In  14.63857  0.00381  17.54593  -0.000717  -0.001038  0.001707
In  0.0  0.0  2.91478  -0.0  0.0  0.000546
In  17.55746  2.9227  17.54593  0.001038  0.000717  0.001707
In  2.9227  17.55746  17.54593  0.000717  0.001038  0.001707
P  8.78064  8.78064  10.63344  -0.0  0.0  0.064223
P  10.46144  10.46144  10.41056  -0.023301  -0.023301  0.014847
P  10.32598  7.23529  7.10914  -0.007094  0.007094  0.025316
P  7.23529  10.32598  7.10914  0.007094  -0.007094  0.025316
P  7.09983  7.09983  10.41056  0.023301  0.023301  0.014847
P  13.18529  10.24178  7.2739  -0.001063  0.000487  -0.000774
P  13.16961  7.33549  10.23208  -0.000621  -0.000389  0.003622
P  10.24178  13.18529  7.2739  0.000487  -0.001063  -0.000774
P  10.25314  7.30814  13.16264  -0.006667  0.006667  -0.012638
P  7.33549  13.16961  10.23208  -0.000389  -0.000621  0.003622
P  7.30814  10.25314  13.16264  0.006667  -0.006667  -0.012638
P  10.2546  10.2546  4.32877  -0.000455  -0.000455  -0.000452
P  10.22578  4.39166  10.23208  0.000389  0.000621  0.003622
P  4.39166  10.22578  10.23208  0.000621  0.000389  0.003622
P  7.30668  7.30668  4.32877  0.000455  0.000455  -0.000452
P  7.3195  4.37599  7.2739  -0.000487  0.001063  -0.000774
P  4.37599  7.3195  7.2739  0.001063  -0.000487  -0.000774
P  13.20028  13.20028  10.23112  -0.005383  -0.005383  0.0078
P  13.23013  10.26242  13.22896  -0.008422  0.010486  -0.008598
P  10.26242  13.23013  13.22896  0.010486  -0.008422  -0.008598
P  13.2111  7.30225  4.33204  -0.002363  -0.006362  0.000724
P  13.14737  4.4139  7.32257  0.004528  -0.004528  -0.003724
P  7.30225  13.2111  4.33204  -0.006362  -0.002363  0.000724
P  4.4139  13.14737  7.32257  -0.004528  0.004528  -0.003724
P  7.29885  4.33115  13.22896  -0.010486  0.008422  -0.008598
P  4.33115  7.29885  13.22896  0.008422  -0.010486  -0.008598
P  10.25903  4.35018  4.33204  0.006362  0.002363  0.000724
P  4.35018  10.25903  4.33204  0.002363  0.006362  0.000724
P  4.36099  4.36099  10.23112  0.005383  0.005383  0.0078
P  16.09614  10.24674  10.23159  -0.000385  -0.000914  0.002078
P  10.24674  16.09614  10.23159  -0.000914  -0.000385  0.002078
P  10.24452  10.24452  16.08278  -5.3e-5  -5.3e-5  -0.003331
P  16.09898  7.31839  7.30292  0.001263  -0.001613  0.000161
P  13.17855  13.17855  4.36986  -0.000176  -0.000176  -0.001605
P  13.1636  4.39767  13.16516  -0.00106  0.00106  -9.1e-5
P  7.31839  16.09898  7.30292  -0.001613  0.001263  0.000161
P  7.31675  7.31675  16.08278  5.3e-5  5.3e-5  -0.003331
P  4.39767  13.1636  13.16516  0.00106  -0.00106  -9.1e-5
P  10.24851  7.31276  1.43509  0.000724  -0.000724  -0.003849
P  7.31276  10.24851  1.43509  -0.000724  0.000724  -0.003849
P  10.24288  1.4623  7.30292  0.001613  -0.001263  0.000161
P  7.31454  1.46513  10.23159  0.000914  0.000385  0.002078
P  1.4623  10.24288  7.30292  -0.001263  0.001613  0.000161
P  1.46513  7.31454  10.23159  0.000385  0.000914  0.002078
P  4.38272  4.38272  4.36986  0.000176  0.000176  -0.001605
P  16.10264  13.17577  7.30501  -0.00099  9.0e-5  0.001783
P  13.17577  16.10264  7.30501  9.0e-5  -0.00099  0.001783
P  16.09704  7.31736  13.15754  -0.002571  0.001823  0.001549
P  13.1855  7.31217  16.09561  -0.001181  0.00335  -0.004672
P  7.31736  16.09704  13.15754  0.001823  -0.002571  0.001549
P  7.31217  13.1855  16.09561  0.00335  -0.001181  -0.004672
P  16.10668  10.24683  4.3701  -0.000884  -0.002272  -0.001884
P  16.09225  4.39409  10.23153  0.000143  -5.9e-5  0.001502
P  10.24683  16.10668  4.3701  -0.002272  -0.000884  -0.001884
P  10.2491  4.37577  16.09561  -0.00335  0.001181  -0.004672
P  4.39409  16.09225  10.23153  -5.9e-5  0.000143  0.001502
P  4.37577  10.2491  16.09561  0.001181  -0.00335  -0.004672
P  13.18428  10.24835  1.43746  0.000157  -0.001396  -0.001719
P  10.24835  13.18428  1.43746  -0.001396  0.000157  -0.001719
P  13.16719  1.46903  10.23153  5.9e-5  -0.000143  0.001502
P  10.24391  1.46423  13.15754  -0.001823  0.002571  0.001549
P  1.46903  13.16719  10.23153  -0.000143  5.9e-5  0.001502
P  1.46423  10.24391  13.15754  0.002571  -0.001823  0.001549
P  7.31292  4.377  1.43746  0.001396  -0.000157  -0.001719
P  7.31444  1.45459  4.3701  0.002272  0.000884  -0.001884
P  4.377  7.31292  1.43746  -0.000157  0.001396  -0.001719
P  4.3855  1.45864  7.30501  -9.0e-5  0.00099  0.001783
P  1.45459  7.31444  4.3701  0.000884  0.002272  -0.001884
P  1.45864  4.3855  7.30501  0.00099  -9.0e-5  0.001783
P  16.1029  13.17848  13.15484  -0.000977  -0.000112  0.001843
P  13.17848  16.1029  13.15484  -0.000112  -0.000977  0.001843
P  13.1869  13.1869  16.09779  0.000942  0.000942  -0.001718
P  16.09279  4.38643  4.38614  -0.000557  0.000635  -0.00173
P  4.38643  16.09279  4.38614  0.000635  -0.000557  -0.00173
P  4.37438  4.37438  16.09779  -0.000942  -0.000942  -0.001718
P  13.18086  4.38041  1.44657  -7.0e-5  7.0e-5  -0.001142
P  13.17484  1.46848  4.38614  -0.000635  0.000557  -0.00173
P  4.38041  13.18086  1.44657  7.0e-5  -7.0e-5  -0.001142
P  1.46848  13.17484  4.38614  0.000557  -0.000635  -0.00173
P  4.38279  1.45838  13.15484  0.000112  0.000977  0.001843
P  1.45838  4.38279  13.15484  0.000977  0.000112  0.001843
P  16.11004  16.11004  10.23732  -0.001552  -0.001552  0.002317
P  16.12578  10.25653  16.10382  -0.002664  0.002115  -0.002657
P  10.25653  16.12578  16.10382  0.002115  -0.002664  -0.002657
P  16.10565  7.3077  1.44683  0.001212  -0.001183  -0.002718
P  16.09298  1.46829  7.31111  -0.000197  0.000197  0.001981
P  7.3077  16.10565  1.44683  -0.001183  0.001212  -0.002718
P  1.46829  16.09298  7.31111  0.000197  -0.000197  0.001981
P  7.30474  1.4355  16.10382  -0.002115  0.002664  -0.002657
P  1.4355  7.30474  16.10382  0.002664  -0.002115  -0.002657
P  10.25358  1.45563  1.44683  0.001183  -0.001212  -0.002718
P  1.45563  10.25358  1.44683  -0.001212  0.001183  -0.002718
P  1.45123  1.45123  10.23732  0.001552  0.001552  0.002317
P  16.10234  16.10234  4.38405  3.1e-5  3.1e-5  -0.00117
P  16.09787  4.38506  16.08088  0.000387  -0.00064  0.000276
P  16.1084  13.17964  1.45686  0.000325  0.000353  -0.001432
P  4.38506  16.09787  16.08088  -0.00064  0.000387  0.000276
P  13.17964  16.1084  1.45686  0.000353  0.000325  -0.001432
P  16.0965  1.46478  13.15862  0.000648  -0.000648  0.001078
P  13.17622  1.46341  16.08088  0.00064  -0.000387  0.000276
P  1.46478  16.0965  13.15862  -0.000648  0.000648  0.001078
P  1.46341  13.17622  16.08088  -0.000387  0.00064  0.000276
P  4.38164  1.45288  1.45686  -0.000353  -0.000325  -0.001432
P  1.45288  4.38164  1.45686  -0.000325  -0.000353  -0.001432
P  1.45894  1.45894  4.38405  -3.1e-5  -3.1e-5  -0.00117
P  16.10135  16.10135  16.08504  -7.7e-5  -7.7e-5  -0.000783
P  16.0983  1.46298  1.45318  -6.3e-5  6.3e-5  -0.001012
P  1.46298  16.0983  1.45318  6.3e-5  -6.3e-5  -0.001012
P  1.45992  1.45992  16.08504  7.7e-5  7.7e-5  -0.000783
217
Lattice="17.561274918 0.0 0.0 0.0 17.561274918 0.0 0.0 0.0 17.561274918" Properties=species:S:1:pos:R:3:forces:R:3 energy=-1047.96355686 stress="-6.8576 0.68419 0.0 0.68419 -6.8576 0.0 0.0 0.0 -5.63431" pbc="T T T"
In  8.78064  8.78064  8.25186  -0.0  0.0  0.008242
In  11.76946  11.76946  8.71017  -0.000459  -0.000459  0.003469
In  11.78356  8.79583  11.76464  -0.005682  -0.010564  0.004235
In  8.79583  11.78356  11.76464  -0.010564  -0.005682  0.004235
In  11.76875  8.8044  5.74103  -0.002074  0.002497  0.003049
In  11.67599  5.88529  8.79734  0.010944  -0.010944  -0.008817
In  8.8044  11.76875  5.74103  0.002497  -0.002074  0.003049
In  8.76544  5.77772  11.76464  0.010564  0.005682  0.004235
In  5.88529  11.67599  8.79734  -0.010944  0.010944  -0.008817
In  5.77772  8.76544  11.76464  0.005682  0.010564  0.004235
In  8.75687  5.79253  5.74103  -0.002497  0.002074  0.003049
In  5.79253  8.75687  5.74103  0.002074  -0.002497  0.003049
In  5.79182  5.79182  8.71017  0.000459  0.000459  0.003469
In  14.63821  8.78652  8.76219  -0.001473  0.000411  0.000883
In  8.78652  14.63821  8.76219  0.000411  -0.001473  0.000883
In  8.78064  8.78064  14.61291  -0.0  0.0  0.000918
In  8.78064  8.78064  2.88185  -0.0  0.0  0.000939
In  8.77476  2.92307  8.76219  -0.000411  0.001473  0.000883
In  2.92307  8.77476  8.76219  0.001473  -0.000411  0.000883
In  14.63627  11.71067  11.70049  0.001428  0.000215  -0.001561
In  11.71067  14.63627  11.70049  0.000215  0.001428  -0.001561
In  11.72082  11.72082  14.64602  -0.001249  -0.001249  0.000129
In  14.65054  11.71812  5.82659  -0.0024  7.2e-5  0.000926
In  11.71812  14.65054  5.82659  7.2e-5  -0.0024  0.000926
In  14.62592  5.85534  11.69591  0.000459  0.001267  0.001428
In  11.70118  5.86009  14.6421  0.000381  -0.000381  -0.002319
In  5.85534  14.62592  11.69591  0.001267  0.000459  0.001428
In  5.86009  11.70118  14.6421  -0.000381  0.000381  -0.002319
In  14.63135  5.84953  5.85034  -2.1e-5  0.00014  -0.000748
In  11.72677  11.72677  2.88426  -0.001121  -0.001121  0.001442
In  11.70593  2.93535  11.69591  -0.001267  -0.000459  0.001428
In  5.84953  14.63135  5.85034  0.00014  -2.1e-5  -0.000748
In  5.84045  5.84045  14.64602  0.001249  0.001249  0.000129
In  2.93535  11.70593  11.69591  -0.000459  -0.001267  0.001428
In  11.71268  5.8486  2.89274  -0.000722  0.000722  0.00107
In  11.71174  2.92993  5.85034  -0.00014  2.1e-5  -0.000748
In  5.8486  11.71268  2.89274  0.000722  -0.000722  0.00107
In  2.92993  11.71174  5.85034  2.1e-5  -0.00014  -0.000748
In  5.8506  2.92501  11.70049  -0.000215  -0.001428  -0.001561
In  2.92501  5.8506  11.70049  -0.001428  -0.000215  -0.001561
In  5.8345  5.8345  2.88426  0.001121  0.001121  0.001442
In  5.84315  2.91074  5.82659  -7.2e-5  0.0024  0.000926
In  2.91074  5.84315  5.82659  0.0024  -7.2e-5  0.000926
In  14.65689  14.65689  8.77006  -0.002898  -0.002898  -0.002493
In  14.67367  8.77957  14.66321  -0.000899  -0.003418  -0.003325
In  8.77957  14.67367  14.66321  -0.003418  -0.000899  -0.003325
In  14.65872  8.78744  2.88954  -0.002003  0.002073  0.000254
In  14.6233  2.93798  8.76588  0.001687  -0.001687  0.000256
In  8.78744  14.65872  2.88954  0.002073  -0.002003  0.000254
In  8.7817  2.8876  14.66321  0.003418  0.000899  -0.003325
In  2.93798  14.6233  8.76588  -0.001687  0.001687  0.000256
In  2.8876  8.7817  14.66321  0.000899  0.003418  -0.003325
In  8.77384  2.90256  2.88954  -0.002073  0.002003  0.000254
In  2.90256  8.77384  2.88954  0.002003  -0.002073  0.000254
In  2.90439  2.90439  8.77006  0.002898  0.002898  -0.002493
In  0.00106  11.70807  8.76898  -0.000562  -2.8e-5  0.000262
In  -0.0  8.78064  11.69469  -0.0  0.0  0.000295
In  11.70807  0.00106  8.76898  -2.8e-5  -0.000562  0.000262
In  8.78064  0.0  11.69469  -0.0  0.0  0.000295
In  11.71557  8.78367  17.53972  -0.001083  -0.00017  0.000322
In  8.78367  11.71557  17.53972  -0.00017  -0.001083  0.000322
In  -0.0  8.78064  5.83735  -0.0  0.0  0.001621
In  17.56021  5.8532  8.76898  0.000562  2.8e-5  0.000262
In  8.78064  0.0  5.83735  -0.0  0.0  0.001621
In  5.8532  17.56021  8.76898  2.8e-5  0.000562  0.000262
In  8.7776  5.8457  17.53972  0.00017  0.001083  0.000322
In  5.8457  8.7776  17.53972  0.001083  0.00017  0.000322
In  14.64093  14.64093  14.61861  -0.000486  -0.000486  0.000891
In  14.64465  14.64465  2.91375  -0.000792  -0.000792  0.000228
In  14.63182  2.92946  14.61639  -0.000192  0.000192  0.000356
In  2.92946  14.63182  14.61639  0.000192  -0.000192  0.000356
In  14.63706  2.92421  2.91846  0.000826  -0.000826  -0.001468
In  2.92421  14.63706  2.91846  -0.000826  0.000826  -0.001468
In  2.92034  2.92034  14.61861  0.000486  0.000486  0.000891
In  2.91663  2.91663  2.91375  0.000792  0.000792  0.000228
In  0.0073  14.63559  11.69281  -0.00028  -0.000843  -3.5e-5
In  0.00469  11.71436  14.61468  0.000722  -0.002003  0.001298
In  14.63559  0.0073  11.69281  -0.000843  -0.00028  -3.5e-5
In  14.65081  11.71961  17.54964  -0.00183  -0.000541  0.001307
In  11.71436  0.00469  14.61468  -0.002003  0.000722  0.001298
In  11.71961  14.65081  17.54964  -0.000541  -0.00183  0.001307
In  0.00455  14.6381  5.84406  -0.001194  0.000118  -4.0e-5
In  14.6381  0.00455  5.84406  0.000118  -0.001194  -4.0e-5
In  17.55659  5.84692  14.61468  -0.000722  0.002003  0.001298
In  14.64164  5.84557  17.54932  -0.000335  0.000569  -0.000733
In  0.00834  11.71606  2.91861  -0.00197  0.000322  -0.000105
In  5.84692  17.55659  14.61468  0.002003  -0.000722  0.001298
In  5.84557  14.64164  17.54932  0.000569  -0.000335  -0.000733
In  11.71606  0.00834  2.91861  0.000322  -0.00197  -0.000105
In  17.55397  2.92568  11.69281  0.00028  0.000843  -3.5e-5
In  11.71571  2.91964  17.54932  -0.000569  0.000335  -0.000733
In  17.55293  5.84522  2.91861  0.00197  -0.000322  -0.000105
In  2.92568  17.55397  11.69281  0.000843  0.00028  -3.5e-5
In  17.55672  2.92318  5.84406  0.001194  -0.000118  -4.0e-5
In  2.91964  11.71571  17.54932  0.000335  -0.000569  -0.000733
In  5.84522  17.55293  2.91861  -0.000322  0.00197  -0.000105
In  2.92318  17.55672  5.84406  -0.000118  0.001194  -4.0e-5
In  5.84167  2.91047  17.54964  0.000541  0.00183  0.001307
In  2.91047  5.84167  17.54964  0.00183  0.000541  0.001307
In  -0.0  0.0  8.76498  -0.0  0.0  -0.001043
In  -0.0  8.78064  0.00163  -0.0  0.0  -0.001433
In  8.78064  0.0  0.00163  -0.0  0.0  -0.001433
In  -0.0  0.0  14.61817  -0.0  0.0  0.000927
In  0.00376  14.63854  17.54602  -0.000842  -0.000108  0.000297
In  14.63854  0.00376  17.54602  -0.000108  -0.000842  0.000297
In  -0.0  0.0  2.91481  -0.0  0.0  -0.000657
In  17.55751  2.92274  17.54602  0.000842  0.000108  0.000297
In  2.92274  17.55751  17.54602  0.000108  0.000842  0.000297
P  8.78064  8.78064  10.63654  -0.0  0.0  -0.020846
P  10.46032  10.46032  10.41128  -0.014202  -0.014202  0.000589
P  10.32564  7.23564  7.11036  0.005114  -0.005114  0.00577
P  7.23564  10.32564  7.11036  -0.005114  0.005114  0.00577
P  7.10096  7.10096  10.41128  0.014202  0.014202  0.000589
P  13.18523  10.2418  7.27386  -0.000782  0.000267  -0.000174
P  13.16958  7.33547  10.23226  -0.001721  -0.002666  -0.000905
P  10.2418  13.18523  7.27386  0.000267  -0.000782  -0.000174
P  10.25281  7.30846  13.16203  -0.001508  0.001508  0.000922
P  7.33547  13.16958  10.23226  -0.002666  -0.001721  -0.000905
P  7.30846  10.25281  13.16203  0.001508  -0.001508  0.000922
P  10.25457  10.25457  4.32875  -0.001238  -0.001238  0.000912
P  10.2258  4.39169  10.23226  0.002666  0.001721  -0.000905
P  4.39169  10.2258  10.23226  0.001721  0.002666  -0.000905
P  7.3067  7.3067  4.32875  0.001238  0.001238  0.000912
P  7.31947  4.37604  7.27386  -0.000267  0.000782  -0.000174
P  4.37604  7.31947  7.27386  0.000782  -0.000267  -0.000174
P  13.20002  13.20002  10.2315  -0.00236  -0.00236  0.002083
P  13.22972  10.26293  13.22855  -0.003184  0.001508  -0.004332
P  10.26293  13.22972  13.22855  0.001508  -0.003184  -0.004332
P  13.21098  7.30194  4.33208  -0.003312  -0.000625  0.002766
P  13.14759  4.41368  7.32239  0.005336  -0.005336  -0.006394
P  7.30194  13.21098  4.33208  -0.000625  -0.003312  0.002766
P  4.41368  13.14759  7.32239  -0.005336  0.005336  -0.006394
P  7.29834  4.33156  13.22855  -0.001508  0.003184  -0.004332
P  4.33156  7.29834  13.22855  0.003184  -0.001508  -0.004332
P  10.25933  4.35029  4.33208  0.000625  0.003312  0.002766
P  4.35029  10.25933  4.33208  0.003312  0.000625  0.002766
P  4.36125  4.36125  10.2315  0.00236  0.00236  0.002083
P  16.09612  10.24669  10.2317  0.000317  -0.000326  -0.000213
P  10.24669  16.09612  10.2317  -0.000326  0.000317  -0.000213
P  10.24452  10.24452  16.08262  -0.000538  -0.000538  -0.000145
P  16.09904  7.31832  7.30293  -0.000341  -0.000878  -5.8e-5
P  13.17854  13.17854  4.36979  -0.000882  -0.000882  -0.000385
P  13.16355  4.39772  13.16516  0.0005  -0.0005  -0.000555
P  7.31832  16.09904  7.30293  -0.000878  -0.000341  -5.8e-5
P  7.31676  7.31676  16.08262  0.000538  0.000538  -0.000145
P  4.39772  13.16355  13.16516  -0.0005  0.0005  -0.000555
P  10.24855  7.31273  1.4349  3.7e-5  -3.7e-5  0.000194
P  7.31273  10.24855  1.4349  -3.7e-5  3.7e-5  0.000194
P  10.24296  1.46224  7.30293  0.000878  0.000341  -5.8e-5
P  7.31458  1.46515  10.2317  0.000326  -0.000317  -0.000213
P  1.46224  10.24296  7.30293  0.000341  0.000878  -5.8e-5
P  1.46515  7.31458  10.2317  -0.000317  0.000326  -0.000213
P  4.38273  4.38273  4.36979  0.000882  0.000882  -0.000385
P  16.10259  13.17578  7.3051  -0.000813  -0.00098  -0.000198
P  13.17578  16.10259  7.3051  -0.00098  -0.000813  -0.000198
P  16.09692  7.31745  13.15762  0.00059  3.0e-6  -0.000446
P  13.18544  7.31234  16.09538  -0.001277  0.000669  -0.000837
P  7.31745  16.09692  13.15762  3.0e-6  0.00059  -0.000446
P  7.31234  13.18544  16.09538  0.000669  -0.001277  -0.000837
P  16.10664  10.24672  4.37  -0.00131  -0.00046  0.000966
P  16.09225  4.39408  10.2316  -0.000515  0.000459  -0.000105
P  10.24672  16.10664  4.37  -0.00046  -0.00131  0.000966
P  10.24894  4.37583  16.09538  -0.000669  0.001277  -0.000837
P  4.39408  16.09225  10.2316  0.000459  -0.000515  -0.000105
P  4.37583  10.24894  16.09538  0.001277  -0.000669  -0.000837
P  13.18428  10.24829  1.43738  -0.002244  -0.000459  0.000352
P  10.24829  13.18428  1.43738  -0.000459  -0.002244  0.000352
P  13.16719  1.46902  10.2316  -0.000459  0.000515  -0.000105
P  10.24382  1.46436  13.15762  -3.0e-6  -0.00059  -0.000446
P  1.46902  13.16719  10.2316  0.000515  -0.000459  -0.000105
P  1.46436  10.24382  13.15762  -0.00059  -3.0e-6  -0.000446
P  7.31299  4.37699  1.43738  0.000459  0.002244  0.000352
P  7.31455  1.45463  4.37  0.00046  0.00131  0.000966
P  4.37699  7.31299  1.43738  0.002244  0.000459  0.000352
P  4.3855  1.45868  7.3051  0.00098  0.000813  -0.000198
P  1.45463  7.31455  4.37  0.00131  0.00046  0.000966
P  1.45868  4.3855  7.3051  0.000813  0.00098  -0.000198
P  16.10285  13.17848  13.15493  4.9e-5  -0.000762  0.000926
P  13.17848  16.10285  13.15493  -0.000762  4.9e-5  0.000926
P  13.18694  13.18694  16.09771  -0.000511  -0.000511  0.000493
P  16.09277  4.38646  4.38606  -3.1e-5  0.0002  -0.000197
P  4.38646  16.09277  4.38606  0.0002  -3.1e-5  -0.000197
P  4.37433  4.37433  16.09771  0.000511  0.000511  0.000493
P  13.18086  4.38042  1.44652  -0.000682  0.000682  0.000355
P  13.17481  1.46851  4.38606  -0.0002  3.1e-5  -0.000197
P  4.38042  13.18086  1.44652  0.000682  -0.000682  0.000355
P  1.46851  13.17481  4.38606  3.1e-5  -0.0002  -0.000197
P  4.3828  1.45843  13.15493  0.000762  -4.9e-5  0.000926
P  1.45843  4.3828  13.15493  -4.9e-5  0.000762  0.000926
P  16.10997  16.10997  10.23744  -0.001591  -0.001591  -0.001076
P  16.12565  10.25664  16.10369  -0.002675  -0.00037  -0.001003
P  10.25664  16.12565  16.10369  -0.00037  -0.002675  -0.001003
P  16.10571  7.30764  1.4467  -0.000122  4.6e-5  0.000576
P  16.09297  1.4683  7.31121  -8.5e-5  8.5e-5  -0.000514
P  7.30764  16.10571  1.4467  4.6e-5  -0.000122  0.000576
P  1.4683  16.09297  7.31121  8.5e-5  -8.5e-5  -0.000514
P  7.30464  1.43563  16.10369  0.00037  0.002675  -0.001003
P  1.43563  7.30464  16.10369  0.002675  0.00037  -0.001003
P  10.25363  1.45557  1.4467  -4.6e-5  0.000122  0.000576
P  1.45557  10.25363  1.4467  0.000122  -4.6e-5  0.000576
P  1.45131  1.45131  10.23744  0.001591  0.001591  -0.001076
P  16.10234  16.10234  4.38399  -0.000168  -0.000168  -0.000476
P  16.09788  4.38503  16.08089  0.000315  -0.000332  0.000479
P  16.10841  13.17965  1.4568  -0.000833  0.000156  7.4e-5
P  4.38503  16.09788  16.08089  -0.000332  0.000315  0.000479
P  13.17965  16.10841  1.4568  0.000156  -0.000833  7.4e-5
P  16.09653  1.46475  13.15867  0.000199  -0.000199  0.000193
P  13.17625  1.46339  16.08089  0.000332  -0.000315  0.000479
P  1.46475  16.09653  13.15867  -0.000199  0.000199  0.000193
P  1.46339  13.17625  16.08089  -0.000315  0.000332  0.000479
P  4.38162  1.45286  1.4568  -0.000156  0.000833  7.4e-5
P  1.45286  4.38162  1.4568  0.000833  -0.000156  7.4e-5
P  1.45893  1.45893  4.38399  0.000168  0.000168  -0.000476
P  16.10135  16.10135  16.08501  -0.000171  -0.000171  0.00026
P  16.0983  1.46298  1.45313  0.000402  -0.000402  -0.000467
P  1.46298  16.0983  1.45313  -0.000402  0.000402  -0.000467
P  1.45993  1.45993  16.08501  0.000171  0.000171  0.00026
217
Lattice="17.561274918 0.0 0.0 0.0 17.561274918 0.0 0.0 0.0 17.561274918" Properties=species:S:1:pos:R:3:forces:R:3 energy=-1047.96355417 stress="-6.85589 0.68329 0.0 0.68329 -6.85589 0.0 0.0 0.0 -5.63911" pbc="T T T"
In  8.78064  8.78064  8.25132  -0.0  0.0  0.020362
In  11.76949  11.76949  8.71013  -0.00154  -0.00154  0.004984
In  11.7835  8.79575  11.76468  -0.005011  -0.009633  0.003731
In  8.79575  11.7835  11.76468  -0.009633  -0.005011  0.003731
In  11.76873  8.80444  5.74106  -0.001822  0.001417  0.002558
In  11.67605  5.88523  8.79721  0.010702  -0.010702  -0.006907
In  8.80444  11.76873  5.74106  0.001417  -0.001822  0.002558
In  8.76553  5.77778  11.76468  0.009633  0.005011  0.003731
In  5.88523  11.67605  8.79721  -0.010702  0.010702  -0.006907
In  5.77778  8.76553  11.76468  0.005011  0.009633  0.003731
In  8.75683  5.79254  5.74106  -0.001417  0.001822  0.002558
In  5.79254  8.75683  5.74106  0.001822  -0.001417  0.002558
In  5.79178  5.79178  8.71013  0.00154  0.00154  0.004984
In  14.6382  8.78653  8.76218  -0.001344  9.3e-5  0.001243
In  8.78653  14.6382  8.76218  9.3e-5  -0.001344  0.001243
In  8.78064  8.78064  14.61292  -0.0  0.0  0.000659
In  8.78064  8.78064  2.88188  -0.0  0.0  0.000125
In  8.77474  2.92308  8.76218  -9.3e-5  0.001344  0.001243
In  2.92308  8.77474  8.76218  0.001344  -9.3e-5  0.001243
In  14.63628  11.71067  11.70046  0.001385  0.000147  -0.000991
In  11.71067  14.63628  11.70046  0.000147  0.001385  -0.000991
In  11.72081  11.72081  14.64602  -0.000885  -0.000885  0.000144
In  14.65051  11.71812  5.8266  -0.001909  4.2e-5  0.000565
In  11.71812  14.65051  5.8266  4.2e-5  -0.001909  0.000565
In  14.62593  5.85535  11.69592  0.000289  0.001085  0.001154
In  11.70121  5.86007  14.6421  -0.000296  0.000296  -0.002615
In  5.85535  14.62593  11.69592  0.001085  0.000289  0.001154
In  5.86007  11.70121  14.6421  0.000296  -0.000296  -0.002615
In  14.63133  5.84953  5.85034  0.000416  0.000131  -0.000878
In  11.72676  11.72676  2.88429  -0.000815  -0.000815  0.000815
In  11.70592  2.93535  11.69592  -0.001085  -0.000289  0.001154
In  5.84953  14.63133  5.85034  0.000131  0.000416  -0.000878
In  5.84047  5.84047  14.64602  0.000885  0.000885  0.000144
In  2.93535  11.70592  11.69592  -0.000289  -0.001085  0.001154
In  11.71267  5.8486  2.89276  -0.000586  0.000586  0.000619
In  11.71174  2.92994  5.85034  -0.000131  -0.000416  -0.000878
In  5.8486  11.71267  2.89276  0.000586  -0.000586  0.000619
In  2.92994  11.71174  5.85034  -0.000416  -0.000131  -0.000878
In  5.8506  2.925  11.70046  -0.000147  -0.001385  -0.000991
In  2.925  5.8506  11.70046  -0.001385  -0.000147  -0.000991
In  5.83451  5.83451  2.88429  0.000815  0.000815  0.000815
In  5.84315  2.91077  5.8266  -4.2e-5  0.001909  0.000565
In  2.91077  5.84315  5.8266  0.001909  -4.2e-5  0.000565
In  14.65687  14.65687  8.77001  -0.002909  -0.002909  -0.001581
In  14.6737  8.7795  14.66321  -0.001537  -0.002071  -0.003672
In  8.7795  14.6737  14.66321  -0.002071  -0.001537  -0.003672
In  14.6587  8.78747  2.88955  -0.001833  0.001471  0.00016
In  14.6233  2.93797  8.76586  0.001689  -0.001689  0.000805
In  8.78747  14.6587  2.88955  0.001471  -0.001833  0.00016
In  8.78178  2.88758  14.66321  0.002071  0.001537  -0.003672