64
Lattice="11.70751661 0.0 0.0 0.0 11.70751661 0.0 0.0 0.0 11.70751661" Properties=species:S:1:pos:R:3:forces:R:3 energy=-306.87654462 stress="-7.80816 -0.05086 -0.05086 -0.05086 -7.80816 -0.05086 -0.05086 -0.05086 -7.80816" pbc="T T T"
In  8.84115  8.84115  8.84115  0.32346  0.32346  0.32346
In  10.31178  7.32211  7.32211  0.309827  -0.289567  -0.289567
In  7.32211  10.31178  7.32211  -0.289567  0.309827  -0.289567
In  7.32211  7.32211  10.31178  -0.289567  -0.289567  0.309827
In  1.40743  10.17928  7.34499  -0.001032  0.025033  -0.002687
In  1.40743  7.34499  10.17928  -0.001032  -0.002687  0.025033
In  10.17928  1.40743  7.34499  0.025033  -0.001032  -0.002687
In  10.17928  7.34499  1.40743  0.025033  -0.002687  -0.001032
In  7.34499  1.40743  10.17928  -0.002687  -0.001032  0.025033
In  7.34499  10.17928  1.40743  -0.002687  0.025033  -0.001032
In  10.24382  10.24382  4.39164  0.014624  0.014624  0.119551
In  10.24382  4.39164  10.24382  0.014624  0.119551  0.014624
In  4.39164  10.24382  10.24382  0.119551  0.014624  0.014624
In  7.32203  7.32203  4.41989  -0.100604  -0.100604  -0.06676
In  7.32203  4.41989  7.32203  -0.100604  -0.06676  -0.100604
In  4.41989  7.32203  7.32203  -0.06676  -0.100604  -0.100604
In  1.46287  1.46287  10.29351  9.0e-5  9.0e-5  -0.010278
In  1.46287  10.29351  1.46287  9.0e-5  -0.010278  9.0e-5
In  10.29351  1.46287  1.46287  -0.010278  9.0e-5  9.0e-5
In  1.50323  7.31525  4.34891  -0.136067  -0.102406  0.130431
In  1.50323  4.34891  7.31525  -0.136067  0.130431  -0.102406
In  7.31525  1.50323  4.34891  -0.102406  -0.136067  0.130431
In  4.34891  1.50323  7.31525  0.130431  -0.136067  -0.102406
In  7.31525  4.34891  1.50323  -0.102406  0.130431  -0.136067
In  4.34891  7.31525  1.50323  0.130431  -0.102406  -0.136067
In  10.2349  4.38711  4.38711  0.137822  -0.044652  -0.044652
In  4.38711  10.2349  4.38711  -0.044652  0.137822  -0.044652
In  4.38711  4.38711  10.2349  -0.044652  -0.044652  0.137822
In  1.45524  1.45524  4.39696  0.131079  0.131079  0.125084
In  1.45524  4.39696  1.45524  0.131079  0.125084  0.131079
In  4.39696  1.45524  1.45524  0.125084  0.131079  0.131079
In  4.39328  4.39328  4.39328  -0.009971  -0.009971  -0.009971
P  10.30211  10.30211  10.30211  0.018582  0.018582  0.018582
P  11.60621  11.60621  8.9722  -0.03992  -0.03992  0.025552
P  11.60621  8.9722  11.60621  -0.03992  0.025552  -0.03992
P  8.9722  11.60621  11.60621  0.025552  -0.03992  -0.03992
P  0.0348  8.7541  5.79074  -0.040137  -0.010381  0.01552
P  0.0348  5.79074  8.7541  -0.040137  0.01552  -0.010381
P  8.7541  0.0348  5.79074  -0.010381  -0.040137  0.01552
P  8.7541  5.79074  0.0348  -0.010381  0.01552  -0.040137
P  5.79074  0.0348  8.7541  0.01552  -0.040137  -0.010381
P  5.79074  8.7541  0.0348  0.01552  -0.010381  -0.040137
P  8.80947  5.85693  5.85693  -0.001878  -0.008776  -0.008776
P  5.85693  8.80947  5.85693  -0.008776  -0.001878  -0.008776
P  5.85693  5.85693  8.80947  -0.008776  -0.008776  -0.001878
P  2.93849  8.78261  8.78261  -0.053479  -0.019501  -0.019501
P  8.78261  2.93849  8.78261  -0.019501  -0.053479  -0.019501
P  8.78261  8.78261  2.93849  -0.019501  -0.019501  -0.053479
P  2.95329  0.00703  0.00703  -0.146597  -0.065171  -0.065171
P  0.00703  2.95329  0.00703  -0.065171  -0.146597  -0.065171
P  0.00703  0.00703  2.95329  -0.065171  -0.065171  -0.146597
P  2.87645  11.6988  5.9049  0.120513  -0.04356  -0.15089
P  11.6988  2.87645  5.9049  -0.04356  0.120513  -0.15089
P  2.87645  5.9049  11.6988  0.120513  -0.15089  -0.04356
P  11.6988  5.9049  2.87645  -0.04356  -0.15089  0.120513
P  5.9049  2.87645  11.6988  -0.15089  0.120513  -0.04356
P  5.9049  11.6988  2.87645  -0.15089  -0.04356  0.120513
P  2.93184  5.84544  5.84544  0.00672  0.102456  0.102456
P  5.84544  2.93184  5.84544  0.102456  0.00672  0.102456
P  5.84544  5.84544  2.93184  0.102456  0.102456  0.00672
P  2.902  2.902  8.78263  0.013233  0.013233  0.28668
P  2.902  8.78263  2.902  0.013233  0.28668  0.013233
P  8.78263  2.902  2.902  0.28668  0.013233  0.013233
P  2.92994  2.92994  2.92994  -0.059573  -0.059573  -0.059573
64
Lattice="11.70751661 0.0 0.0 0.0 11.70751661 0.0 0.0 0.0 11.70751661" Properties=species:S:1:pos:R:3:forces:R:3 energy=-306.96354836 stress="-8.08461 0.17121 0.17121 0.17121 -8.08461 0.17121 0.17121 0.17121 -8.08461" pbc="T T T"
In  8.86707  8.86707  8.86707  -0.001978  -0.001978  -0.001978
In  10.32289  7.29594  7.29594  -0.006946  0.001903  0.001903
In  7.29594  10.32289  7.29594  0.001903  -0.006946  0.001903
In  7.29594  7.29594  10.32289  0.001903  0.001903  -0.006946
In  1.41753  10.19034  7.3419  -0.007282  -0.007195  0.003429
In  1.41753  7.3419  10.19034  -0.007282  0.003429  -0.007195
In  10.19034  1.41753  7.3419  -0.007195  -0.007282  0.003429
In  10.19034  7.3419  1.41753  -0.007195  0.003429  -0.007282
In  7.3419  1.41753  10.19034  0.003429  -0.007282  -0.007195
In  7.3419  10.19034  1.41753  0.003429  -0.007195  -0.007282
In  10.24474  10.24474  4.39891  0.002331  0.002331  0.01261
In  10.24474  4.39891  10.24474  0.002331  0.01261  0.002331
In  4.39891  10.24474  10.24474  0.01261  0.002331  0.002331
In  7.31103  7.31103  4.40878  -0.004831  -0.004831  -0.00117
In  7.31103  4.40878  7.31103  -0.004831  -0.00117  -0.004831
In  4.40878  7.31103  7.31103  -0.00117  -0.004831  -0.004831
In  1.46057  1.46057  10.29325  -0.005133  -0.005133  0.001541
In  1.46057  10.29325  1.46057  -0.005133  0.001541  -0.005133
In  10.29325  1.46057  1.46057  0.001541  -0.005133  -0.005133
In  1.48907  7.31564  4.35983  0.000593  0.000458  0.008075
In  1.48907  4.35983  7.31564  0.000593  0.008075  0.000458
In  7.31564  1.48907  4.35983  0.000458  0.000593  0.008075
In  4.35983  1.48907  7.31564  0.008075  0.000593  0.000458
In  7.31564  4.35983  1.48907  0.000458  0.008075  0.000593
In  4.35983  7.31564  1.48907  0.008075  0.000458  0.000593
In  10.24372  4.37472  4.37472  -0.001807  0.004205  0.004205
In  4.37472  10.24372  4.37472  0.004205  -0.001807  0.004205
In  4.37472  4.37472  10.24372  0.004205  0.004205  -0.001807
In  1.46711  1.46711  4.40577  0.003965  0.003965  -0.001063
In  1.46711  4.40577  1.46711  0.003965  -0.001063  0.003965
In  4.40577  1.46711  1.46711  -0.001063  0.003965  0.003965
In  4.39388  4.39388  4.39388  -0.00144  -0.00144  -0.00144
P  10.31322  10.31322  10.31322  -0.010154  -0.010154  -0.010154
P  11.60851  11.60851  8.96993  -0.001009  -0.001009  0.013877
P  11.60851  8.96993  11.60851  -0.001009  0.013877  -0.001009
P  8.96993  11.60851  11.60851  0.013877  -0.001009  -0.001009
P  0.03414  8.76034  5.79621  -0.013072  0.008551  0.012822
P  0.03414  5.79621  8.76034  -0.013072  0.012822  0.008551
P  8.76034  0.03414  5.79621  0.008551  -0.013072  0.012822
P  8.76034  5.79621  0.03414  0.008551  0.012822  -0.013072
P  5.79621  0.03414  8.76034  0.012822  -0.013072  0.008551
P  5.79621  8.76034  0.03414  0.012822  0.008551  -0.013072
P  8.80453  5.84207  5.84207  -0.000651  -0.002247  -0.002247
P  5.84207  8.80453  5.84207  -0.002247  -0.000651  -0.002247
P  5.84207  5.84207  8.80453  -0.002247  -0.002247  -0.000651
P  2.9365  8.78007  8.78007  0.004663  0.003157  0.003157
P  8.78007  2.9365  8.78007  0.003157  0.004663  0.003157
P  8.78007  8.78007  2.9365  0.003157  0.003157  0.004663
P  2.94624  0.00599  0.00599  0.009204  -0.000261  -0.000261
P  0.00599  2.94624  0.00599  -0.000261  0.009204  -0.000261
P  0.00599  0.00599  2.94624  -0.000261  -0.000261  0.009204
P  2.89416  11.69846  5.88735  0.000886  -0.003077  -0.004576
P  11.69846  2.89416  5.88735  -0.003077  0.000886  -0.004576
P  2.89416  5.88735  11.69846  0.000886  -0.004576  -0.003077
P  11.69846  5.88735  2.89416  -0.003077  -0.004576  0.000886
P  5.88735  2.89416  11.69846  -0.004576  0.000886  -0.003077
P  5.88735  11.69846  2.89416  -0.004576  -0.003077  0.000886
P  2.92559  5.85037  5.85037  0.000461  0.00156  0.00156
P  5.85037  2.92559  5.85037  0.00156  0.000461  0.00156
P  5.85037  5.85037  2.92559  0.00156  0.00156  0.000461
P  2.8993  2.8993  8.79808  -0.008313  -0.008313  -0.008602
P  2.8993  8.79808  2.8993  -0.008313  -0.008602  -0.008313
P  8.79808  2.8993  2.8993  -0.008602  -0.008313  -0.008313
P  2.92854  2.92854  2.92854  0.001581  0.001581  0.001581
64
Lattice="11.70751661 0.0 0.0 0.0 11.70751661 0.0 0.0 0.0 11.70751661" Properties=species:S:1:pos:R:3:forces:R:3 energy=-306.96411391 stress="-8.07919 0.17498 0.17498 0.17498 -8.07919 0.17498 0.17498 0.17498 -8.07919" pbc="T T T"
In  8.86688  8.86688  8.86688  -0.001814  -0.001814  -0.001814
In  10.32157  7.29582  7.29582  -0.009246  -0.00059  -0.00059
In  7.29582  10.32157  7.29582  -0.00059  -0.009246  -0.00059
In  7.29582  7.29582  10.32157  -0.00059  -0.00059  -0.009246
In  1.41752  10.19016  7.34207  -0.002503  -0.000111  0.007132
In  1.41752  7.34207  10.19016  -0.002503  0.007132  -0.000111
In  10.19016  1.41752  7.34207  -0.000111  -0.002503  0.007132
In  10.19016  7.34207  1.41752  -0.000111  0.007132  -0.002503
In  7.34207  1.41752  10.19016  0.007132  -0.002503  -0.000111
In  7.34207  10.19016  1.41752  0.007132  -0.000111  -0.002503
In  10.24511  10.24511  4.40005  0.000116  0.000116  0.004639
In  10.24511  4.40005  10.24511  0.000116  0.004639  0.000116
In  4.40005  10.24511  10.24511  0.004639  0.000116  0.000116
In  7.31026  7.31026  4.40793  0.000601  0.000601  0.004379
In  7.31026  4.40793  7.31026  0.000601  0.004379  0.000601
In  4.40793  7.31026  7.31026  0.004379  0.000601  0.000601
In  1.46009  1.46009  10.29416  -0.001336  -0.001336  -0.000523
In  1.46009  10.29416  1.46009  -0.001336  -0.000523  -0.001336
In  10.29416  1.46009  1.46009  -0.000523  -0.001336  -0.001336
In  1.48852  7.31619  4.36121  -0.00427  0.001364  0.002856
In  1.48852  4.36121  7.31619  -0.00427  0.002856  0.001364
In  7.31619  1.48852  4.36121  0.001364  -0.00427  0.002856
In  4.36121  1.48852  7.31619  0.002856  -0.00427  0.001364
In  7.31619  4.36121  1.48852  0.001364  0.002856  -0.00427
In  4.36121  7.31619  1.48852  0.002856  0.001364  -0.00427
In  10.24332  4.37437  4.37437  -0.004492  -0.001999  -0.001999
In  4.37437  10.24332  4.37437  -0.001999  -0.004492  -0.001999
In  4.37437  4.37437  10.24332  -0.001999  -0.001999  -0.004492
In  1.46751  1.46751  4.40558  0.004685  0.004685  0.002655
In  1.46751  4.40558  1.46751  0.004685  0.002655  0.004685
In  4.40558  1.46751  1.46751  0.002655  0.004685  0.004685
In  4.394  4.394  4.394  -0.001702  -0.001702  -0.001702
P  10.31264  10.31264  10.31264  -0.004532  -0.004532  -0.004532
P  11.60859  11.60859  8.97101  -0.004231  -0.004231  0.006338
P  11.60859  8.97101  11.60859  -0.004231  0.006338  -0.004231
P  8.97101  11.60859  11.60859  0.006338  -0.004231  -0.004231
P  0.03286  8.76108  5.79784  -0.003889  -4.8e-5  0.005381
P  0.03286  5.79784  8.76108  -0.003889  0.005381  -4.8e-5
P  8.76108  0.03286  5.79784  -4.8e-5  -0.003889  0.005381
P  8.76108  5.79784  0.03286  -4.8e-5  0.005381  -0.003889
P  5.79784  0.03286  8.76108  0.005381  -0.003889  -4.8e-5
P  5.79784  8.76108  0.03286  0.005381  -4.8e-5  -0.003889
P  8.80406  5.84146  5.84146  -0.002622  -0.000345  -0.000345
P  5.84146  8.80406  5.84146  -0.000345  -0.002622  -0.000345
P  5.84146  5.84146  8.80406  -0.000345  -0.000345  -0.002622
P  2.93722  8.78026  8.78026  0.003435  0.003198  0.003198
P  8.78026  2.93722  8.78026  0.003198  0.003435  0.003198
P  8.78026  8.78026  2.93722  0.003198  0.003198  0.003435
P  2.94702  0.00621  0.00621  0.006976  -0.000833  -0.000833
P  0.00621  2.94702  0.00621  -0.000833  0.006976  -0.000833
P  0.00621  0.00621  2.94702  -0.000833  -0.000833  0.006976
P  2.89454  11.69871  5.88685  0.000256  -0.006332  0.001384
P  11.69871  2.89454  5.88685  -0.006332  0.000256  0.001384
P  2.89454  5.88685  11.69871  0.000256  0.001384  -0.006332
P  11.69871  5.88685  2.89454  -0.006332  0.001384  0.000256
P  5.88685  2.89454  11.69871  0.001384  0.000256  -0.006332
P  5.88685  11.69871  2.89454  0.001384  -0.006332  0.000256
P  2.92534  5.85027  5.85027  -0.000972  0.000271  0.000271
P  5.85027  2.92534  5.85027  0.000271  -0.000972  0.000271
P  5.85027  5.85027  2.92534  0.000271  0.000271  -0.000972
P  2.89801  2.89801  8.7969  -0.001649  -0.001649  -0.000539
P  2.89801  8.7969  2.89801  -0.001649  -0.000539  -0.001649
P  8.7969  2.89801  2.89801  -0.000539  -0.001649  -0.001649
P  2.92896  2.92896  2.92896  -0.000196  -0.000196  -0.000196
64
Lattice="11.70751661 0.0 0.0 0.0 11.70751661 0.0 0.0 0.0 11.70751661" Properties=species:S:1:pos:R:3:forces:R:3 energy=-306.96425788 stress="-8.07188 0.17744 0.17744 0.17744 -8.07188 0.17744 0.17744 0.17744 -8.07188" pbc="T T T"
In  8.86677  8.86677  8.86677  -0.001689  -0.001689  -0.001689
In  10.32079  7.29575  7.29575  -0.010461  -0.002145  -0.002145
In  7.29575  10.32079  7.29575  -0.002145  -0.010461  -0.002145
In  7.29575  7.29575  10.32079  -0.002145  -0.002145  -0.010461
In  1.41751  10.19006  7.34218  0.000571  0.004283  0.009231
In  1.41751  7.34218  10.19006  0.000571  0.009231  0.004283
In  10.19006  1.41751  7.34218  0.004283  0.000571  0.009231
In  10.19006  7.34218  1.41751  0.004283  0.009231  0.000571
In  7.34218  1.41751  10.19006  0.009231  0.000571  0.004283
In  7.34218  10.19006  1.41751  0.009231  0.004283  0.000571
In  10.24532  10.24532  4.40073  -0.001177  -0.001177  -0.000379
In  10.24532  4.40073  10.24532  -0.001177  -0.000379  -0.001177
In  4.40073  10.24532  10.24532  -0.000379  -0.001177  -0.001177
In  7.30979  7.30979  4.40743  0.003914  0.003914  0.007643
In  7.30979  4.40743  7.30979  0.003914  0.007643  0.003914
In  4.40743  7.30979  7.30979  0.007643  0.003914  0.003914
In  1.45981  1.45981  10.2947  0.001077  0.001077  -0.001676
In  1.45981  10.2947  1.45981  0.001077  -0.001676  0.001077
In  10.2947  1.45981  1.45981  -0.001676  0.001077  0.001077
In  1.48819  7.31652  4.36203  -0.007159  0.001913  -0.000468
In  1.48819  4.36203  7.31652  -0.007159  -0.000468  0.001913
In  7.31652  1.48819  4.36203  0.001913  -0.007159  -0.000468
In  4.36203  1.48819  7.31652  -0.000468  -0.007159  0.001913
In  7.31652  4.36203  1.48819  0.001913  -0.000468  -0.007159
In  4.36203  7.31652  1.48819  -0.000468  0.001913  -0.007159
In  10.24308  4.37415  4.37415  -0.006082  -0.005855  -0.005855
In  4.37415  10.24308  4.37415  -0.005855  -0.006082  -0.005855
In  4.37415  4.37415  10.24308  -0.005855  -0.005855  -0.006082
In  1.46774  1.46774  4.40546  0.005025  0.005025  0.004819
In  1.46774  4.40546  1.46774  0.005025  0.004819  0.005025
In  4.40546  1.46774  1.46774  0.004819  0.005025  0.005025
In  4.39407  4.39407  4.39407  -0.001774  -0.001774  -0.001774
P  10.3123  10.3123  10.3123  -0.001133  -0.001133  -0.001133
P  11.60865  11.60865  8.97165  -0.006187  -0.006187  0.001881
P  11.60865  8.97165  11.60865  -0.006187  0.001881  -0.006187
P  8.97165  11.60865  11.60865  0.001881  -0.006187  -0.006187
P  0.0321  8.76152  5.7988  0.001558  -0.005115  0.000989
P  0.0321  5.7988  8.76152  0.001558  0.000989  -0.005115
P  8.76152  0.0321  5.7988  -0.005115  0.001558  0.000989
P  8.76152  5.7988  0.0321  -0.005115  0.000989  0.001558
P  5.7988  0.0321  8.76152  0.000989  0.001558  -0.005115
P  5.7988  8.76152  0.0321  0.000989  -0.005115  0.001558
P  8.80379  5.84109  5.84109  -0.003799  0.000759  0.000759
P  5.84109  8.80379  5.84109  0.000759  -0.003799  0.000759
P  5.84109  5.84109  8.80379  0.000759  0.000759  -0.003799
P  2.93765  8.78037  8.78037  0.002626  0.003186  0.003186
P  8.78037  2.93765  8.78037  0.003186  0.002626  0.003186
P  8.78037  8.78037  2.93765  0.003186  0.003186  0.002626
P  2.94748  0.00634  0.00634  0.005598  -0.00116  -0.00116
P  0.00634  2.94748  0.00634  -0.00116  0.005598  -0.00116
P  0.00634  0.00634  2.94748  -0.00116  -0.00116  0.005598
P  2.89477  11.69887  5.88655  -8.9e-5  -0.008266  0.004884
P  11.69887  2.89477  5.88655  -0.008266  -8.9e-5  0.004884
P  2.89477  5.88655  11.69887  -8.9e-5  0.004884  -0.008266
P  11.69887  5.88655  2.89477  -0.008266  0.004884  -8.9e-5
P  5.88655  2.89477  11.69887  0.004884  -8.9e-5  -0.008266
P  5.88655  11.69887  2.89477  0.004884  -0.008266  -8.9e-5
P  2.92518  5.85021  5.85021  -0.001831  -0.000462  -0.000462
P  5.85021  2.92518  5.85021  -0.000462  -0.001831  -0.000462
P  5.85021  5.85021  2.92518  -0.000462  -0.000462  -0.001831
P  2.89725  2.89725  8.7962  0.002329  0.002329  0.00422
P  2.89725  8.7962  2.89725  0.002329  0.00422  0.002329
P  8.7962  2.89725  2.89725  0.00422  0.002329  0.002329
P  2.92922  2.92922  2.92922  -0.001239  -0.001239  -0.001239
64
Lattice="11.70751661 0.0 0.0 0.0 11.70751661 0.0 0.0 0.0 11.70751661" Properties=species:S:1:pos:R:3:forces:R:3 energy=-306.96456163 stress="-8.07808 0.16419 0.16419 0.16419 -8.07808 0.16419 0.16419 0.16419 -8.07808" pbc="T T T"
In  8.86648  8.86648  8.86648  0.000791  0.000791  0.000791
In  10.3189  7.29545  7.29545  -0.002487  -0.003973  -0.003973
In  7.29545  10.3189  7.29545  -0.003973  -0.002487  -0.003973
In  7.29545  7.29545  10.3189  -0.003973  -0.003973  -0.002487
In  1.41756  10.19041  7.34326  -0.001057  0.000545  0.004863
In  1.41756  7.34326  10.19041  -0.001057  0.004863  0.000545
In  10.19041  1.41756  7.34326  0.000545  -0.001057  0.004863
In  10.19041  7.34326  1.41756  0.000545  0.004863  -0.001057
In  7.34326  1.41756  10.19041  0.004863  -0.001057  0.000545
In  7.34326  10.19041  1.41756  0.004863  0.000545  -0.001057
In  10.24542  10.24542  4.40137  -0.000355  -0.000355  0.001942
In  10.24542  4.40137  10.24542  -0.000355  0.001942  -0.000355
In  4.40137  10.24542  10.24542  0.001942  -0.000355  -0.000355
In  7.30975  7.30975  4.40774  0.002492  0.002492  0.000987
In  7.30975  4.40774  7.30975  0.002492  0.000987  0.002492
In  4.40774  7.30975  7.30975  0.000987  0.002492  0.002492
In  1.45964  1.45964  10.29506  0.00145  0.00145  0.001838
In  1.45964  10.29506  1.45964  0.00145  0.001838  0.00145
In  10.29506  1.45964  1.45964  0.001838  0.00145  0.00145
In  1.4871  7.31705  4.36279  -0.002727  -0.000532  -0.004175
In  1.4871  4.36279  7.31705  -0.002727  -0.004175  -0.000532
In  7.31705  1.4871  4.36279  -0.000532  -0.002727  -0.004175
In  4.36279  1.4871  7.31705  -0.004175  -0.002727  -0.000532
In  7.31705  4.36279  1.4871  -0.000532  -0.004175  -0.002727
In  4.36279  7.31705  1.4871  -0.004175  -0.000532  -0.002727
In  10.2422  4.37332  4.37332  -0.004305  -0.002019  -0.002019
In  4.37332  10.2422  4.37332  -0.002019  -0.004305  -0.002019
In  4.37332  4.37332  10.2422  -0.002019  -0.002019  -0.004305
In  1.46851  1.46851  4.40585  -0.000191  -0.000191  0.008968
In  1.46851  4.40585  1.46851  -0.000191  0.008968  -0.000191
In  4.40585  1.46851  1.46851  0.008968  -0.000191  -0.000191
In  4.39396  4.39396  4.39396  0.000748  0.000748  0.000748
P  10.31184  10.31184  10.31184  -0.001854  -0.001854  -0.001854
P  11.60805  11.60805  8.97249  -0.00131  -0.00131  -0.000969
P  11.60805  8.97249  11.60805  -0.00131  -0.000969  -0.00131
P  8.97249  11.60805  11.60805  -0.000969  -0.00131  -0.00131
P  0.03151  8.76141  5.79987  0.002909  -0.00133  0.003311
P  0.03151  5.79987  8.76141  0.002909  0.003311  -0.00133
P  8.76141  0.03151  5.79987  -0.00133  0.002909  0.003311
P  8.76141  5.79987  0.03151  -0.00133  0.003311  0.002909
P  5.79987  0.03151  8.76141  0.003311  0.002909  -0.00133
P  5.79987  8.76141  0.03151  0.003311  -0.00133  0.002909
P  8.80311  5.84081  5.84081  0.000189  -0.002533  -0.002533
P  5.84081  8.80311  5.84081  -0.002533  0.000189  -0.002533
P  5.84081  5.84081  8.80311  -0.002533  -0.002533  0.000189
P  2.93836  8.78082  8.78082  0.000979  0.000448  0.000448
P  8.78082  2.93836  8.78082  0.000448  0.000979  0.000448
P  8.78082  8.78082  2.93836  0.000448  0.000448  0.000979
P  2.94853  0.00635  0.00635  0.000165  0.002221  0.002221
P  0.00635  2.94853  0.00635  0.002221  0.000165  0.002221
P  0.00635  0.00635  2.94853  0.002221  0.002221  0.000165
P  2.89499  11.69815  5.88678  -0.000793  -0.004364  0.003872
P  11.69815  2.89499  5.88678  -0.004364  -0.000793  0.003872
P  2.89499  5.88678  11.69815  -0.000793  0.003872  -0.004364
P  11.69815  5.88678  2.89499  -0.004364  0.003872  -0.000793
P  5.88678  2.89499  11.69815  0.003872  -0.000793  -0.004364
P  5.88678  11.69815  2.89499  0.003872  -0.004364  -0.000793
P  2.92484  5.8501  5.8501  -0.001573  0.001158  0.001158
P  5.8501  2.92484  5.8501  0.001158  -0.001573  0.001158
P  5.8501  5.8501  2.92484  0.001158  0.001158  -0.001573
P  2.89673  2.89673  8.79595  0.000603  0.000603  -0.001812
P  2.89673  8.79595  2.89673  0.000603  -0.001812  0.000603
P  8.79595  2.89673  2.89673  -0.001812  0.000603  0.000603
P  2.92934  2.92934  2.92934  -0.00064  -0.00064  -0.00064
64
Lattice="11.70751661 0.0 0.0 0.0 11.70751661 0.0 0.0 0.0 11.70751661" Properties=species:S:1:pos:R:3:forces:R:3 energy=-306.96463589 stress="-8.08193 0.1568 0.1568 0.1568 -8.08193 0.1568 0.1568 0.1568 -8.08193" pbc="T T T"
In  8.86632  8.86632  8.86632  0.002029  0.002029  0.002029
In  10.31782  7.29528  7.29528  0.001592  -0.005072  -0.005072
In  7.29528  10.31782  7.29528  -0.005072  0.001592  -0.005072
In  7.29528  7.29528  10.31782  -0.005072  -0.005072  0.001592
In  1.41759  10.19061  7.34387  -0.001989  -0.001451  0.002821
In  1.41759  7.34387  10.19061  -0.001989  0.002821  -0.001451
In  10.19061  1.41759  7.34387  -0.001451  -0.001989  0.002821
In  10.19061  7.34387  1.41759  -0.001451  0.002821  -0.001989
In  7.34387  1.41759  10.19061  0.002821  -0.001989  -0.001451
In  7.34387  10.19061  1.41759  0.002821  -0.001451  -0.001989
In  10.24547  10.24547  4.40174  0.000158  0.000158  0.003629
In  10.24547  4.40174  10.24547  0.000158  0.003629  0.000158
In  4.40174  10.24547  10.24547  0.003629  0.000158  0.000158
In  7.30972  7.30972  4.40791  0.001625  0.001625  -0.002624
In  7.30972  4.40791  7.30972  0.001625  -0.002624  0.001625
In  4.40791  7.30972  7.30972  -0.002624  0.001625  0.001625
In  1.45955  1.45955  10.29527  0.001532  0.001532  0.004012
In  1.45955  10.29527  1.45955  0.001532  0.004012  0.001532
In  10.29527  1.45955  1.45955  0.004012  0.001532  0.001532
In  1.48648  7.31735  4.36323  -0.000602  -0.001756  -0.005991
In  1.48648  4.36323  7.31735  -0.000602  -0.005991  -0.001756
In  7.31735  1.48648  4.36323  -0.001756  -0.000602  -0.005991
In  4.36323  1.48648  7.31735  -0.005991  -0.000602  -0.001756
In  7.31735  4.36323  1.48648  -0.001756  -0.005991  -0.000602
In  4.36323  7.31735  1.48648  -0.005991  -0.001756  -0.000602
In  10.2417  4.37284  4.37284  -0.003608  -9.6e-5  -9.6e-5
In  4.37284  10.2417  4.37284  -9.6e-5  -0.003608  -9.6e-5
In  4.37284  4.37284  10.2417  -9.6e-5  -9.6e-5  -0.003608
In  1.46894  1.46894  4.40608  -0.002979  -0.002979  0.011436
In  1.46894  4.40608  1.46894  -0.002979  0.011436  -0.002979
In  4.40608  1.46894  1.46894  0.011436  -0.002979  -0.002979
In  4.39389  4.39389  4.39389  0.002057  0.002057  0.002057
P  10.31157  10.31157  10.31157  -0.002295  -0.002295  -0.002295
P  11.6077  11.6077  8.97297  0.001469  0.001469  -0.002636
P  11.6077  8.97297  11.6077  0.001469  -0.002636  0.001469
P  8.97297  11.6077  11.6077  -0.002636  0.001469  0.001469
P  0.03118  8.76135  5.80048  0.003652  0.000803  0.004629
P  0.03118  5.80048  8.76135  0.003652  0.004629  0.000803
P  8.76135  0.03118  5.80048  0.000803  0.003652  0.004629
P  8.76135  5.80048  0.03118  0.000803  0.004629  0.003652
P  5.80048  0.03118  8.76135  0.004629  0.003652  0.000803
P  5.80048  8.76135  0.03118  0.004629  0.000803  0.003652
P  8.80273  5.84065  5.84065  0.002433  -0.004417  -0.004417
P  5.84065  8.80273  5.84065  -0.004417  0.002433  -0.004417
P  5.84065  5.84065  8.80273  -0.004417  -0.004417  0.002433
P  2.93876  8.78108  8.78108  5.1e-5  -0.001109  -0.001109
P  8.78108  2.93876  8.78108  -0.001109  5.1e-5  -0.001109
P  8.78108  8.78108  2.93876  -0.001109  -0.001109  5.1e-5
P  2.94913  0.00636  0.00636  -0.002914  0.00413  0.00413
P  0.00636  2.94913  0.00636  0.00413  -0.002914  0.00413
P  0.00636  0.00636  2.94913  0.00413  0.00413  -0.002914
P  2.89511  11.69773  5.8869  -0.001205  -0.002152  0.003301
P  11.69773  2.89511  5.8869  -0.002152  -0.001205  0.003301
P  2.89511  5.8869  11.69773  -0.001205  0.003301  -0.002152
P  11.69773  5.8869  2.89511  -0.002152  0.003301  -0.001205
P  5.8869  2.89511  11.69773  0.003301  -0.001205  -0.002152
P  5.8869  11.69773  2.89511  0.003301  -0.002152  -0.001205
P  2.92464  5.85004  5.85004  -0.001462  0.002049  0.002049
P  5.85004  2.92464  5.85004  0.002049  -0.001462  0.002049
P  5.85004  5.85004  2.92464  0.002049  0.002049  -0.001462
P  2.89644  2.89644  8.7958  -0.00042  -0.00042  -0.005264
P  2.89644  8.7958  2.89644  -0.00042  -0.005264  -0.00042
P  8.7958  2.89644  2.89644  -0.005264  -0.00042  -0.00042
P  2.9294  2.9294  2.9294  -0.000297  -0.000297  -0.000297
64
Lattice="11.70751661 0.0 0.0 0.0 11.70751661 0.0 0.0 0.0 11.70751661" Properties=species:S:1:pos:R:3:forces:R:3 energy=-306.96472868 stress="-8.08598 0.1802 0.1802 0.1802 -8.08598 0.1802 0.1802 0.1802 -8.08598" pbc="T T T"
In  8.8664  8.8664  8.8664  -0.003806  -0.003806  -0.003806
In  10.31699  7.29452  7.29452  0.002141  -0.001156  -0.001156
In  7.29452  10.31699  7.29452  -0.001156  0.002141  -0.001156
In  7.29452  7.29452  10.31699  -0.001156  -0.001156  0.002141
In  1.41739  10.19063  7.34479  -0.00047  -0.001545  0.001378
In  1.41739  7.34479  10.19063  -0.00047  0.001378  -0.001545
In  10.19063  1.41739  7.34479  -0.001545  -0.00047  0.001378
In  10.19063  7.34479  1.41739  -0.001545  0.001378  -0.00047
In  7.34479  1.41739  10.19063  0.001378  -0.00047  -0.001545
In  7.34479  10.19063  1.41739  0.001378  -0.001545  -0.00047
In  10.24554  10.24554  4.40251  0.002526  0.002526  0.001868
In  10.24554  4.40251  10.24554  0.002526  0.001868  0.002526
In  4.40251  10.24554  10.24554  0.001868  0.002526  0.002526
In  7.30989  7.30989  4.40777  -0.000974  -0.000974  -0.003861
In  7.30989  4.40777  7.30989  -0.000974  -0.003861  -0.000974
In  4.40777  7.30989  7.30989  -0.003861  -0.000974  -0.000974
In  1.45964  1.45964  10.29594  0.001635  0.001635  0.0005
In  1.45964  10.29594  1.45964  0.001635  0.0005  0.001635
In  10.29594  1.45964  1.45964  0.0005  0.001635  0.001635
In  1.48582  7.31743  4.36294  0.000626  -0.002123  0.000196
In  1.48582  4.36294  7.31743  0.000626  0.000196  -0.002123
In  7.31743  1.48582  4.36294  -0.002123  0.000626  0.000196
In  4.36294  1.48582  7.31743  0.000196  0.000626  -0.002123
In  7.31743  4.36294  1.48582  -0.002123  0.000196  0.000626
In  4.36294  7.31743  1.48582  0.000196  -0.002123  0.000626
In  10.2408  4.37238  4.37238  0.002516  -0.001717  -0.001717
In  4.37238  10.2408  4.37238  -0.001717  0.002516  -0.001717
In  4.37238  4.37238  10.2408  -0.001717  -0.001717  0.002516
In  1.46901  1.46901  4.40764  -0.000619  -0.000619  0.003512
In  1.46901  4.40764  1.46901  -0.000619  0.003512  -0.000619
In  4.40764  1.46901  1.46901  0.003512  -0.000619  -0.000619
In  4.39407  4.39407  4.39407  0.001495  0.001495  0.001495
P  10.31105  10.31105  10.31105  0.001725  0.001725  0.001725
P  11.60755  11.60755  8.97312  0.003034  0.003034  0.001212
P  11.60755  8.97312  11.60755  0.003034  0.001212  0.003034
P  8.97312  11.60755  11.60755  0.001212  0.003034  0.003034
P  0.03129  8.76139  5.80161  0.002764  -9.5e-5  -0.001861
P  0.03129  5.80161  8.76139  0.002764  -0.001861  -9.5e-5
P  8.76139  0.03129  5.80161  -9.5e-5  0.002764  -0.001861
P  8.76139  5.80161  0.03129  -9.5e-5  -0.001861  0.002764
P  5.80161  0.03129  8.76139  -0.001861  0.002764  -9.5e-5
P  5.80161  8.76139  0.03129  -0.001861  -9.5e-5  0.002764
P  8.80265  5.83997  5.83997  -0.001767  -0.001333  -0.001333
P  5.83997  8.80265  5.83997  -0.001333  -0.001767  -0.001333
P  5.83997  5.83997  8.80265  -0.001333  -0.001333  -0.001767
P  2.93915  8.78119  8.78119  0.000489  0.001538  0.001538
P  8.78119  2.93915  8.78119  0.001538  0.000489  0.001538
P  8.78119  8.78119  2.93915  0.001538  0.001538  0.000489
P  2.94935  0.00685  0.00685  0.002867  0.000747  0.000747
P  0.00685  2.94935  0.00685  0.000747  0.002867  0.000747
P  0.00685  0.00685  2.94935  0.000747  0.000747  0.002867
P  2.89509  11.69709  5.88741  -0.000532  -0.004221  0.000754
P  11.69709  2.89509  5.88741  -0.004221  -0.000532  0.000754
P  2.89509  5.88741  11.69709  -0.000532  0.000754  -0.004221
P  11.69709  5.88741  2.89509  -0.004221  0.000754  -0.000532
P  5.88741  2.89509  11.69709  0.000754  -0.000532  -0.004221
P  5.88741  11.69709  2.89509  0.000754  -0.004221  -0.000532
P  2.92428  5.85022  5.85022  -0.001848  0.000819  0.000819
P  5.85022  2.92428  5.85022  0.000819  -0.001848  0.000819
P  5.85022  5.85022  2.92428  0.000819  0.000819  -0.001848
P  2.89611  2.89611  8.79504  -0.002458  -0.002458  -0.000396
P  2.89611  8.79504  2.89611  -0.002458  -0.000396  -0.002458
P  8.79504  2.89611  2.89611  -0.000396  -0.002458  -0.002458
P  2.92943  2.92943  2.92943  -0.000476  -0.000476  -0.000476
64
Lattice="11.70751661 0.0 0.0 0.0 11.70751661 0.0 0.0 0.0 11.70751661" Properties=species:S:1:pos:R:3:forces:R:3 energy=-306.96472371 stress="-8.08674 0.18572 0.18572 0.18572 -8.08674 0.18572 0.18572 0.18572 -8.08674" pbc="T T T"
In  8.86643  8.86643  8.86643  -0.00537  -0.00537  -0.00537
In  10.31676  7.29432  7.29432  0.001883  -0.000407  -0.000407
In  7.29432  10.31676  7.29432  -0.000407  0.001883  -0.000407
In  7.29432  7.29432  10.31676  -0.000407  -0.000407  0.001883
In  1.41733  10.19063  7.34504  -0.000154  -0.001535  0.001441
In  1.41733  7.34504  10.19063  -0.000154  0.001441  -0.001535
In  10.19063  1.41733  7.34504  -0.001535  -0.000154  0.001441
In  10.19063  7.34504  1.41733  -0.001535  0.001441  -0.000154
In  7.34504  1.41733  10.19063  0.001441  -0.000154  -0.001535
In  7.34504  10.19063  1.41733  0.001441  -0.001535  -0.000154
In  10.24556  10.24556  4.40272  0.003209  0.003209  0.001909
In  10.24556  4.40272  10.24556  0.003209  0.001909  0.003209
In  4.40272  10.24556  10.24556  0.001909  0.003209  0.003209