64
Lattice="11.70751661 0.0 0.0 0.0 11.70751661 0.0 0.0 0.0 11.70751661" Properties=species:S:1:pos:R:3:forces:R:3 energy=-309.56456149 stress="-14.31242 -2.45537 -2.45537 -2.45537 -14.31242 -2.45537 -2.45537 -2.45537 -14.31242" pbc="T T T"
In  11.58307  11.58307  8.78506  -0.031606  -0.031606  0.022197
In  11.58307  8.78506  11.58307  -0.031606  0.022197  -0.031606
In  8.78506  11.58307  11.58307  0.022197  -0.031606  -0.031606
In  0.03799  8.81161  5.86818  -0.022552  0.029325  -0.018102
In  0.03799  5.86818  8.81161  -0.022552  -0.018102  0.029325
In  8.81161  0.03799  5.86818  0.029325  -0.022552  -0.018102
In  8.81161  5.86818  0.03799  0.029325  -0.018102  -0.022552
In  5.86818  0.03799  8.81161  -0.018102  -0.022552  0.029325
In  5.86818  8.81161  0.03799  -0.018102  0.029325  -0.022552
In  8.81031  5.90119  5.90119  -0.011801  -0.021572  -0.021572
In  5.90119  8.81031  5.90119  -0.021572  -0.011801  -0.021572
In  5.90119  5.90119  8.81031  -0.021572  -0.021572  -0.011801
In  2.93546  8.78041  8.78041  0.03763  0.048468  0.048468
In  8.78041  2.93546  8.78041  0.048468  0.03763  0.048468
In  8.78041  8.78041  2.93546  0.048468  0.048468  0.03763
In  2.89511  11.69631  11.69631  0.119972  0.064869  0.064869
In  11.69631  2.89511  11.69631  0.064869  0.119972  0.064869
In  11.69631  11.69631  2.89511  0.064869  0.064869  0.119972
In  2.93585  0.01381  5.85551  -0.022803  -0.078865  -0.084912
In  0.01381  2.93585  5.85551  -0.078865  -0.022803  -0.084912
In  2.93585  5.85551  0.01381  -0.022803  -0.084912  -0.078865
In  0.01381  5.85551  2.93585  -0.078865  -0.084912  -0.022803
In  5.85551  2.93585  0.01381  -0.084912  -0.022803  -0.078865
In  5.85551  0.01381  2.93585  -0.084912  -0.078865  -0.022803
In  2.92808  5.85588  5.85588  0.147016  0.118404  0.118404
In  5.85588  2.92808  5.85588  0.118404  0.147016  0.118404
In  5.85588  5.85588  2.92808  0.118404  0.118404  0.147016
In  2.88392  2.88392  8.78428  0.175167  0.175167  0.139097
In  2.88392  8.78428  2.88392  0.175167  0.139097  0.175167
In  8.78428  2.88392  2.88392  0.139097  0.175167  0.175167
In  2.92218  2.92218  2.92218  0.107921  0.107921  0.107921
P  8.36413  8.36413  8.36413  0.064705  0.064705  0.064705
P  9.94735  9.94735  9.94735  0.070555  0.070555  0.070555
P  10.25963  7.39997  7.39997  -0.123737  -0.011307  -0.011307
P  7.39997  10.25963  7.39997  -0.011307  -0.123737  -0.011307
P  7.39997  7.39997  10.25963  -0.011307  -0.011307  -0.123737
P  1.48277  10.26399  7.32967  0.011677  0.000248  0.014284
P  1.48277  7.32967  10.26399  0.011677  0.014284  0.000248
P  10.26399  1.48277  7.32967  0.000248  0.011677  0.014284
P  10.26399  7.32967  1.48277  0.000248  0.014284  0.011677
P  7.32967  1.48277  10.26399  0.014284  0.011677  0.000248
P  7.32967  10.26399  1.48277  0.014284  0.000248  0.011677
P  10.25097  10.25097  4.40496  -0.00862  -0.00862  -0.043532
P  10.25097  4.40496  10.25097  -0.00862  -0.043532  -0.00862
P  4.40496  10.25097  10.25097  -0.043532  -0.00862  -0.00862
P  7.33602  7.33602  4.41856  -0.110071  -0.110071  -0.071495
P  7.33602  4.41856  7.33602  -0.110071  -0.071495  -0.110071
P  4.41856  7.33602  7.33602  -0.071495  -0.110071  -0.110071
P  1.38933  1.38933  10.21477  0.034011  0.034011  0.009377
P  1.38933  10.21477  1.38933  0.034011  0.009377  0.034011
P  10.21477  1.38933  1.38933  0.009377  0.034011  0.034011
P  1.45902  7.31561  4.39303  0.067028  0.063827  0.067782
P  1.45902  4.39303  7.31561  0.067028  0.067782  0.063827
P  7.31561  1.45902  4.39303  0.063827  0.067028  0.067782
P  4.39303  1.45902  7.31561  0.067782  0.067028  0.063827
P  7.31561  4.39303  1.45902  0.063827  0.067782  0.067028
P  4.39303  7.31561  1.45902  0.067782  0.063827  0.067028
P  10.24552  4.41107  4.41107  -0.112247  -0.219238  -0.219238
P  4.41107  10.24552  4.41107  -0.219238  -0.112247  -0.219238
P  4.41107  4.41107  10.24552  -0.219238  -0.219238  -0.112247
P  1.46794  1.46794  4.38957  -0.128996  -0.128996  -0.116801
P  1.46794  4.38957  1.46794  -0.128996  -0.116801  -0.128996
P  4.38957  1.46794  1.46794  -0.116801  -0.128996  -0.128996
P  4.40187  4.40187  4.40187  -0.111746  -0.111746  -0.111746
64
Lattice="11.70751661 0.0 0.0 0.0 11.70751661 0.0 0.0 0.0 11.70751661" Properties=species:S:1:pos:R:3:forces:R:3 energy=-309.61928767 stress="-13.89985 -0.93829 -0.93829 -0.93829 -13.89985 -0.93829 -0.93829 -0.93829 -13.89985" pbc="T T T"
In  11.6017  11.6017  8.80227  -0.000575  -0.000575  -0.002217
In  11.6017  8.80227  11.6017  -0.000575  -0.002217  -0.000575
In  8.80227  11.6017  11.6017  -0.002217  -0.000575  -0.000575
In  0.025  8.81116  5.8761  -0.009454  -0.011854  -0.004886
In  0.025  5.8761  8.81116  -0.009454  -0.004886  -0.011854
In  8.81116  0.025  5.8761  -0.011854  -0.009454  -0.004886
In  8.81116  5.8761  0.025  -0.011854  -0.004886  -0.009454
In  5.8761  0.025  8.81116  -0.004886  -0.009454  -0.011854
In  5.8761  8.81116  0.025  -0.004886  -0.011854  -0.009454
In  8.80044  5.87303  5.87303  -0.004619  -0.006411  -0.006411
In  5.87303  8.80044  5.87303  -0.006411  -0.004619  -0.006411
In  5.87303  5.87303  8.80044  -0.006411  -0.006411  -0.004619
In  2.93772  8.78769  8.78769  0.007678  -0.007209  -0.007209
In  8.78769  2.93772  8.78769  -0.007209  0.007678  -0.007209
In  8.78769  8.78769  2.93772  -0.007209  -0.007209  0.007678
In  2.89828  11.70118  11.70118  0.016074  -0.008067  -0.008067
In  11.70118  2.89828  11.70118  -0.008067  0.016074  -0.008067
In  11.70118  11.70118  2.89828  -0.008067  -0.008067  0.016074
In  2.92914  0.01283  5.84598  0.003363  -0.022398  0.008338
In  0.01283  2.92914  5.84598  -0.022398  0.003363  0.008338
In  2.92914  5.84598  0.01283  0.003363  0.008338  -0.022398
In  0.01283  5.84598  2.92914  -0.022398  0.008338  0.003363
In  5.84598  2.92914  0.01283  0.008338  0.003363  -0.022398
In  5.84598  0.01283  2.92914  0.008338  -0.022398  0.003363
In  2.94755  5.86796  5.86796  -0.007529  -0.011846  -0.011846
In  5.86796  2.94755  5.86796  -0.011846  -0.007529  -0.011846
In  5.86796  5.86796  2.94755  -0.011846  -0.011846  -0.007529
In  2.90117  2.90117  8.77966  -0.003527  -0.003527  0.007618
In  2.90117  8.77966  2.90117  -0.003527  0.007618  -0.003527
In  8.77966  2.90117  2.90117  0.007618  -0.003527  -0.003527
In  2.92858  2.92858  2.92858  -0.003626  -0.003626  -0.003626
P  8.40181  8.40181  8.40181  0.088259  0.088259  0.088259
P  9.98633  9.98633  9.98633  -0.021417  -0.021417  -0.021417
P  10.21107  7.38571  7.38571  0.011007  -0.000976  -0.000976
P  7.38571  10.21107  7.38571  -0.000976  0.011007  -0.000976
P  7.38571  7.38571  10.21107  -0.000976  -0.000976  0.011007
P  1.47924  10.26437  7.33403  0.010376  0.003875  8.0e-6
P  1.47924  7.33403  10.26437  0.010376  8.0e-6  0.003875
P  10.26437  1.47924  7.33403  0.003875  0.010376  8.0e-6
P  10.26437  7.33403  1.47924  0.003875  8.0e-6  0.010376
P  7.33403  1.47924  10.26437  8.0e-6  0.010376  0.003875
P  7.33403  10.26437  1.47924  8.0e-6  0.003875  0.010376
P  10.2529  10.2529  4.40269  -0.000961  -0.000961  -0.009309
P  10.2529  4.40269  10.2529  -0.000961  -0.009309  -0.000961
P  4.40269  10.2529  10.2529  -0.009309  -0.000961  -0.000961
P  7.33029  7.33029  4.41267  0.007393  0.007393  -0.022052
P  7.33029  4.41267  7.33029  0.007393  -0.022052  0.007393
P  4.41267  7.33029  7.33029  -0.022052  0.007393  0.007393
P  1.40818  1.40818  10.2181  0.017374  0.017374  -0.004744
P  1.40818  10.2181  1.40818  0.017374  -0.004744  0.017374
P  10.2181  1.40818  1.40818  -0.004744  0.017374  0.017374
P  1.46171  7.31289  4.40625  -0.010086  0.019964  -0.014342
P  1.46171  4.40625  7.31289  -0.010086  -0.014342  0.019964
P  7.31289  1.46171  4.40625  0.019964  -0.010086  -0.014342
P  4.40625  1.46171  7.31289  -0.014342  -0.010086  0.019964
P  7.31289  4.40625  1.46171  0.019964  -0.014342  -0.010086
P  4.40625  7.31289  1.46171  -0.014342  0.019964  -0.010086
P  10.24159  4.38305  4.38305  -0.014504  0.003736  0.003736
P  4.38305  10.24159  4.38305  0.003736  -0.014504  0.003736
P  4.38305  4.38305  10.24159  0.003736  0.003736  -0.014504
P  1.45629  1.45629  4.37459  0.013728  0.013728  -0.00093
P  1.45629  4.37459  1.45629  0.013728  -0.00093  0.013728
P  4.37459  1.45629  1.45629  -0.00093  0.013728  0.013728
P  4.39402  4.39402  4.39402  0.009183  0.009183  0.009183
64
Lattice="11.70751661 0.0 0.0 0.0 11.70751661 0.0 0.0 0.0 11.70751661" Properties=species:S:1:pos:R:3:forces:R:3 energy=-309.61788836 stress="-13.67758 -1.07766 -1.07766 -1.07766 -13.67758 -1.07766 -1.07766 -1.07766 -13.67758" pbc="T T T"
In  11.60689  11.60689  8.80417  0.011221  0.011221  0.00034
In  11.60689  8.80417  11.60689  0.011221  0.00034  0.011221
In  8.80417  11.60689  11.60689  0.00034  0.011221  0.011221
In  0.01981  8.80908  5.87977  0.001979  -0.007983  -0.008523
In  0.01981  5.87977  8.80908  0.001979  -0.008523  -0.007983
In  8.80908  0.01981  5.87977  -0.007983  0.001979  -0.008523
In  8.80908  5.87977  0.01981  -0.007983  -0.008523  0.001979
In  5.87977  0.01981  8.80908  -0.008523  0.001979  -0.007983
In  5.87977  8.80908  0.01981  -0.008523  -0.007983  0.001979
In  8.79823  5.86589  5.86589  -0.011499  0.005341  0.005341
In  5.86589  8.79823  5.86589  0.005341  -0.011499  0.005341
In  5.86589  5.86589  8.79823  0.005341  0.005341  -0.011499
In  2.93566  8.78923  8.78923  0.00497  -0.000941  -0.000941
In  8.78923  2.93566  8.78923  -0.000941  0.00497  -0.000941
In  8.78923  8.78923  2.93566  -0.000941  -0.000941  0.00497
In  2.90241  11.70047  11.70047  -0.002663  0.002416  0.002416
In  11.70047  2.90241  11.70047  0.002416  -0.002663  0.002416
In  11.70047  11.70047  2.90241  0.002416  0.002416  -0.002663
In  2.92699  0.01174  5.84769  0.013891  -0.017582  -0.003348
In  0.01174  2.92699  5.84769  -0.017582  0.013891  -0.003348
In  2.92699  5.84769  0.01174  0.013891  -0.003348  -0.017582
In  0.01174  5.84769  2.92699  -0.017582  -0.003348  0.013891
In  5.84769  2.92699  0.01174  -0.003348  0.013891  -0.017582
In  5.84769  0.01174  2.92699  -0.003348  -0.017582  0.013891
In  2.94534  5.86592  5.86592  -0.020161  0.001386  0.001386
In  5.86592  2.94534  5.86592  0.001386  -0.020161  0.001386
In  5.86592  5.86592  2.94534  0.001386  0.001386  -0.020161
In  2.90334  2.90334  8.77374  -0.008271  -0.008271  -0.000283
In  2.90334  8.77374  2.90334  -0.008271  -0.000283  -0.008271
In  8.77374  2.90334  2.90334  -0.000283  -0.008271  -0.008271
In  2.92839  2.92839  2.92839  0.011765  0.011765  0.011765
P  8.42078  8.42078  8.42078  0.172873  0.172873  0.172873
P  9.99657  9.99657  9.99657  -0.054405  -0.054405  -0.054405
P  10.20507  7.38222  7.38222  0.00205  -0.023252  -0.023252
P  7.38222  10.20507  7.38222  -0.023252  0.00205  -0.023252
P  7.38222  7.38222  10.20507  -0.023252  -0.023252  0.00205
P  1.47684  10.26492  7.33462  0.008174  -0.013988  0.001611
P  1.47684  7.33462  10.26492  0.008174  0.001611  -0.013988
P  10.26492  1.47684  7.33462  -0.013988  0.008174  0.001611
P  10.26492  7.33462  1.47684  -0.013988  0.001611  0.008174
P  7.33462  1.47684  10.26492  0.001611  0.008174  -0.013988
P  7.33462  10.26492  1.47684  0.001611  -0.013988  0.008174
P  10.25242  10.25242  4.4058  -0.005678  -0.005678  -0.023631
P  10.25242  4.4058  10.25242  -0.005678  -0.023631  -0.005678
P  4.4058  10.25242  10.25242  -0.023631  -0.005678  -0.005678
P  7.33108  7.33108  4.40612  -0.009217  -0.009217  0.010106
P  7.33108  4.40612  7.33108  -0.009217  0.010106  -0.009217
P  4.40612  7.33108  7.33108  0.010106  -0.009217  -0.009217
P  1.41444  1.41444  10.2175  -0.005424  -0.005424  0.018353
P  1.41444  10.2175  1.41444  -0.005424  0.018353  -0.005424
P  10.2175  1.41444  1.41444  0.018353  -0.005424  -0.005424
P  1.45711  7.31291  4.40902  0.006517  0.01859  -0.030307
P  1.45711  4.40902  7.31291  0.006517  -0.030307  0.01859
P  7.31291  1.45711  4.40902  0.01859  0.006517  -0.030307
P  4.40902  1.45711  7.31291  -0.030307  0.006517  0.01859
P  7.31291  4.40902  1.45711  0.01859  -0.030307  0.006517
P  4.40902  7.31291  1.45711  -0.030307  0.01859  0.006517
P  10.24267  4.37946  4.37946  -0.011897  0.014274  0.014274
P  4.37946  10.24267  4.37946  0.014274  -0.011897  0.014274
P  4.37946  4.37946  10.24267  0.014274  0.014274  -0.011897
P  1.45812  1.45812  4.375  0.000712  0.000712  0.011309
P  1.45812  4.375  1.45812  0.000712  0.011309  0.000712
P  4.375  1.45812  1.45812  0.011309  0.000712  0.000712
P  4.39565  4.39565  4.39565  -0.010419  -0.010419  -0.010419
64
Lattice="11.70751661 0.0 0.0 0.0 11.70751661 0.0 0.0 0.0 11.70751661" Properties=species:S:1:pos:R:3:forces:R:3 energy=-309.62088727 stress="-13.18391 -1.27193 -1.27193 -1.27193 -13.18391 -1.27193 -1.27193 -1.27193 -13.18391" pbc="T T T"
In  11.61725  11.61725  8.80797  0.030216  0.030216  0.014005
In  11.61725  8.80797  11.61725  0.030216  0.014005  0.030216
In  8.80797  11.61725  11.61725  0.014005  0.030216  0.030216
In  0.00943  8.80492  5.88712  0.018568  0.00421  -0.019586
In  0.00943  5.88712  8.80492  0.018568  -0.019586  0.00421
In  8.80492  0.00943  5.88712  0.00421  0.018568  -0.019586
In  8.80492  5.88712  0.00943  0.00421  -0.019586  0.018568
In  5.88712  0.00943  8.80492  -0.019586  0.018568  0.00421
In  5.88712  8.80492  0.00943  -0.019586  0.00421  0.018568
In  8.79382  5.8516  5.8516  -0.016585  0.025781  0.025781
In  5.8516  8.79382  5.8516  0.025781  -0.016585  0.025781
In  5.8516  5.8516  8.79382  0.025781  0.025781  -0.016585
In  2.93152  8.79231  8.79231  0.000227  0.011906  0.011906
In  8.79231  2.93152  8.79231  0.011906  0.000227  0.011906
In  8.79231  8.79231  2.93152  0.011906  0.011906  0.000227
In  2.91066  11.69905  11.69905  -0.040842  0.023663  0.023663
In  11.69905  2.91066  11.69905  0.023663  -0.040842  0.023663
In  11.69905  11.69905  2.91066  0.023663  0.023663  -0.040842
In  2.92269  0.00955  5.85109  0.036647  -0.009494  -0.028373
In  0.00955  2.92269  5.85109  -0.009494  0.036647  -0.028373
In  2.92269  5.85109  0.00955  0.036647  -0.028373  -0.009494
In  0.00955  5.85109  2.92269  -0.009494  -0.028373  0.036647
In  5.85109  2.92269  0.00955  -0.028373  0.036647  -0.009494
In  5.85109  0.00955  2.92269  -0.028373  -0.009494  0.036647
In  2.94091  5.86184  5.86184  -0.045055  0.02792  0.02792
In  5.86184  2.94091  5.86184  0.02792  -0.045055  0.02792
In  5.86184  5.86184  2.94091  0.02792  0.02792  -0.045055
In  2.90767  2.90767  8.76191  -0.01819  -0.01819  -0.01058
In  2.90767  8.76191  2.90767  -0.01819  -0.01058  -0.01819
In  8.76191  2.90767  2.90767  -0.01058  -0.01819  -0.01819
In  2.92799  2.92799  2.92799  0.042  0.042  0.042
P  8.45873  8.45873  8.45873  0.388099  0.388099  0.388099
P  10.01707  10.01707  10.01707  -0.096739  -0.096739  -0.096739
P  10.19306  7.37525  7.37525  -0.029084  -0.089971  -0.089971
P  7.37525  10.19306  7.37525  -0.089971  -0.029084  -0.089971
P  7.37525  7.37525  10.19306  -0.089971  -0.089971  -0.029084
P  1.47205  10.26602  7.33582  0.003192  -0.051502  0.005593
P  1.47205  7.33582  10.26602  0.003192  0.005593  -0.051502
P  10.26602  1.47205  7.33582  -0.051502  0.003192  0.005593
P  10.26602  7.33582  1.47205  -0.051502  0.005593  0.003192
P  7.33582  1.47205  10.26602  0.005593  0.003192  -0.051502
P  7.33582  10.26602  1.47205  0.005593  -0.051502  0.003192
P  10.25147  10.25147  4.412  -0.015031  -0.015031  -0.052346
P  10.25147  4.412  10.25147  -0.015031  -0.052346  -0.015031
P  4.412  10.25147  10.25147  -0.052346  -0.015031  -0.015031
P  7.33266  7.33266  4.39302  -0.043167  -0.043167  0.072359
P  7.33266  4.39302  7.33266  -0.043167  0.072359  -0.043167
P  4.39302  7.33266  7.33266  0.072359  -0.043167  -0.043167
P  1.42697  1.42697  10.21631  -0.049184  -0.049184  0.062031
P  1.42697  10.21631  1.42697  -0.049184  0.062031  -0.049184
P  10.21631  1.42697  1.42697  0.062031  -0.049184  -0.049184
P  1.44789  7.31295  4.41456  0.038804  0.015503  -0.060289
P  1.44789  4.41456  7.31295  0.038804  -0.060289  0.015503
P  7.31295  1.44789  4.41456  0.015503  0.038804  -0.060289
P  4.41456  1.44789  7.31295  -0.060289  0.038804  0.015503
P  7.31295  4.41456  1.44789  0.015503  -0.060289  0.038804
P  4.41456  7.31295  1.44789  -0.060289  0.015503  0.038804
P  10.24481  4.37229  4.37229  -0.008403  0.034406  0.034406
P  4.37229  10.24481  4.37229  0.034406  -0.008403  0.034406
P  4.37229  4.37229  10.24481  0.034406  0.034406  -0.008403
P  1.46178  1.46178  4.37583  -0.025346  -0.025346  0.037241
P  1.46178  4.37583  1.46178  -0.025346  0.037241  -0.025346
P  4.37583  1.46178  1.46178  0.037241  -0.025346  -0.025346
P  4.39892  4.39892  4.39892  -0.04888  -0.04888  -0.04888
64
Lattice="11.70751661 0.0 0.0 0.0 11.70751661 0.0 0.0 0.0 11.70751661" Properties=species:S:1:pos:R:3:forces:R:3 energy=-309.71238791 stress="-12.16673 -1.30001 -1.30001 -1.30001 -12.16673 -1.30001 -1.30001 -1.30001 -12.16673" pbc="T T T"
In  11.63798  11.63798  8.81557  0.056683  0.056683  0.065162
In  11.63798  8.81557  11.63798  0.056683  0.065162  0.056683
In  8.81557  11.63798  11.63798  0.065162  0.056683  0.056683
In  -0.01132  8.79662  5.90182  0.037928  0.038274  -0.039741
In  -0.01132  5.90182  8.79662  0.037928  -0.039741  0.038274
In  8.79662  -0.01132  5.90182  0.038274  0.037928  -0.039741
In  8.79662  5.90182  -0.01132  0.038274  -0.039741  0.037928
In  5.90182  -0.01132  8.79662  -0.039741  0.037928  0.038274
In  5.90182  8.79662  -0.01132  -0.039741  0.038274  0.037928
In  8.78499  5.82303  5.82303  -0.020323  0.073653  0.073653
In  5.82303  8.78499  5.82303  0.073653  -0.020323  0.073653
In  5.82303  5.82303  8.78499  0.073653  0.073653  -0.020323
In  2.92325  8.79848  8.79848  -0.007419  0.036968  0.036968
In  8.79848  2.92325  8.79848  0.036968  -0.007419  0.036968
In  8.79848  8.79848  2.92325  0.036968  0.036968  -0.007419
In  2.92717  11.69621  11.69621  -0.114769  0.065337  0.065337
In  11.69621  2.92717  11.69621  0.065337  -0.114769  0.065337
In  11.69621  11.69621  2.92717  0.065337  0.065337  -0.114769
In  2.91408  0.00519  5.8579  0.085252  0.002252  -0.081642
In  0.00519  2.91408  5.8579  0.002252  0.085252  -0.081642
In  2.91408  5.8579  0.00519  0.085252  -0.081642  0.002252
In  0.00519  5.8579  2.91408  0.002252  -0.081642  0.085252
In  5.8579  2.91408  0.00519  -0.081642  0.085252  0.002252
In  5.8579  0.00519  2.91408  -0.081642  0.002252  0.085252
In  2.93206  5.8537  5.8537  -0.092296  0.082803  0.082803
In  5.8537  2.93206  5.8537  0.082803  -0.092296  0.082803
In  5.8537  5.8537  2.93206  0.082803  0.082803  -0.092296
In  2.91633  2.91633  8.73826  -0.037745  -0.037745  -0.015809
In  2.91633  8.73826  2.91633  -0.037745  -0.015809  -0.037745
In  8.73826  2.91633  2.91633  -0.015809  -0.037745  -0.037745
In  2.92721  2.92721  2.92721  0.100338  0.100338  0.100338
P  8.53464  8.53464  8.53464  0.784875  0.784875  0.784875
P  10.05805  10.05805  10.05805  -0.094751  -0.094751  -0.094751
P  10.16905  7.36131  7.36131  -0.109723  -0.244051  -0.244051
P  7.36131  10.16905  7.36131  -0.244051  -0.109723  -0.244051
P  7.36131  7.36131  10.16905  -0.244051  -0.244051  -0.109723
P  1.46248  10.26822  7.3382  -0.00659  -0.127814  0.013972
P  1.46248  7.3382  10.26822  -0.00659  0.013972  -0.127814
P  10.26822  1.46248  7.3382  -0.127814  -0.00659  0.013972
P  10.26822  7.3382  1.46248  -0.127814  0.013972  -0.00659
P  7.3382  1.46248  10.26822  0.013972  -0.00659  -0.127814
P  7.3382  10.26822  1.46248  0.013972  -0.127814  -0.00659
P  10.24957  10.24957  4.42441  -0.032823  -0.032823  -0.111918
P  10.24957  4.42441  10.24957  -0.032823  -0.111918  -0.032823
P  4.42441  10.24957  10.24957  -0.111918  -0.032823  -0.032823
P  7.33582  7.33582  4.36681  -0.113322  -0.113322  0.189136
P  7.33582  4.36681  7.33582  -0.113322  0.189136  -0.113322
P  4.36681  7.33582  7.33582  0.189136  -0.113322  -0.113322
P  1.45202  1.45202  10.21392  -0.132054  -0.132054  0.141476
P  1.45202  10.21392  1.45202  -0.132054  0.141476  -0.132054
P  10.21392  1.45202  1.45202  0.141476  -0.132054  -0.132054
P  1.42947  7.31303  4.42565  0.100928  0.00496  -0.116706
P  1.42947  4.42565  7.31303  0.100928  -0.116706  0.00496
P  7.31303  1.42947  4.42565  0.00496  0.100928  -0.116706
P  4.42565  1.42947  7.31303  -0.116706  0.100928  0.00496
P  7.31303  4.42565  1.42947  0.00496  -0.116706  0.100928
P  4.42565  7.31303  1.42947  -0.116706  0.00496  0.100928
P  10.2491  4.35793  4.35793  -0.002585  0.070238  0.070238
P  4.35793  10.2491  4.35793  0.070238  -0.002585  0.070238
P  4.35793  4.35793  10.2491  0.070238  0.070238  -0.002585
P  1.46911  1.46911  4.37748  -0.076851  -0.076851  0.092879
P  1.46911  4.37748  1.46911  -0.076851  0.092879  -0.076851
P  4.37748  1.46911  1.46911  0.092879  -0.076851  -0.076851
P  4.40545  4.40545  4.40545  -0.124096  -0.124096  -0.124096
64
Lattice="11.70751661 0.0 0.0 0.0 11.70751661 0.0 0.0 0.0 11.70751661" Properties=species:S:1:pos:R:3:forces:R:3 energy=-309.76894984 stress="-11.53382 -0.59446 -0.59446 -0.59446 -11.53382 -0.59446 -0.59446 -0.59446 -11.53382" pbc="T T T"
In  11.67945  11.67945  8.83076  0.121183  0.121183  0.167191
In  11.67945  8.83076  11.67945  0.121183  0.167191  0.121183
In  8.83076  11.67945  11.67945  0.167191  0.121183  0.121183
In  -0.05284  8.78  5.93122  0.133903  0.093081  -0.017057
In  -0.05284  5.93122  8.78  0.133903  -0.017057  0.093081
In  8.78  -0.05284  5.93122  0.093081  0.133903  -0.017057
In  8.78  5.93122  -0.05284  0.093081  -0.017057  0.133903
In  5.93122  -0.05284  8.78  -0.017057  0.133903  0.093081
In  5.93122  8.78  -0.05284  -0.017057  0.093081  0.133903
In  8.76733  5.76588  5.76588  -0.145502  0.232587  0.232587
In  5.76588  8.76733  5.76588  0.232587  -0.145502  0.232587
In  5.76588  5.76588  8.76733  0.232587  0.232587  -0.145502
In  2.90672  8.81081  8.81081  -0.029204  0.081043  0.081043
In  8.81081  2.90672  8.81081  0.081043  -0.029204  0.081043
In  8.81081  8.81081  2.90672  0.081043  0.081043  -0.029204
In  2.96018  11.69054  11.69054  -0.244866  0.140155  0.140155
In  11.69054  2.96018  11.69054  0.140155  -0.244866  0.140155
In  11.69054  11.69054  2.96018  0.140155  0.140155  -0.244866
In  2.89687  -0.00355  5.87152  0.162033  0.02734  -0.17103
In  -0.00355  2.89687  5.87152  0.02734  0.162033  -0.17103
In  2.89687  5.87152  -0.00355  0.162033  -0.17103  0.02734
In  -0.00355  5.87152  2.89687  0.02734  -0.17103  0.162033
In  5.87152  2.89687  -0.00355  -0.17103  0.162033  0.02734
In  5.87152  -0.00355  2.89687  -0.17103  0.02734  0.162033
In  2.91436  5.8374  5.8374  -0.183034  0.208737  0.208737
In  5.8374  2.91436  5.8374  0.208737  -0.183034  0.208737
In  5.8374  5.8374  2.91436  0.208737  0.208737  -0.183034
In  2.93366  2.93366  8.69094  -0.082223  -0.082223  -0.036333
In  2.93366  8.69094  2.93366  -0.082223  -0.036333  -0.082223
In  8.69094  2.93366  2.93366  -0.036333  -0.082223  -0.082223
In  2.92564  2.92564  2.92564  0.210773  0.210773  0.210773
P  8.68644  8.68644  8.68644  0.240713  0.240713  0.240713
P  10.14003  10.14003  10.14003  0.064954  0.064954  0.064954
P  10.12102  7.33342  7.33342  -0.268255  -0.100041  -0.100041
P  7.33342  10.12102  7.33342  -0.100041  -0.268255  -0.100041
P  7.33342  7.33342  10.12102  -0.100041  -0.100041  -0.268255
P  1.44332  10.27262  7.34298  -0.017512  -0.246462  0.019175
P  1.44332  7.34298  10.27262  -0.017512  0.019175  -0.246462
P  10.27262  1.44332  7.34298  -0.246462  -0.017512  0.019175
P  10.27262  7.34298  1.44332  -0.246462  0.019175  -0.017512
P  7.34298  1.44332  10.27262  0.019175  -0.017512  -0.246462
P  7.34298  10.27262  1.44332  0.019175  -0.246462  -0.017512
P  10.24577  10.24577  4.44923  -0.061589  -0.061589  -0.246236
P  10.24577  4.44923  10.24577  -0.061589  -0.246236  -0.061589
P  4.44923  10.24577  10.24577  -0.246236  -0.061589  -0.061589
P  7.34214  7.34214  4.3144  -0.261622  -0.261622  0.411001
P  7.34214  4.3144  7.34214  -0.261622  0.411001  -0.261622
P  4.3144  7.34214  7.34214  0.411001  -0.261622  -0.261622
P  1.50212  1.50212  10.20914  -0.293988  -0.293988  0.280152
P  1.50212  10.20914  1.50212  -0.293988  0.280152  -0.293988
P  10.20914  1.50212  1.50212  0.280152  -0.293988  -0.293988
P  1.39263  7.31319  4.44782  0.224682  -0.02734  -0.238024
P  1.39263  4.44782  7.31319  0.224682  -0.238024  -0.02734
P  7.31319  1.39263  4.44782  -0.02734  0.224682  -0.238024
P  4.44782  1.39263  7.31319  -0.238024  0.224682  -0.02734
P  7.31319  4.44782  1.39263  -0.02734  -0.238024  0.224682
P  4.44782  7.31319  1.39263  -0.238024  -0.02734  0.224682
P  10.25769  4.32922  4.32922  0.046837  0.149566  0.149566
P  4.32922  10.25769  4.32922  0.149566  0.046837  0.149566
P  4.32922  4.32922  10.25769  0.149566  0.149566  0.046837
P  1.48375  1.48375  4.38078  -0.177633  -0.177633  0.203071
P  1.48375  4.38078  1.48375  -0.177633  0.203071  -0.177633
P  4.38078  1.48375  1.48375  0.203071  -0.177633  -0.177633
P  4.4185  4.4185  4.4185  -0.269191  -0.269191  -0.269191
64
Lattice="11.70751661 0.0 0.0 0.0 11.70751661 0.0 0.0 0.0 11.70751661" Properties=species:S:1:pos:R:3:forces:R:3 energy=-309.80721727 stress="-11.69981 -1.00518 -1.00518 -1.00518 -11.69981 -1.00518 -1.00518 -1.00518 -11.69981" pbc="T T T"
In  11.65432  11.65432  8.82155  0.075031  0.075031  0.115212
In  11.65432  8.82155  11.65432  0.075031  0.115212  0.075031
In  8.82155  11.65432  11.65432  0.115212  0.075031  0.075031
In  -0.02768  8.79007  5.9134  0.065174  0.065277  -0.039061
In  -0.02768  5.9134  8.79007  0.065174  -0.039061  0.065277
In  8.79007  -0.02768  5.9134  0.065277  0.065174  -0.039061
In  8.79007  5.9134  -0.02768  0.065277  -0.039061  0.065174
In  5.9134  -0.02768  8.79007  -0.039061  0.065174  0.065277
In  5.9134  8.79007  -0.02768  -0.039061  0.065277  0.065174
In  8.77803  5.80051  5.80051  -0.051131  0.132351  0.132351
In  5.80051  8.77803  5.80051  0.132351  -0.051131  0.132351
In  5.80051  5.80051  8.77803  0.132351  0.132351  -0.051131
In  2.91674  8.80334  8.80334  -0.015073  0.054843  0.054843
In  8.80334  2.91674  8.80334  0.054843  -0.015073  0.054843
In  8.80334  8.80334  2.91674  0.054843  0.054843  -0.015073
In  2.94017  11.69398  11.69398  -0.169427  0.095843  0.095843
In  11.69398  2.94017  11.69398  0.095843  -0.169427  0.095843
In  11.69398  11.69398  2.94017  0.095843  0.095843  -0.169427
In  2.9073  0.00174  5.86327  0.119555  0.009813  -0.120721
In  0.00174  2.9073  5.86327  0.009813  0.119555  -0.120721
In  2.9073  5.86327  0.00174  0.119555  -0.120721  0.009813
In  0.00174  5.86327  2.9073  0.009813  -0.120721  0.119555
In  5.86327  2.9073  0.00174  -0.120721  0.119555  0.009813
In  5.86327  0.00174  2.9073  -0.120721  0.009813  0.119555
In  2.92509  5.84728  5.84728  -0.127104  0.130543  0.130543
In  5.84728  2.92509  5.84728  0.130543  -0.127104  0.130543
In  5.84728  5.84728  2.92509  0.130543  0.130543  -0.127104
In  2.92316  2.92316  8.71961  -0.052746  -0.052746  -0.016459
In  2.92316  8.71961  2.92316  -0.052746  -0.016459  -0.052746
In  8.71961  2.92316  2.92316  -0.016459  -0.052746  -0.052746
In  2.92659  2.92659  2.92659  0.144837  0.144837  0.144837
P  8.59445  8.59445  8.59445  0.759622  0.759622  0.759622
P  10.09035  10.09035  10.09035  -0.032728  -0.032728  -0.032728
P  10.15013  7.35032  7.35032  -0.175758  -0.264688  -0.264688
P  7.35032  10.15013  7.35032  -0.264688  -0.175758  -0.264688
P  7.35032  7.35032  10.15013  -0.264688  -0.264688  -0.175758
P  1.45493  10.26995  7.34008  -0.011294  -0.180632  0.016545
P  1.45493  7.34008  10.26995  -0.011294  0.016545  -0.180632
P  10.26995  1.45493  7.34008  -0.180632  -0.011294  0.016545
P  10.26995  7.34008  1.45493  -0.180632  0.016545  -0.011294
P  7.34008  1.45493  10.26995  0.016545  -0.011294  -0.180632
P  7.34008  10.26995  1.45493  0.016545  -0.180632  -0.011294
P  10.24808  10.24808  4.43419  -0.045334  -0.045334  -0.162854
P  10.24808  4.43419  10.24808  -0.045334  -0.162854  -0.045334
P  4.43419  10.24808  10.24808  -0.162854  -0.045334  -0.045334
P  7.33831  7.33831  4.34616  -0.170827  -0.170827  0.276294
P  7.33831  4.34616  7.33831  -0.170827  0.276294  -0.170827
P  4.34616  7.33831  7.33831  0.276294  -0.170827  -0.170827
P  1.47176  1.47176  10.21204  -0.195228  -0.195228  0.197047
P  1.47176  10.21204  1.47176  -0.195228  0.197047  -0.195228
P  10.21204  1.47176  1.47176  0.197047  -0.195228  -0.195228
P  1.41496  7.31309  4.43438  0.14834  -0.007632  -0.161582
P  1.41496  4.43438  7.31309  0.14834  -0.161582  -0.007632
P  7.31309  1.41496  4.43438  -0.007632  0.14834  -0.161582
P  4.43438  1.41496  7.31309  -0.161582  0.14834  -0.007632
P  7.31309  4.43438  1.41496  -0.007632  -0.161582  0.14834
P  4.43438  7.31309  1.41496  -0.161582  -0.007632  0.14834
P  10.25249  4.34662  4.34662  0.009624  0.099434  0.099434
P  4.34662  10.25249  4.34662  0.099434  0.009624  0.099434
P  4.34662  4.34662  10.25249  0.099434  0.099434  0.009624
P  1.47488  1.47488  4.37878  -0.11631  -0.11631  0.137127
P  1.47488  4.37878  1.47488  -0.11631  0.137127  -0.11631
P  4.37878  1.47488  1.47488  0.137127  -0.11631  -0.11631
P  4.41059  4.41059  4.41059  -0.182615  -0.182615  -0.182615
64
Lattice="11.70751661 0.0 0.0 0.0 11.70751661 0.0 0.0 0.0 11.70751661" Properties=species:S:1:pos:R:3:forces:R:3 energy=-309.81970815 stress="-11.57893 -0.72743 -0.72743 -0.72743 -11.57893 -0.72743 -0.72743 -0.72743 -11.57893" pbc="T T T"
In  11.66807  11.66807  8.82659  0.097035  0.097035  0.149401
In  11.66807  8.82659  11.66807  0.097035  0.149401  0.097035
In  8.82659  11.66807  11.66807  0.149401  0.097035  0.097035
In  -0.04144  8.78456  5.92315  0.101568  0.083372  -0.02845
In  -0.04144  5.92315  8.78456  0.101568  -0.02845  0.083372
In  8.78456  -0.04144  5.92315  0.083372  0.101568  -0.02845
In  8.78456  5.92315  -0.04144  0.083372  -0.02845  0.101568
In  5.92315  -0.04144  8.78456  -0.02845  0.101568  0.083372
In  5.92315  8.78456  -0.04144  -0.02845  0.083372  0.101568
In  8.77218  5.78157  5.78157  -0.099984  0.187086  0.187086
In  5.78157  8.77218  5.78157  0.187086  -0.099984  0.187086