65
Lattice="11.70751661 0.0 0.0 0.0 11.70751661 0.0 0.0 0.0 11.70751661" Properties=species:S:1:pos:R:3:forces:R:3 energy=-312.10641562 stress="-0.86305 4.54098 0.94708 4.54098 -0.86305 0.94708 0.94708 0.94708 3.50079" pbc="T T T"
In  8.78064  8.78064  8.25678  -0.002027  -0.002027  -0.078484
In  0.06159  0.06159  8.71056  0.00186  0.00186  0.017842
In  0.07655  8.79661  0.05676  -0.010402  0.021001  0.016325
In  8.79661  0.07655  0.05676  0.021001  -0.010402  0.016325
In  0.06141  8.80402  5.74079  0.010173  -0.022548  0.021531
In  11.67542  5.88586  8.79848  0.014811  -0.015583  -0.030272
In  8.80402  0.06141  5.74079  -0.022548  0.010173  0.021531
In  8.76466  5.77721  0.05676  -0.00647  0.033943  -0.007273
In  5.88586  11.67542  8.79848  -0.015583  0.014811  -0.030272
In  5.77721  8.76466  0.05676  0.033943  -0.00647  -0.007273
In  8.75725  5.79235  5.74079  0.019805  0.028086  0.053691
In  5.79235  8.75725  5.74079  0.028086  0.019805  0.053691
In  5.79217  5.79217  8.71056  0.033959  0.033959  0.024333
In  2.93078  8.7864  8.76226  -0.041467  -0.032721  -0.047399
In  8.7864  2.93078  8.76226  -0.032721  -0.041467  -0.047399
In  8.78064  8.78064  2.90532  0.007543  0.007543  -0.201952
In  2.92869  0.00312  11.70069  0.01641  -0.007499  -0.018509
In  0.00312  2.92869  11.70069  -0.007499  0.01641  -0.018509
In  0.01345  0.01345  2.9385  0.072415  0.072415  -0.292423
In  2.94327  0.01059  5.82643  -0.052905  0.079475  0.104216
In  0.01059  2.94327  5.82643  0.079475  -0.052905  0.104216
In  2.91835  5.85526  11.69579  -0.037121  -0.013591  0.027692
In  11.70093  5.86035  2.93456  0.028909  0.027869  -0.224414
In  5.85526  2.91835  11.69579  -0.013591  -0.037121  0.027692
In  5.86035  11.70093  2.93456  0.027869  0.028909  -0.224414
In  2.92395  5.84953  5.85033  -0.121106  -0.107462  -0.128667
In  5.84953  2.92395  5.85033  -0.107462  -0.121106  -0.128667
In  5.84031  5.84031  2.9385  -0.075681  -0.075681  -0.270564
In  2.94948  2.94948  8.77047  -0.239665  -0.239665  -0.269822
In  2.96595  8.78023  2.95569  -0.406084  -0.026499  -0.266844
In  8.78023  2.96595  2.95569  -0.026499  -0.406084  -0.266844
In  2.93345  2.93345  2.91103  -0.053664  -0.053664  -0.151674
P  8.78064  8.78064  10.63344  0.003739  0.003739  0.050434
P  10.46144  10.46144  10.41056  -0.024894  -0.024894  -0.000351
P  10.32598  7.23529  7.10914  -0.025355  0.014085  0.026603
P  7.23529  10.32598  7.10914  0.014085  -0.025355  0.026603
P  7.09983  7.09983  10.41056  0.014521  0.014521  -0.005311
P  1.47777  10.24178  7.2739  -0.000909  0.00038  -0.003529
P  1.4621  7.33549  10.23208  0.022465  -0.01142  -0.007777
P  10.24178  1.47777  7.2739  0.00038  -0.000909  -0.003529
P  10.25314  7.30814  1.45513  -0.01014  -0.005111  -0.013623
P  7.33549  1.4621  10.23208  -0.01142  0.022465  -0.007777
P  7.30814  10.25314  1.45513  -0.005111  -0.01014  -0.013623
P  10.2546  10.2546  4.32877  -0.090846  -0.090846  0.21084
P  10.22578  4.39166  10.23208  0.0668  -0.004612  0.05614
P  4.39166  10.22578  10.23208  -0.004612  0.0668  0.05614
P  7.30668  7.30668  4.32877  0.085316  0.085316  0.19848
P  7.3195  4.37599  7.2739  0.08308  0.084859  0.086255
P  4.37599  7.3195  7.2739  0.084859  0.08308  0.086255
P  1.49277  1.49277  10.23113  -0.042632  -0.042632  -0.004919
P  1.52261  10.26243  1.52144  -0.030166  -0.009874  -0.058582
P  10.26243  1.52261  1.52144  -0.009874  -0.030166  -0.058582
P  1.50358  7.30225  4.33204  -0.066587  -0.055033  0.300376
P  1.43986  4.4139  7.32257  0.071554  -0.058896  0.001528
P  7.30225  1.50358  4.33204  -0.055033  -0.066587  0.300376
P  4.4139  1.43986  7.32257  -0.058896  0.071554  0.001528
P  7.29885  4.33115  1.52144  -0.170279  0.209615  -0.231824
P  4.33115  7.29885  1.52144  0.209615  -0.170279  -0.231824
P  10.25903  4.35018  4.33204  0.182141  0.31822  0.404172
P  4.35018  10.25903  4.33204  0.31822  0.182141  0.404172
P  4.36099  4.36099  10.23113  0.247448  0.247448  0.205813
P  1.47103  1.47103  4.36986  0.089816  0.089816  0.177462
P  1.45609  4.39767  1.45765  0.026112  -0.011191  -0.015998
P  4.39767  1.45609  1.45765  -0.011191  0.026112  -0.015998
P  4.38272  4.38272  4.36986  -0.02597  -0.02597  0.30266
65
Lattice="11.70751661 0.0 0.0 0.0 11.70751661 0.0 0.0 0.0 11.70751661" Properties=species:S:1:pos:R:3:forces:R:3 energy=-312.21749882 stress="-1.091 2.08239 -0.01731 2.08239 -1.091 -0.01731 -0.01731 -0.01731 3.16549" pbc="T T T"
In  8.78304  8.78304  8.26406  -0.000556  -0.000556  0.020809
In  0.05489  0.05489  8.71351  0.000523  0.000523  -0.012281
In  0.07095  8.79328  0.03938  -0.001147  -0.00523  0.003945
In  8.79328  0.07095  0.03938  -0.00523  -0.001147  0.003945
In  0.0507  8.80712  5.7591  -0.005224  0.001916  -0.000853
In  11.68538  5.87758  8.79616  0.004784  -0.007728  0.001344
In  8.80712  0.0507  5.7591  0.001916  -0.005224  -0.000853
In  8.77067  5.78505  0.03915  0.004055  0.000622  0.001001
In  5.87758  11.68538  8.79616  -0.007728  0.004784  0.001344
In  5.78505  8.77067  0.03915  0.000622  0.004055  0.001001
In  8.75622  5.80637  5.76089  0.002351  0.008018  -0.00569
In  5.80637  8.75622  5.76089  0.008018  0.002351  -0.00569
In  5.80161  5.80161  8.71328  0.002089  0.002089  -0.001503
In  2.92733  8.78279  8.75851  0.002062  0.004322  -0.002272
In  8.78279  2.92733  8.75851  0.004322  0.002062  -0.002272
In  8.78162  8.78162  2.88267  -0.001195  -0.001195  -0.001522
In  2.9334  0.00493  11.69022  0.006375  -0.000869  0.015154
In  0.00493  2.9334  11.69022  -0.000869  0.006375  0.015154
In  0.0251  0.0251  2.91322  0.001677  0.001677  0.004499
In  2.94186  0.01817  5.84874  -0.004661  -0.001347  -0.004311
In  0.01817  2.94186  5.84874  -0.001347  -0.004661  -0.004311
In  2.91898  5.85152  11.68882  -0.000709  0.001624  0.016484
In  11.70501  5.8615  2.91163  0.003292  -0.001612  0.000364
In  5.85152  2.91898  11.68882  0.001624  -0.000709  0.016484
In  5.8615  11.70501  2.91163  -0.001612  0.003292  0.000364
In  2.91356  5.83946  5.85087  0.005961  0.001417  -0.001467
In  5.83946  2.91356  5.85087  0.001417  0.005961  -0.001467
In  5.82936  5.82936  2.91379  0.001775  0.001775  0.002403
In  2.92913  2.92913  8.76752  -0.000372  -0.000372  0.01663
In  2.93193  8.78304  2.94354  -0.007975  0.000227  0.002038
In  8.78304  2.93193  2.94354  0.000227  -0.007975  0.002038
In  2.92904  2.92904  2.90354  0.000985  0.000985  0.004733
P  8.78284  8.78284  10.6458  -0.000863  -0.000863  0.023751
P  10.45358  10.45358  10.39926  0.005795  0.005795  -0.005959
P  10.32663  7.23815  7.13206  -0.008398  0.006791  -0.004162
P  7.23815  10.32663  7.13206  0.006791  -0.008398  -0.004162
P  7.11209  7.11209  10.39817  -0.007252  -0.007252  -0.008284
P  1.47459  10.24353  7.28218  0.000467  -0.00864  -0.012498
P  1.46515  7.33107  10.22805  0.008115  -0.004789  0.000443
P  10.24353  1.47459  7.28218  -0.00864  0.000467  -0.012498
P  10.25515  7.30883  1.44193  0.001502  -0.003666  -0.006171
P  7.33107  1.46515  10.22805  -0.004789  0.008115  0.000443
P  7.30883  10.25515  1.44193  -0.003666  0.001502  -0.006171
P  10.25162  10.25162  4.33831  0.003434  0.003434  -0.00421
P  10.23429  4.38905  10.22964  -0.002626  -0.003772  -0.001649
P  4.38905  10.23429  10.22964  -0.003772  -0.002626  -0.001649
P  7.31124  7.31124  4.3385  -0.003587  -0.003587  -0.007381
P  7.32237  4.38175  7.28425  -0.002995  -0.005203  -0.017085
P  4.38175  7.32237  7.28425  -0.005203  -0.002995  -0.017085
P  1.48004  1.48004  10.23229  -0.000372  -0.000372  0.010808
P  1.51363  10.26492  1.49568  0.00428  -0.005063  0.000707
P  10.26492  1.51363  1.49568  -0.005063  0.00428  0.000707
P  1.48673  7.29723  4.36548  -0.005077  -0.002407  0.004054
P  1.45116  4.40383  7.3338  0.003575  0.005833  -0.013466
P  7.29723  1.48673  4.36548  -0.002407  -0.005077  0.004054
P  4.40383  1.45116  7.3338  0.005833  0.003575  -0.013466
P  7.29709  4.34214  1.49377  0.005385  0.002722  0.002693
P  4.34214  7.29709  1.49377  0.002722  0.005385  0.002693
P  10.26942  4.37377  4.36666  -0.001098  0.002658  0.005235
P  4.37377  10.26942  4.36666  0.002658  -0.001098  0.005235
P  4.37711  4.37711  10.2343  -0.000144  -0.000144  0.001616
P  1.47914  1.47914  4.3901  -0.006679  -0.006679  0.002433
P  1.4624  4.39311  1.44894  -0.00167  0.002646  -0.004323
P  4.39311  1.4624  1.44894  0.002646  -0.00167  -0.004323
P  4.37715  4.37715  4.39409  0.00565  0.00565  -0.005574
65
Lattice="11.70751661 0.0 0.0 0.0 11.70751661 0.0 0.0 0.0 11.70751661" Properties=species:S:1:pos:R:3:forces:R:3 energy=-312.21767879 stress="-1.09065 2.05739 -0.0176 2.05739 -1.09065 -0.0176 -0.0176 -0.0176 3.12124" pbc="T T T"
In  8.78317  8.78317  8.26441  -0.000835  -0.000835  0.041323
In  0.05489  0.05489  8.71305  -2.9e-5  -2.9e-5  -0.011601
In  0.07123  8.7931  0.03872  -0.003831  -0.005738  0.004184
In  8.7931  0.07123  0.03872  -0.005738  -0.003831  0.004184
In  0.05026  8.80723  5.75952  -0.005594  0.002799  -0.002872
In  11.686  5.87717  8.79603  0.003409  -0.007983  0.004012
In  8.80723  0.05026  5.75952  0.002799  -0.005594  -0.002872
In  8.7707  5.78481  0.03869  0.005653  0.002584  0.000557
In  5.87717  11.686  8.79603  -0.007983  0.003409  0.004012
In  5.78481  8.7707  0.03869  0.002584  0.005653  0.000557
In  8.75611  5.80676  5.76116  0.003808  0.00811  -0.007799
In  5.80676  8.75611  5.76116  0.00811  0.003808  -0.007799
In  5.80158  5.80158  8.71271  0.002689  0.002689  0.001882
In  2.92729  8.78252  8.75818  0.002686  0.006448  -1.0e-6
In  8.78252  2.92729  8.75818  0.006448  0.002686  -1.0e-6
In  8.78159  8.78159  2.88229  -0.000946  -0.000946  -0.000241
In  2.93338  0.00466  11.69013  0.007944  0.001384  0.017004
In  0.00466  2.93338  11.69013  0.001384  0.007944  0.017004
In  0.02545  0.02545  2.91243  0.001091  0.001091  0.009215
In  2.94211  0.01795  5.84917  -0.006064  -0.001097  -0.007586
In  0.01795  2.94211  5.84917  -0.001097  -0.006064  -0.007586
In  2.91959  5.85191  11.6889  -0.002988  -0.001414  0.017124
In  11.70502  5.86139  2.91181  0.002732  -0.002461  -0.00079
In  5.85191  2.91959  11.6889  -0.001414  -0.002988  0.017124
In  5.86139  11.70502  2.91181  -0.002461  0.002732  -0.00079
In  2.91328  5.83965  5.85098  0.008596  0.000298  -0.002369
In  5.83965  2.91328  5.85098  0.000298  0.008596  -0.002369
In  5.82925  5.82925  2.91269  0.001704  0.001704  0.007367
In  2.92886  2.92886  8.76809  -0.00071  -0.00071  0.0209
In  2.93163  8.78317  2.94389  -0.010186  0.000535  0.00133
In  8.78317  2.93163  2.94389  0.000535  -0.010186  0.00133
In  2.92882  2.92882  2.90375  0.002037  0.002037  0.004941
P  8.783  8.783  10.64799  -0.001369  -0.001369  0.004282
P  10.45329  10.45329  10.39846  0.006676  0.006676  -0.004319
P  10.3266  7.23819  7.13286  -0.007621  0.005766  -0.006423
P  7.23819  10.3266  7.13286  0.005766  -0.007621  -0.006423
P  7.11253  7.11253  10.39744  -0.009062  -0.009062  -0.007861
P  1.47467  10.2435  7.28223  -0.000401  -0.009875  -0.012793
P  1.4657  7.33076  10.22796  0.005968  -0.004442  -0.001008
P  10.2435  1.47467  7.28223  -0.009875  -0.000401  -0.012793
P  10.25535  7.30863  1.44179  0.00113  -0.003389  -0.007202
P  7.33076  1.4657  10.22796  -0.004442  0.005968  -0.001008
P  7.30863  10.25535  1.44179  -0.003389  0.00113  -0.007202
P  10.25184  10.25184  4.33788  0.002738  0.002738  -0.003428
P  10.23446  4.3887  10.22942  -0.003648  -0.001824  -0.003619
P  4.3887  10.23446  10.22942  -0.001824  -0.003648  -0.003619
P  7.31107  7.31107  4.3383  -0.002938  -0.002938  -0.008887
P  7.3226  4.38195  7.28426  -0.005227  -0.007199  -0.018956
P  4.38195  7.3226  7.28426  -0.007199  -0.005227  -0.018956
P  1.47937  1.47937  10.2327  0.003014  0.003014  0.008508
P  1.51344  10.26487  1.49523  0.006381  -0.007058  0.003125
P  10.26487  1.51344  1.49523  -0.007058  0.006381  0.003125
P  1.48625  7.29731  4.36579  -0.003714  -0.002251  0.004382
P  1.45145  4.4033  7.33401  0.003774  0.008974  -0.01477
P  7.29731  1.48625  4.36579  -0.002251  -0.003714  0.004382
P  4.4033  1.45145  7.33401  0.008974  0.003774  -0.01477
P  7.29764  4.34187  1.49371  0.004986  0.00479  0.003697
P  4.34187  7.29764  1.49371  0.00479  0.004986  0.003697
P  10.26915  4.37374  4.36682  0.00047  0.004068  0.006717
P  4.37374  10.26915  4.36682  0.004068  0.00047  0.006717
P  4.37739  4.37739  10.23435  -0.001033  -0.001033  0.000135
P  1.47903  1.47903  4.39068  -0.006901  -0.006901  0.000275
P  1.46256  4.39328  1.44875  -0.001899  0.001282  -0.004056
P  4.39328  1.46256  1.44875  0.001282  -0.001899  -0.004056
P  4.37732  4.37732  4.39411  0.005203  0.005203  -0.006266
65
Lattice="11.70751661 0.0 0.0 0.0 11.70751661 0.0 0.0 0.0 11.70751661" Properties=species:S:1:pos:R:3:forces:R:3 energy=-312.21844972 stress="-1.12071 2.17034 0.00497 2.17034 -1.12071 0.00497 0.00497 0.00497 3.10619" pbc="T T T"
In  8.7833  8.7833  8.26856  -0.001623  -0.001623  0.026462
In  0.05489  0.05489  8.71133  0.003898  0.003898  -0.010584
In  0.07132  8.79232  0.0381  -0.002324  -0.003095  -0.003387
In  8.79232  0.07132  0.0381  -0.003095  -0.002324  -0.003387
In  0.0491  8.80764  5.75989  -0.007951  -0.001547  -0.006209
In  11.68723  5.87586  8.79618  -0.000453  -0.001714  -0.003257
In  8.80764  0.0491  5.75989  -0.001547  -0.007951  -0.006209
In  8.77124  5.78466  0.03804  0.001721  0.003716  -0.00531
In  5.87586  11.68723  8.79618  -0.001714  -0.000453  -0.003257
In  5.78466  8.77124  0.03804  0.003716  0.001721  -0.00531
In  8.75629  5.80804  5.76087  0.00059  0.006499  -0.005739
In  5.80804  8.75629  5.76087  0.006499  0.00059  -0.005739
In  5.80179  5.80179  8.71201  -0.003154  -0.003154  -0.007496
In  2.92747  8.78268  8.75767  0.00248  7.1e-5  -0.002902
In  8.78268  2.92747  8.75767  7.1e-5  0.00248  -0.002902
In  8.78146  8.78146  2.88172  0.000119  0.000119  -0.00223
In  2.93405  0.00438  11.69149  0.004529  -0.000316  0.007185
In  0.00438  2.93405  11.69149  -0.000316  0.004529  0.007185
In  0.02607  0.02607  2.91205  -0.001561  -0.001561  0.002495
In  2.94196  0.01752  5.84915  -0.00166  0.000346  -0.005828
In  0.01752  2.94196  5.84915  0.000346  -0.00166  -0.005828
In  2.92025  5.85237  11.69052  0.001684  -0.002497  0.006893
In  11.70529  5.861  2.912  -0.001067  -0.002307  -0.000167
In  5.85237  2.92025  11.69052  -0.002497  0.001684  0.006893
In  5.861  11.70529  2.912  -0.002307  -0.001067  -0.000167
In  2.91362  5.83996  5.85093  0.006504  -0.002742  -0.009693
In  5.83996  2.91362  5.85093  -0.002742  0.006504  -0.009693
In  5.82925  5.82925  2.9117  0.001666  0.001666  0.004391
In  2.92838  2.92838  8.77078  -0.000493  -0.000493  0.005549
In  2.93028  8.7834  2.94453  -0.003529  -0.001921  0.007643
In  8.7834  2.93028  2.94453  -0.001921  -0.003529  0.007643
In  2.92867  2.92867  2.90451  0.000992  0.000992  0.003043
P  8.78312  8.78312  10.65166  -0.000901  -0.000901  0.006135
P  10.45344  10.45344  10.39687  0.004342  0.004342  0.005906
P  10.32587  7.23876  7.13348  -0.004748  0.005023  0.00531
P  7.23876  10.32587  7.13348  0.005023  -0.004748  0.00531
P  7.1124  7.1124  10.39566  -0.004398  -0.004398  0.005406
P  1.47475  10.24259  7.28117  -0.001417  -0.003645  -0.005449
P  1.46706  7.32992  10.22775  0.000434  -0.000916  -0.000348
P  10.24259  1.47475  7.28117  -0.003645  -0.001417  -0.005449
P  10.25577  7.30804  1.44095  6.5e-5  -0.001662  0.000596
P  7.32992  1.46706  10.22775  -0.000916  0.000434  -0.000348
P  7.30804  10.25577  1.44095  -0.001662  6.5e-5  0.000596
P  10.25241  10.25241  4.33694  -0.002064  -0.002064  -0.004401
P  10.2344  4.388  10.22877  0.000457  0.00083  -0.000571
P  4.388  10.2344  10.22877  0.00083  0.000457  -0.000571
P  7.31054  7.31054  4.33722  0.002541  0.002541  -0.007796
P  7.32249  4.38162  7.28261  0.000282  0.000551  -0.007687
P  4.38162  7.32249  7.28261  0.000551  0.000282  -0.007687
P  1.47863  1.47863  10.23407  -0.000525  -0.000525  0.006781
P  1.51372  10.26418  1.49483  -0.00189  -0.002073  0.004772
P  10.26418  1.51372  1.49483  -0.002073  -0.00189  0.004772
P  1.4852  7.29724  4.36662  -0.000737  -0.001824  0.001843
P  1.45223  4.4033  7.33303  0.004875  -0.001483  -0.005903
P  7.29724  1.4852  4.36662  -0.001824  -0.000737  0.001843
P  4.4033  1.45223  7.33303  -0.001483  0.004875  -0.005903
P  7.29891  4.34189  1.49395  0.003919  0.006145  0.006401
P  4.34189  7.29891  1.49395  0.006145  0.003919  0.006401
P  10.2688  4.37405  4.36766  0.001776  0.00065  -0.001955
P  4.37405  10.2688  4.36766  0.00065  0.001776  -0.001955
P  4.3777  4.3777  10.23443  0.001981  0.001981  0.008384
P  1.47825  1.47825  4.39158  0.000349  0.000349  -0.006397
P  1.46263  4.39365  1.44812  0.001563  -0.002637  0.008582
P  4.39365  1.46263  1.44812  -0.002637  0.001563  0.008582
P  4.37803  4.37803  4.3936  0.000276  0.000276  -0.005295
65
Lattice="11.70751661 0.0 0.0 0.0 11.70751661 0.0 0.0 0.0 11.70751661" Properties=species:S:1:pos:R:3:forces:R:3 energy=-312.21876289 stress="-1.14156 2.30402 0.0321 2.30402 -1.14156 0.0321 0.0321 0.0321 3.10053" pbc="T T T"
In  8.78346  8.78346  8.2737  -0.00266  -0.00266  0.006352
In  0.05489  0.05489  8.70921  0.008743  0.008743  -0.007591
In  0.07142  8.79135  0.03733  -0.000366  0.001187  -0.011977
In  8.79135  0.07142  0.03733  0.001187  -0.000366  -0.011977
In  0.04767  8.80815  5.76036  -0.009614  -0.007379  -0.010698
In  11.68876  5.87424  8.79637  -0.006627  0.007556  -0.012467
In  8.80815  0.04767  5.76036  -0.007379  -0.009614  -0.010698
In  8.77191  5.78449  0.03725  -0.003886  0.005191  -0.011713
In  5.87424  11.68876  8.79637  0.007556  -0.006627  -0.012467
In  5.78449  8.77191  0.03725  0.005191  -0.003886  -0.011713
In  8.75651  5.80964  5.76052  -0.00357  0.003292  -0.002841
In  5.80964  8.75651  5.76052  0.003292  -0.00357  -0.002841
In  5.80204  5.80204  8.71114  -0.010506  -0.010506  -0.018294
In  2.92769  8.78288  8.75705  0.001961  -0.008057  -0.005731
In  8.78288  2.92769  8.75705  -0.008057  0.001961  -0.005731
In  8.7813  8.7813  2.881  0.001648  0.001648  -0.00379
In  2.93487  0.00403  11.69318  -0.000427  -0.002059  -0.006409
In  0.00403  2.93487  11.69318  -0.002059  -0.000427  -0.006409
In  0.02683  0.02683  2.91159  -0.005548  -0.005548  -0.005445
In  2.94177  0.01699  5.84912  0.003965  0.002696  -0.00354
In  0.01699  2.94177  5.84912  0.002696  0.003965  -0.00354
In  2.92107  5.85294  11.69253  0.006868  -0.004442  -0.007378
In  11.70561  5.86052  2.91224  -0.006005  -0.001741  0.000388
In  5.85294  2.92107  11.69253  -0.004442  0.006868  -0.007378
In  5.86052  11.70561  2.91224  -0.001741  -0.006005  0.000388
In  2.91404  5.84035  5.85087  0.003399  -0.006993  -0.018811
In  5.84035  2.91404  5.85087  -0.006993  0.003399  -0.018811
In  5.82925  5.82925  2.91046  0.001552  0.001552  0.001672
In  2.92779  2.92779  8.77412  0.000265  0.000265  -0.015472
In  2.92862  8.78369  2.94533  0.006056  -0.005176  0.014908
In  8.78369  2.92862  2.94533  -0.005176  0.006056  0.014908
In  2.92848  2.92848  2.90545  -0.000176  -0.000176  -0.00016
P  8.78327  8.78327  10.6562  -0.00027  -0.00027  0.008135
P  10.45364  10.45364  10.3949  0.001229  0.001229  0.018704
P  10.32496  7.23947  7.13425  -0.00114  0.004144  0.019762
P  7.23947  10.32496  7.13425  0.004144  -0.00114  0.019762
P  7.11224  7.11224  10.39345  0.001628  0.001628  0.021935
P  1.47485  10.24146  7.27985  -0.002639  0.004184  0.003734
P  1.46875  7.32886  10.22748  -0.006514  0.003528  0.000624
P  10.24146  1.47485  7.27985  0.004184  -0.002639  0.003734
P  10.25628  7.30731  1.43991  -0.001214  0.0005  0.010423
P  7.32886  1.46875  10.22748  0.003528  -0.006514  0.000624
P  7.30731  10.25628  1.43991  0.0005  -0.001214  0.010423
P  10.25312  10.25312  4.33577  -0.00797  -0.00797  -0.005355
P  10.23432  4.38714  10.22796  0.005604  0.004233  0.003366
P  4.38714  10.23432  10.22796  0.004233  0.005604  0.003366
P  7.30989  7.30989  4.33587  0.009384  0.009384  -0.006287
P  7.32235  4.38122  7.28056  0.007169  0.010243  0.006431
P  4.38122  7.32235  7.28056  0.010243  0.007169  0.006431
P  1.47771  1.47771  10.23577  -0.004742  -0.004742  0.004566
P  1.51406  10.26333  1.49433  -0.012018  0.004221  0.006965
P  10.26333  1.51406  1.49433  0.004221  -0.012018  0.006965
P  1.4839  7.29716  4.36766  0.00309  -0.001236  -0.001353
P  1.45319  4.4033  7.33181  0.006063  -0.014282  0.005297
P  7.29716  1.4839  4.36766  -0.001236  0.00309  -0.001353
P  4.4033  1.45319  7.33181  -0.014282  0.006063  0.005297
P  7.30049  4.34192  1.49424  0.002388  0.007802  0.009763
P  4.34192  7.30049  1.49424  0.007802  0.002388  0.009763
P  10.26836  4.37444  4.36871  0.003492  -0.003608  -0.012658
P  4.37444  10.26836  4.36871  -0.003608  0.003492  -0.012658
P  4.3781  4.3781  10.23454  0.005692  0.005692  0.018719
P  1.47729  1.47729  4.39268  0.009353  0.009353  -0.014604
P  1.46272  4.3941  1.44733  0.005815  -0.007436  0.024356
P  4.3941  1.46272  1.44733  -0.007436  0.005815  0.024356
P  4.37892  4.37892  4.39296  -0.005843  -0.005843  -0.003963
65
Lattice="11.70751661 0.0 0.0 0.0 11.70751661 0.0 0.0 0.0 11.70751661" Properties=species:S:1:pos:R:3:forces:R:3 energy=-312.2191496 stress="-1.13613 1.96263 -0.02451 1.96263 -1.13613 -0.02451 -0.02451 -0.02451 3.1006" pbc="T T T"
In  8.78317  8.78317  8.2744  -0.001083  -0.001083  0.018425
In  0.05585  0.05585  8.70837  -0.003194  -0.003194  0.007598
In  0.07138  8.79148  0.03601  -0.001218  -0.002907  0.009342
In  8.79148  0.07138  0.03601  -0.002907  -0.001218  0.009342
In  0.04662  8.80734  5.75919  -0.002138  -0.001071  0.002963
In  11.68803  5.87507  8.795  0.005952  -0.004471  0.000569
In  8.80734  0.04662  5.75919  -0.001071  -0.002138  0.002963
In  8.77148  5.78506  0.03596  0.006984  -0.000678  0.007686
In  5.87507  11.68803  8.795  -0.004471  0.005952  0.000569
In  5.78506  8.77148  0.03596  -0.000678  0.006984  0.007686
In  8.75611  5.81  5.76021  0.010405  0.004577  -0.004099
In  5.81  8.75611  5.76021  0.004577  0.010405  -0.004099
In  5.80089  5.80089  8.70914  0.003804  0.003804  0.01257
In  2.92791  8.78199  8.75642  -0.000437  0.004509  0.004025
In  8.78199  2.92791  8.75642  0.004509  -0.000437  0.004025
In  8.78148  8.78148  2.88058  0.001295  0.001295  -0.008029
In  2.93483  0.00381  11.69248  0.000442  0.001515  0.012524
In  0.00381  2.93483  11.69248  0.001515  0.000442  0.012524
In  0.02622  0.02622  2.91099  -8.8e-5  -8.8e-5  0.006818
In  2.94221  0.01729  5.84873  -0.005665  0.001814  -0.005485
In  0.01729  2.94221  5.84873  0.001814  -0.005665  -0.005485
In  2.92182  5.85246  11.69172  -0.007097  0.004603  0.015845
In  11.70496  5.86033  2.91228  0.001637  0.002207  -0.002369
In  5.85246  2.92182  11.69172  0.004603  -0.007097  0.015845
In  5.86033  11.70496  2.91228  0.002207  0.001637  -0.002369
In  2.91442  5.83958  5.84881  0.002737  -0.000924  0.005624
In  5.83958  2.91442  5.84881  -0.000924  0.002737  0.005624
In  5.82942  5.82942  2.91064  0.001939  0.001939  0.005391
In  2.92782  2.92782  8.77243  0.000956  0.000956  0.018676
In  2.92928  8.78312  2.94696  -0.00544  0.001847  -0.00819
In  8.78312  2.92928  2.94696  0.001847  -0.00544  -0.00819
In  2.92846  2.92846  2.90543  0.000592  0.000592  0.002393
P  8.78324  8.78324  10.65709  0.000491  0.000491  0.009242
P  10.45377  10.45377  10.39695  0.010731  0.010731  -0.010929
P  10.32484  7.23992  7.13642  -0.00766  0.002574  -0.006536
P  7.23992  10.32484  7.13642  0.002574  -0.00766  -0.006536
P  7.11242  7.11242  10.39586  -0.014339  -0.014339  -0.016561
P  1.47456  10.24192  7.28026  -0.000575  -0.006095  -0.010477
P  1.46803  7.32925  10.22755  0.002453  -0.006448  -0.004503
P  10.24192  1.47456  7.28026  -0.006095  -0.000575  -0.010477
P  10.25614  7.30737  1.44105  0.001883  -0.000161  -0.005462
P  7.32925  1.46803  10.22755  -0.006448  0.002453  -0.004503
P  7.30737  10.25614  1.44105  -0.000161  0.001883  -0.005462
P  10.25225  10.25225  4.33518  -0.00169  -0.00169  -0.001571
P  10.23493  4.3876  10.22833  -0.001555  0.001506  -0.006716
P  4.3876  10.23493  10.22833  0.001506  -0.001555  -0.006716
P  7.31092  7.31092  4.33518  0.00144  0.00144  0.000197
P  7.32313  4.38234  7.28127  -0.005756  -0.004513  -0.012469
P  4.38234  7.32313  7.28127  -0.004513  -0.005756  -0.012469
P  1.47719  1.47719  10.23627  0.006415  0.006415  -0.003917
P  1.51275  10.26379  1.49509  0.007206  -0.011694  0.001624
P  10.26379  1.51275  1.49509  -0.011694  0.007206  0.001624
P  1.48424  7.29702  4.36751  -0.005175  -0.005452  0.001606
P  1.45386  4.40173  7.33239  0.000398  0.010885  -0.006169
P  7.29702  1.48424  4.36751  -0.005452  -0.005175  0.001606
P  4.40173  1.45386  7.33239  0.010885  0.000398  -0.006169
P  7.30075  4.34278  1.49531  0.00247  -0.000594  -0.002106
P  4.34278  7.30075  1.49531  -0.000594  0.00247  -0.002106
P  10.26875  4.37404  4.36732  -0.000811  0.005647  0.010942
P  4.37404  10.26875  4.36732  0.005647  -0.000811  0.010942
P  4.37872  4.37872  10.23659  -0.003547  -0.003547  -0.014306
P  1.47831  1.47831  4.39108  -0.004869  -0.004869  -0.000484
P  1.46335  4.39328  1.45  -0.000334  0.002769  -0.006209
P  4.39328  1.46335  1.45  0.002769  -0.000334  -0.006209
P  4.37827  4.37827  4.39253  0.002995  0.002995  -0.009437
65
Lattice="11.70751661 0.0 0.0 0.0 11.70751661 0.0 0.0 0.0 11.70751661" Properties=species:S:1:pos:R:3:forces:R:3 energy=-312.21923076 stress="-1.13877 2.07665 -0.00576 2.07665 -1.13877 -0.00576 -0.00576 -0.00576 3.09945" pbc="T T T"
In  8.78326  8.78326  8.27417  -0.001558  -0.001558  0.014564
In  0.05555  0.05555  8.70864  0.000578  0.000578  0.002554
In  0.07139  8.79144  0.03643  -0.00107  -0.001757  0.00258
In  8.79144  0.07139  0.03643  -0.001757  -0.00107  0.00258
In  0.04695  8.8076  5.75956  -0.004502  -0.002991  -0.001287
In  11.68827  5.87481  8.79544  0.00204  -0.000767  -0.003445
In  8.8076  0.04695  5.75956  -0.002991  -0.004502  -0.001287
In  8.77162  5.78488  0.03637  0.003679  0.001248  0.001539
In  5.87481  11.68827  8.79544  -0.000767  0.00204  -0.003445
In  5.78488  8.77162  0.03637  0.001248  0.003679  0.001539
In  8.75624  5.80989  5.76031  0.006022  0.00418  -0.003697
In  5.80989  8.75624  5.76031  0.00418  0.006022  -0.003697
In  5.80126  5.80126  8.70978  -0.000621  -0.000621  0.002795
In  2.92784  8.78227  8.75662  0.000325  0.000601  0.000899
In  8.78227  2.92784  8.75662  0.000601  0.000325  0.000899
In  8.78143  8.78143  2.88072  0.001389  0.001389  -0.006824
In  2.93484  0.00388  11.69271  0.000225  0.000373  0.006618
In  0.00388  2.93484  11.69271  0.000373  0.000225  0.006618
In  0.02642  0.02642  2.91118  -0.001716  -0.001716  0.002883
In  2.94207  0.01719  5.84886  -0.002662  0.002018  -0.004841
In  0.01719  2.94207  5.84886  0.002018  -0.002662  -0.004841
In  2.92158  5.85261  11.69198  -0.002706  0.001762  0.008578
In  11.70517  5.86039  2.91227  -0.000759  0.000935  -0.001528
In  5.85261  2.92158  11.69198  0.001762  -0.002706  0.008578
In  5.86039  11.70517  2.91227  0.000935  -0.000759  -0.001528
In  2.9143  5.83982  5.84947  0.002918  -0.002769  -0.001973
In  5.83982  2.9143  5.84947  -0.002769  0.002918  -0.001973
In  5.82937  5.82937  2.91058  0.001805  0.001805  0.004114
In  2.92781  2.92781  8.77297  0.000712  0.000712  0.007947
In  2.92907  8.7833  2.94644  -0.001895  -0.000325  -0.000981
In  8.7833  2.92907  2.94644  -0.000325  -0.001895  -0.000981
In  2.92847  2.92847  2.90543  0.000332  0.000332  0.001596
P  8.78325  8.78325  10.65681  0.000236  0.000236  0.008779
P  10.45373  10.45373  10.3963  0.007752  0.007752  -0.001482
P  10.32488  7.23978  7.13573  -0.005567  0.003033  0.001833
P  7.23978  10.32488  7.13573  0.003033  -0.005567  0.001833
P  7.11237  7.11237  10.39509  -0.009316  -0.009316  -0.004279
P  1.47465  10.24177  7.28013  -0.001243  -0.002795  -0.005961
P  1.46826  7.32913  10.22753  -0.000436  -0.003243  -0.002913
P  10.24177  1.47465  7.28013  -0.002795  -0.001243  -0.005961
P  10.25619  7.30735  1.44069  0.000859  6.3e-5  -0.000464
P  7.32913  1.46826  10.22753  -0.003243  -0.000436  -0.002913
P  7.30735  10.25619  1.44069  6.3e-5  0.000859  -0.000464
P  10.25253  10.25253  4.33537  -0.003732  -0.003732  -0.002825
P  10.23474  4.38745  10.22822  0.000702  0.002387  -0.003525
P  4.38745  10.23474  10.22822  0.002387  0.000702  -0.003525
P  7.3106  7.3106  4.3354  0.003959  0.003959  -0.001884
P  7.32288  4.38198  7.28104  -0.001663  0.000205  -0.006456
P  4.38198  7.32288  7.28104  0.000205  -0.001663  -0.006456
P  1.47736  1.47736  10.23611  0.002864  0.002864  -0.00128
P  1.51317  10.26364  1.49485  0.001027  -0.006594  0.00331
P  10.26364  1.51317  1.49485  -0.006594  0.001027  0.00331
P  1.48413  7.29707  4.36756  -0.002526  -0.004114  0.000621
P  1.45364  4.40223  7.33221  0.002217  0.0028  -0.002551
P  7.29707  1.48413  4.36756  -0.004114  -0.002526  0.000621
P  4.40223  1.45364  7.33221  0.0028  0.002217  -0.002551
P  7.30067  4.34251  1.49497  0.002405  0.002097  0.001673
P  4.34251  7.30067  1.49497  0.002097  0.002405  0.001673
P  10.26862  4.37417  4.36776  0.000542  0.002685  0.003359
P  4.37417  10.26862  4.36776  0.002685  0.000542  0.003359
P  4.37852  4.37852  10.23594  -0.000631  -0.000631  -0.003791
P  1.47799  1.47799  4.39159  -0.000299  -0.000299  -0.005031
P  1.46315  4.39354  1.44915  0.001643  -0.000523  0.003542
P  4.39354  1.46315  1.44915  -0.000523  0.001643  0.003542
P  4.37848  4.37848  4.39267  0.000159  0.000159  -0.007693
65
Lattice="11.70751661 0.0 0.0 0.0 11.70751661 0.0 0.0 0.0 11.70751661" Properties=species:S:1:pos:R:3:forces:R:3 energy=-312.219395 stress="-1.14969 2.05855 -0.0034 2.05855 -1.14969 -0.0034 -0.0034 -0.0034 3.11468" pbc="T T T"
In  8.78305  8.78305  8.2758  -0.001954  -0.001954  0.01036
In  0.05578  0.05578  8.70875  0.001541  0.001541  -0.004062
In  0.07128  8.79129  0.03646  0.000348  -0.002113  0.000166
In  8.79129  0.07128  0.03646  -0.002113  0.000348  0.000166
In  0.0463  8.80715  5.75922  -0.002618  -0.002288  0.000822
In  11.68834  5.87488  8.79484  0.002489  -0.001895  -0.00365
In  8.80715  0.0463  5.75922  -0.002288  -0.002618  0.000822