63
Lattice="11.70751661 0.0 0.0 0.0 11.70751661 0.0 0.0 0.0 11.70751661" Properties=species:S:1:pos:R:3:forces:R:3 energy=-301.96386399 stress="-21.47199 -1.05513 -1.05513 -1.05513 -21.47199 -1.05513 -1.05513 -1.05513 -21.47199" pbc="T T T"
In  11.61181  11.61181  8.83345  -0.018541  -0.018541  -0.043501
In  11.61181  8.83345  11.61181  -0.018541  -0.043501  -0.018541
In  8.83345  11.61181  11.61181  -0.043501  -0.018541  -0.018541
In  11.61181  8.72783  5.94946  -0.019435  0.047249  -0.03266
In  11.61181  5.94946  8.72783  -0.019435  -0.03266  0.047249
In  8.72783  11.61181  5.94946  0.047249  -0.019435  -0.03266
In  8.72783  5.94946  11.61181  0.047249  -0.03266  -0.019435
In  5.94946  11.61181  8.72783  -0.03266  -0.019435  0.047249
In  5.94946  8.72783  11.61181  -0.03266  0.047249  -0.019435
In  8.83345  5.94946  5.94946  -0.055317  -0.032252  -0.032252
In  5.94946  8.83345  5.94946  -0.032252  -0.055317  -0.032252
In  5.94946  5.94946  8.83345  -0.032252  -0.032252  -0.055317
In  2.90218  8.78064  8.78064  0.244558  -0.005916  -0.005916
In  8.78064  2.90218  8.78064  -0.005916  0.244558  -0.005916
In  8.78064  8.78064  2.90218  -0.005916  -0.005916  0.244558
In  2.90985  11.70077  11.70077  0.195288  -0.078869  -0.078869
In  11.70077  2.90985  11.70077  -0.078869  0.195288  -0.078869
In  11.70077  11.70077  2.90985  -0.078869  -0.078869  0.195288
In  2.90653  11.69416  5.86712  0.190752  -0.037411  -0.015585
In  11.69416  2.90653  5.86712  -0.037411  0.190752  -0.015585
In  2.90653  5.86712  11.69416  0.190752  -0.015585  -0.037411
In  11.69416  5.86712  2.90653  -0.037411  -0.015585  0.190752
In  5.86712  2.90653  11.69416  -0.015585  0.190752  -0.037411
In  5.86712  11.69416  2.90653  -0.015585  -0.037411  0.190752
In  2.90985  5.86051  5.86051  0.180603  0.050789  0.050789
In  5.86051  2.90985  5.86051  0.050789  0.180603  0.050789
In  5.86051  5.86051  2.90985  0.050789  0.050789  0.180603
In  2.90462  2.90462  8.7797  0.203763  0.203763  -0.003566
In  2.90462  8.7797  2.90462  0.203763  -0.003566  0.203763
In  8.7797  2.90462  2.90462  -0.003566  0.203763  0.203763
In  2.92247  2.92247  2.92247  0.067966  0.067966  0.067966
P  10.02424  10.02424  10.02424  0.066142  0.066142  0.066142
P  10.02424  7.53704  7.53704  0.068766  -0.056419  -0.056419
P  7.53704  10.02424  7.53704  -0.056419  0.068766  -0.056419
P  7.53704  7.53704  10.02424  -0.056419  -0.056419  0.068766
P  1.43359  10.23849  7.32278  -0.029306  0.000755  0.017765
P  1.43359  7.32278  10.23849  -0.029306  0.017765  0.000755
P  10.23849  1.43359  7.32278  0.000755  -0.029306  0.017765
P  10.23849  7.32278  1.43359  0.000755  0.017765  -0.029306
P  7.32278  1.43359  10.23849  0.017765  -0.029306  0.000755
P  7.32278  10.23849  1.43359  0.017765  0.000755  -0.029306
P  10.23849  10.23849  4.42017  0.003404  0.003404  -0.170384
P  10.23849  4.42017  10.23849  0.003404  -0.170384  0.003404
P  4.42017  10.23849  10.23849  -0.170384  0.003404  0.003404
P  7.32278  7.32278  4.42017  0.010477  0.010477  -0.170695
P  7.32278  4.42017  7.32278  0.010477  -0.170695  0.010477
P  4.42017  7.32278  7.32278  -0.170695  0.010477  0.010477
P  1.42887  1.42887  10.23107  0.001937  0.001937  0.001781
P  1.42887  10.23107  1.42887  0.001937  0.001781  0.001937
P  10.23107  1.42887  1.42887  0.001781  0.001937  0.001937
P  1.42887  7.3302  4.42489  0.007077  0.012268  -0.168297
P  1.42887  4.42489  7.3302  0.007077  -0.168297  0.012268
P  7.3302  1.42887  4.42489  0.012268  0.007077  -0.168297
P  4.42489  1.42887  7.3302  -0.168297  0.007077  0.012268
P  7.3302  4.42489  1.42887  0.012268  -0.168297  0.007077
P  4.42489  7.3302  1.42887  -0.168297  0.012268  0.007077
P  10.23107  4.42489  4.42489  -0.000412  -0.166046  -0.166046
P  4.42489  10.23107  4.42489  -0.166046  -0.000412  -0.166046
P  4.42489  4.42489  10.23107  -0.166046  -0.166046  -0.000412
P  1.45889  1.45889  4.39487  -0.010136  -0.010136  -0.086989
P  1.45889  4.39487  1.45889  -0.010136  -0.086989  -0.010136
P  4.39487  1.45889  1.45889  -0.086989  -0.010136  -0.010136
P  4.39487  4.39487  4.39487  -0.044962  -0.044962  -0.044962
63
Lattice="11.70751661 0.0 0.0 0.0 11.70751661 0.0 0.0 0.0 11.70751661" Properties=species:S:1:pos:R:3:forces:R:3 energy=-302.06395462 stress="-19.27814 -0.01447 -0.01447 -0.01447 -19.27814 -0.01447 -0.01447 -0.01447 -19.27814" pbc="T T T"
In  11.63064  11.63064  8.81552  -0.002666  -0.002666  0.017084
In  11.63064  8.81552  11.63064  -0.002666  0.017084  -0.002666
In  8.81552  11.63064  11.63064  0.017084  -0.002666  -0.002666
In  11.63034  8.73671  5.92627  -0.000836  0.010464  -0.006844
In  11.63034  5.92627  8.73671  -0.000836  -0.006844  0.010464
In  8.73671  11.63034  5.92627  0.010464  -0.000836  -0.006844
In  8.73671  5.92627  11.63034  0.010464  -0.006844  -0.000836
In  5.92627  11.63034  8.73671  -0.006844  -0.000836  0.010464
In  5.92627  8.73671  11.63034  -0.006844  0.010464  -0.000836
In  8.81419  5.92452  5.92452  0.016872  0.001738  0.001738
In  5.92452  8.81419  5.92452  0.001738  0.016872  0.001738
In  5.92452  5.92452  8.81419  0.001738  0.001738  0.016872
In  2.92645  8.77599  8.77599  -0.007361  0.014588  0.014588
In  8.77599  2.92645  8.77599  0.014588  -0.007361  0.014588
In  8.77599  8.77599  2.92645  0.014588  0.014588  -0.007361
In  2.92608  11.69517  11.69517  0.000343  0.000903  0.000903
In  11.69517  2.92608  11.69517  0.000903  0.000343  0.000903
In  11.69517  11.69517  2.92608  0.000903  0.000903  0.000343
In  2.9276  11.69421  5.86199  -0.016537  0.003683  -0.0038
In  11.69421  2.9276  5.86199  0.003683  -0.016537  -0.0038
In  2.9276  5.86199  11.69421  -0.016537  -0.0038  0.003683
In  11.69421  5.86199  2.9276  0.003683  -0.0038  -0.016537
In  5.86199  2.9276  11.69421  -0.0038  -0.016537  0.003683
In  5.86199  11.69421  2.9276  -0.0038  0.003683  -0.016537
In  2.9259  5.86409  5.86409  -0.002194  -0.015477  -0.015477
In  5.86409  2.9259  5.86409  -0.015477  -0.002194  -0.015477
In  5.86409  5.86409  2.9259  -0.015477  -0.015477  -0.002194
In  2.92644  2.92644  8.77489  -0.005015  -0.005015  0.017564
In  2.92644  8.77489  2.92644  -0.005015  0.017564  -0.005015
In  8.77489  2.92644  2.92644  0.017564  -0.005015  -0.005015
In  2.92658  2.92658  2.92658  -0.002734  -0.002734  -0.002734
P  10.06701  10.06701  10.06701  0.038692  0.038692  0.038692
P  10.0702  7.48083  7.48083  0.024326  -0.001277  -0.001277
P  7.48083  10.0702  7.48083  -0.001277  0.024326  -0.001277
P  7.48083  7.48083  10.0702  -0.001277  -0.001277  0.024326
P  1.44682  10.23591  7.3171  -0.012995  0.005613  0.007811
P  1.44682  7.3171  10.23591  -0.012995  0.007811  0.005613
P  10.23591  1.44682  7.3171  0.005613  -0.012995  0.007811
P  10.23591  7.3171  1.44682  0.005613  0.007811  -0.012995
P  7.3171  1.44682  10.23591  0.007811  -0.012995  0.005613
P  7.3171  10.23591  1.44682  0.007811  0.005613  -0.012995
P  10.23674  10.23674  4.40462  0.000948  0.000948  0.004955
P  10.23674  4.40462  10.23674  0.000948  0.004955  0.000948
P  4.40462  10.23674  10.23674  0.004955  0.000948  0.000948
P  7.31835  7.31835  4.4064  0.001618  0.001618  -0.00949
P  7.31835  4.4064  7.31835  0.001618  -0.00949  0.001618
P  4.4064  7.31835  7.31835  -0.00949  0.001618  0.001618
P  1.44464  1.44464  10.23182  -0.009192  -0.009192  -0.00286
P  1.44464  10.23182  1.44464  -0.009192  -0.00286  -0.009192
P  10.23182  1.44464  1.44464  -0.00286  -0.009192  -0.009192
P  1.44283  7.3236  4.40812  0.003513  -0.000443  -0.002496
P  1.44283  4.40812  7.3236  0.003513  -0.002496  -0.000443
P  7.3236  1.44283  4.40812  -0.000443  0.003513  -0.002496
P  4.40812  1.44283  7.3236  -0.002496  0.003513  -0.000443
P  7.3236  4.40812  1.44283  -0.000443  -0.002496  0.003513
P  4.40812  7.3236  1.44283  -0.002496  -0.000443  0.003513
P  10.23018  4.40898  4.40898  0.004603  -0.018279  -0.018279
P  4.40898  10.23018  4.40898  -0.018279  0.004603  -0.018279
P  4.40898  4.40898  10.23018  -0.018279  -0.018279  0.004603
P  1.459  1.459  4.39333  0.007537  0.007537  -0.01252
P  1.459  4.39333  1.459  0.007537  -0.01252  0.007537
P  4.39333  1.459  1.459  -0.01252  0.007537  0.007537
P  4.39365  4.39365  4.39365  -0.012393  -0.012393  -0.012393
63
Lattice="11.70751661 0.0 0.0 0.0 11.70751661 0.0 0.0 0.0 11.70751661" Properties=species:S:1:pos:R:3:forces:R:3 energy=-302.06508083 stress="-19.04179 0.06574 0.06574 0.06574 -19.04179 0.06574 0.06574 0.06574 -19.04179" pbc="T T T"
In  11.63191  11.63191  8.81554  0.000509  0.000509  0.01146
In  11.63191  8.81554  11.63191  0.000509  0.01146  0.000509
In  8.81554  11.63191  11.63191  0.01146  0.000509  0.000509
In  11.63169  8.73694  5.92568  0.00386  0.013126  -0.018409
In  11.63169  5.92568  8.73694  0.00386  -0.018409  0.013126
In  8.73694  11.63169  5.92568  0.013126  0.00386  -0.018409
In  8.73694  5.92568  11.63169  0.013126  -0.018409  0.00386
In  5.92568  11.63169  8.73694  -0.018409  0.00386  0.013126
In  5.92568  8.73694  11.63169  -0.018409  0.013126  0.00386
In  8.81394  5.92369  5.92369  0.0181  -0.005547  -0.005547
In  5.92369  8.81394  5.92369  -0.005547  0.0181  -0.005547
In  5.92369  5.92369  8.81394  -0.005547  -0.005547  0.0181
In  2.92624  8.77722  8.77722  -0.00728  -0.002002  -0.002002
In  8.77722  2.92624  8.77722  -0.002002  -0.00728  -0.002002
In  8.77722  8.77722  2.92624  -0.002002  -0.002002  -0.00728
In  2.92542  11.69553  11.69553  0.008879  -8.0e-5  -8.0e-5
In  11.69553  2.92542  11.69553  -8.0e-5  0.008879  -8.0e-5
In  11.69553  11.69553  2.92542  -8.0e-5  -8.0e-5  0.008879
In  2.92706  11.69491  5.86204  -0.014785  0.001351  -0.007437
In  11.69491  2.92706  5.86204  0.001351  -0.014785  -0.007437
In  2.92706  5.86204  11.69491  -0.014785  -0.007437  0.001351
In  11.69491  5.86204  2.92706  0.001351  -0.007437  -0.014785
In  5.86204  2.92706  11.69491  -0.007437  -0.014785  0.001351
In  5.86204  11.69491  2.92706  -0.007437  0.001351  -0.014785
In  2.92667  5.86296  5.86296  -0.009136  -0.012362  -0.012362
In  5.86296  2.92667  5.86296  -0.012362  -0.009136  -0.012362
In  5.86296  5.86296  2.92667  -0.012362  -0.012362  -0.009136
In  2.92748  2.92748  8.77482  -0.02321  -0.02321  0.019315
In  2.92748  8.77482  2.92748  -0.02321  0.019315  -0.02321
In  8.77482  2.92748  2.92748  0.019315  -0.02321  -0.02321
In  2.92633  2.92633  2.92633  0.000865  0.000865  0.000865
P  10.07316  10.07316  10.07316  0.022614  0.022614  0.022614
P  10.07634  7.47628  7.47628  0.004072  0.006047  0.006047
P  7.47628  10.07634  7.47628  0.006047  0.004072  0.006047
P  7.47628  7.47628  10.07634  0.006047  0.006047  0.004072
P  1.44606  10.23683  7.31656  -0.003793  0.000328  0.013485
P  1.44606  7.31656  10.23683  -0.003793  0.013485  0.000328
P  10.23683  1.44606  7.31656  0.000328  -0.003793  0.013485
P  10.23683  7.31656  1.44606  0.000328  0.013485  -0.003793
P  7.31656  1.44606  10.23683  0.013485  -0.003793  0.000328
P  7.31656  10.23683  1.44606  0.013485  0.000328  -0.003793
P  10.23676  10.23676  4.40431  0.00727  0.00727  0.009508
P  10.23676  4.40431  10.23676  0.00727  0.009508  0.00727
P  4.40431  10.23676  10.23676  0.009508  0.00727  0.00727
P  7.31668  7.31668  4.40645  0.020593  0.020593  -0.018899
P  7.31668  4.40645  7.31668  0.020593  -0.018899  0.020593
P  4.40645  7.31668  7.31668  -0.018899  0.020593  0.020593
P  1.44359  1.44359  10.23332  0.010207  0.010207  -0.021528
P  1.44359  10.23332  1.44359  0.010207  -0.021528  0.010207
P  10.23332  1.44359  1.44359  -0.021528  0.010207  0.010207
P  1.44344  7.32271  4.40777  0.004168  0.004129  -0.003554
P  1.44344  4.40777  7.32271  0.004168  -0.003554  0.004129
P  7.32271  1.44344  4.40777  0.004129  0.004168  -0.003554
P  4.40777  1.44344  7.32271  -0.003554  0.004168  0.004129
P  7.32271  4.40777  1.44344  0.004129  -0.003554  0.004168
P  4.40777  7.32271  1.44344  -0.003554  0.004129  0.004168
P  10.23075  4.40724  4.40724  0.009247  -0.004125  -0.004125
P  4.40724  10.23075  4.40724  -0.004125  0.009247  -0.004125
P  4.40724  4.40724  10.23075  -0.004125  -0.004125  0.009247
P  1.45995  1.45995  4.39233  -0.001941  -0.001941  -0.007282
P  1.45995  4.39233  1.45995  -0.001941  -0.007282  -0.001941
P  4.39233  1.45995  1.45995  -0.007282  -0.001941  -0.001941
P  4.3931  4.3931  4.3931  -0.015589  -0.015589  -0.015589
63
Lattice="11.70751661 0.0 0.0 0.0 11.70751661 0.0 0.0 0.0 11.70751661" Properties=species:S:1:pos:R:3:forces:R:3 energy=-302.0666063 stress="-18.91547 0.00774 0.00774 0.00774 -18.91547 0.00774 0.00774 0.00774 -18.91547" pbc="T T T"
In  11.63257  11.63257  8.81658  0.005494  0.005494  0.001915
In  11.63257  8.81658  11.63257  0.005494  0.001915  0.005494
In  8.81658  11.63257  11.63257  0.001915  0.005494  0.005494
In  11.6327  8.73824  5.92373  0.007134  0.004135  -0.006969
In  11.6327  5.92373  8.73824  0.007134  -0.006969  0.004135
In  8.73824  11.6327  5.92373  0.004135  0.007134  -0.006969
In  8.73824  5.92373  11.6327  0.004135  -0.006969  0.007134
In  5.92373  11.6327  8.73824  -0.006969  0.007134  0.004135
In  5.92373  8.73824  11.6327  -0.006969  0.004135  0.007134
In  8.81545  5.92278  5.92278  0.00713  -0.004148  -0.004148
In  5.92278  8.81545  5.92278  -0.004148  0.00713  -0.004148
In  5.92278  5.92278  8.81545  -0.004148  -0.004148  0.00713
In  2.92549  8.77763  8.77763  -0.005665  0.001646  0.001646
In  8.77763  2.92549  8.77763  0.001646  -0.005665  0.001646
In  8.77763  8.77763  2.92549  0.001646  0.001646  -0.005665
In  2.9259  11.6957  11.6957  -0.000679  -0.001251  -0.001251
In  11.6957  2.9259  11.6957  -0.001251  -0.000679  -0.001251
In  11.6957  11.6957  2.9259  -0.001251  -0.001251  -0.000679
In  2.92546  11.69536  5.86139  -0.006358  -0.001126  0.001248
In  11.69536  2.92546  5.86139  -0.001126  -0.006358  0.001248
In  2.92546  5.86139  11.69536  -0.006358  0.001248  -0.001126
In  11.69536  5.86139  2.92546  -0.001126  0.001248  -0.006358
In  5.86139  2.92546  11.69536  0.001248  -0.006358  -0.001126
In  5.86139  11.69536  2.92546  0.001248  -0.001126  -0.006358
In  2.92622  5.86129  5.86129  -0.002947  0.002093  0.002093
In  5.86129  2.92622  5.86129  0.002093  -0.002947  0.002093
In  5.86129  5.86129  2.92622  0.002093  0.002093  -0.002947
In  2.92589  2.92589  8.77653  -0.008866  -0.008866  0.003572
In  2.92589  8.77653  2.92589  -0.008866  0.003572  -0.008866
In  8.77653  2.92589  2.92589  0.003572  -0.008866  -0.008866
In  2.92628  2.92628  2.92628  -0.005487  -0.005487  -0.005487
P  10.07819  10.07819  10.07819  0.007224  0.007224  0.007224
P  10.07968  7.47462  7.47462  0.000145  0.004305  0.004305
P  7.47462  10.07968  7.47462  0.004305  0.000145  0.004305
P  7.47462  7.47462  10.07968  0.004305  0.004305  0.000145
P  1.44535  10.23731  7.31752  0.000325  0.001948  0.006625
P  1.44535  7.31752  10.23731  0.000325  0.006625  0.001948
P  10.23731  1.44535  7.31752  0.001948  0.000325  0.006625
P  10.23731  7.31752  1.44535  0.001948  0.006625  0.000325
P  7.31752  1.44535  10.23731  0.006625  0.000325  0.001948
P  7.31752  10.23731  1.44535  0.006625  0.001948  0.000325
P  10.23742  10.23742  4.40502  0.003269  0.003269  -0.005836
P  10.23742  4.40502  10.23742  0.003269  -0.005836  0.003269
P  4.40502  10.23742  10.23742  -0.005836  0.003269  0.003269
P  7.31772  7.31772  4.40476  0.005869  0.005869  -0.006202
P  7.31772  4.40476  7.31772  0.005869  -0.006202  0.005869
P  4.40476  7.31772  7.31772  -0.006202  0.005869  0.005869
P  1.444  1.444  10.2321  0.002713  0.002713  0.003693
P  1.444  10.2321  1.444  0.002713  0.003693  0.002713
P  10.2321  1.444  1.444  0.003693  0.002713  0.002713
P  1.4441  7.32265  4.40727  -0.000373  0.002644  -0.011097
P  1.4441  4.40727  7.32265  -0.000373  -0.011097  0.002644
P  7.32265  1.4441  4.40727  0.002644  -0.000373  -0.011097
P  4.40727  1.4441  7.32265  -0.011097  -0.000373  0.002644
P  7.32265  4.40727  1.4441  0.002644  -0.011097  -0.000373
P  4.40727  7.32265  1.4441  -0.011097  0.002644  -0.000373
P  10.23187  4.40602  4.40602  0.008071  -0.003065  -0.003065
P  4.40602  10.23187  4.40602  -0.003065  0.008071  -0.003065
P  4.40602  4.40602  10.23187  -0.003065  -0.003065  0.008071
P  1.46024  1.46024  4.39118  -0.004157  -0.004157  -0.004406
P  1.46024  4.39118  1.46024  -0.004157  -0.004406  -0.004157
P  4.39118  1.46024  1.46024  -0.004406  -0.004157  -0.004157
P  4.39143  4.39143  4.39143  -0.004602  -0.004602  -0.004602
63
Lattice="11.70751661 0.0 0.0 0.0 11.70751661 0.0 0.0 0.0 11.70751661" Properties=species:S:1:pos:R:3:forces:R:3 energy=-302.06681496 stress="-18.84934 -0.01851 -0.01851 -0.01851 -18.84934 -0.01851 -0.01851 -0.01851 -18.84934" pbc="T T T"
In  11.63287  11.63287  8.81706  0.008106  0.008106  -0.002143
In  11.63287  8.81706  11.63287  0.008106  -0.002143  0.008106
In  8.81706  11.63287  11.63287  -0.002143  0.008106  0.008106
In  11.63316  8.73882  5.92285  0.008953  0.000385  -0.00228
In  11.63316  5.92285  8.73882  0.008953  -0.00228  0.000385
In  8.73882  11.63316  5.92285  0.000385  0.008953  -0.00228
In  8.73882  5.92285  11.63316  0.000385  -0.00228  0.008953
In  5.92285  11.63316  8.73882  -0.00228  0.008953  0.000385
In  5.92285  8.73882  11.63316  -0.00228  0.000385  0.008953
In  8.81613  5.92237  5.92237  0.002826  -0.003856  -0.003856
In  5.92237  8.81613  5.92237  -0.003856  0.002826  -0.003856
In  5.92237  5.92237  8.81613  -0.003856  -0.003856  0.002826
In  2.92514  8.77782  8.77782  -0.005246  0.003481  0.003481
In  8.77782  2.92514  8.77782  0.003481  -0.005246  0.003481
In  8.77782  8.77782  2.92514  0.003481  0.003481  -0.005246
In  2.92612  11.69578  11.69578  -0.004702  -0.001669  -0.001669
In  11.69578  2.92612  11.69578  -0.001669  -0.004702  -0.001669
In  11.69578  11.69578  2.92612  -0.001669  -0.001669  -0.004702
In  2.92474  11.69557  5.8611  -0.003062  -0.002066  0.004943
In  11.69557  2.92474  5.8611  -0.002066  -0.003062  0.004943
In  2.92474  5.8611  11.69557  -0.003062  0.004943  -0.002066
In  11.69557  5.8611  2.92474  -0.002066  0.004943  -0.003062
In  5.8611  2.92474  11.69557  0.004943  -0.003062  -0.002066
In  5.8611  11.69557  2.92474  0.004943  -0.002066  -0.003062
In  2.92601  5.86054  5.86054  -0.000343  0.008132  0.008132
In  5.86054  2.92601  5.86054  0.008132  -0.000343  0.008132
In  5.86054  5.86054  2.92601  0.008132  0.008132  -0.000343
In  2.92517  2.92517  8.7773  -0.002722  -0.002722  -0.003113
In  2.92517  8.7773  2.92517  -0.002722  -0.003113  -0.002722
In  8.7773  2.92517  2.92517  -0.003113  -0.002722  -0.002722
In  2.92626  2.92626  2.92626  -0.008431  -0.008431  -0.008431
P  10.08047  10.08047  10.08047  0.000348  0.000348  0.000348
P  10.0812  7.47387  7.47387  -0.00153  0.003477  0.003477
P  7.47387  10.0812  7.47387  0.003477  -0.00153  0.003477
P  7.47387  7.47387  10.0812  0.003477  0.003477  -0.00153
P  1.44503  10.23752  7.31795  0.002187  0.002676  0.003581
P  1.44503  7.31795  10.23752  0.002187  0.003581  0.002676
P  10.23752  1.44503  7.31795  0.002676  0.002187  0.003581
P  10.23752  7.31795  1.44503  0.002676  0.003581  0.002187
P  7.31795  1.44503  10.23752  0.003581  0.002187  0.002676
P  7.31795  10.23752  1.44503  0.003581  0.002676  0.002187
P  10.23772  10.23772  4.40534  0.001441  0.001441  -0.012765
P  10.23772  4.40534  10.23772  0.001441  -0.012765  0.001441
P  4.40534  10.23772  10.23772  -0.012765  0.001441  0.001441
P  7.3182  7.3182  4.404  -0.000759  -0.000759  -0.000439
P  7.3182  4.404  7.3182  -0.000759  -0.000439  -0.000759
P  4.404  7.3182  7.3182  -0.000439  -0.000759  -0.000759
P  1.44419  1.44419  10.23155  -0.000712  -0.000712  0.015198
P  1.44419  10.23155  1.44419  -0.000712  0.015198  -0.000712
P  10.23155  1.44419  1.44419  0.015198  -0.000712  -0.000712
P  1.44441  7.32262  4.40705  -0.002357  0.001998  -0.014478
P  1.44441  4.40705  7.32262  -0.002357  -0.014478  0.001998
P  7.32262  1.44441  4.40705  0.001998  -0.002357  -0.014478
P  4.40705  1.44441  7.32262  -0.014478  -0.002357  0.001998
P  7.32262  4.40705  1.44441  0.001998  -0.014478  -0.002357
P  4.40705  7.32262  1.44441  -0.014478  0.001998  -0.002357
P  10.23237  4.40547  4.40547  0.00756  -0.00255  -0.00255
P  4.40547  10.23237  4.40547  -0.00255  0.00756  -0.00255
P  4.40547  4.40547  10.23237  -0.00255  -0.00255  0.00756
P  1.46037  1.46037  4.39067  -0.00514  -0.00514  -0.003105
P  1.46037  4.39067  1.46037  -0.00514  -0.003105  -0.00514
P  4.39067  1.46037  1.46037  -0.003105  -0.00514  -0.00514
P  4.39067  4.39067  4.39067  0.000467  0.000467  0.000467
63
Lattice="11.70751661 0.0 0.0 0.0 11.70751661 0.0 0.0 0.0 11.70751661" Properties=species:S:1:pos:R:3:forces:R:3 energy=-302.06724341 stress="-18.83532 -0.00898 -0.00898 -0.00898 -18.83532 -0.00898 -0.00898 -0.00898 -18.83532" pbc="T T T"
In  11.63383  11.63383  8.81711  0.004352  0.004352  0.001504
In  11.63383  8.81711  11.63383  0.004352  0.001504  0.004352
In  8.81711  11.63383  11.63383  0.001504  0.004352  0.004352
In  11.63429  8.73919  5.92213  0.002043  -0.000807  -0.000342
In  11.63429  5.92213  8.73919  0.002043  -0.000342  -0.000807
In  8.73919  11.63429  5.92213  -0.000807  0.002043  -0.000342
In  8.73919  5.92213  11.63429  -0.000807  -0.000342  0.002043
In  5.92213  11.63429  8.73919  -0.000342  0.002043  -0.000807
In  5.92213  8.73919  11.63429  -0.000342  -0.000807  0.002043
In  8.81679  5.92176  5.92176  0.001285  -0.001328  -0.001328
In  5.92176  8.81679  5.92176  -0.001328  0.001285  -0.001328
In  5.92176  5.92176  8.81679  -0.001328  -0.001328  0.001285
In  2.92443  8.77827  8.77827  0.000288  0.000897  0.000897
In  8.77827  2.92443  8.77827  0.000897  0.000288  0.000897
In  8.77827  8.77827  2.92443  0.000897  0.000897  0.000288
In  2.92578  11.69566  11.69566  -0.002813  -0.000504  -0.000504
In  11.69566  2.92578  11.69566  -0.000504  -0.002813  -0.000504
In  11.69566  11.69566  2.92578  -0.000504  -0.000504  -0.002813
In  2.92403  11.69549  5.86142  -0.002387  -0.001432  0.000301
In  11.69549  2.92403  5.86142  -0.001432  -0.002387  0.000301
In  2.92403  5.86142  11.69549  -0.002387  0.000301  -0.001432
In  11.69549  5.86142  2.92403  -0.001432  0.000301  -0.002387
In  5.86142  2.92403  11.69549  0.000301  -0.002387  -0.001432
In  5.86142  11.69549  2.92403  0.000301  -0.001432  -0.002387
In  2.92586  5.86092  5.86092  -0.002817  0.003663  0.003663
In  5.86092  2.92586  5.86092  0.003663  -0.002817  0.003663
In  5.86092  5.86092  2.92586  0.003663  0.003663  -0.002817
In  2.9245  2.9245  8.77743  0.000902  0.000902  0.003035
In  2.9245  8.77743  2.9245  0.000902  0.003035  0.000902
In  8.77743  2.9245  2.9245  0.003035  0.000902  0.000902
In  2.92542  2.92542  2.92542  -0.003452  -0.003452  -0.003452
P  10.08178  10.08178  10.08178  0.000305  0.000305  0.000305
P  10.0819  7.47379  7.47379  0.002223  6.7e-5  6.7e-5
P  7.47379  10.0819  7.47379  6.7e-5  0.002223  6.7e-5
P  7.47379  7.47379  10.0819  6.7e-5  6.7e-5  0.002223
P  1.44507  10.23791  7.31854  6.3e-5  0.000596  -0.000651
P  1.44507  7.31854  10.23791  6.3e-5  -0.000651  0.000596
P  10.23791  1.44507  7.31854  0.000596  6.3e-5  -0.000651
P  10.23791  7.31854  1.44507  0.000596  -0.000651  6.3e-5
P  7.31854  1.44507  10.23791  -0.000651  6.3e-5  0.000596
P  7.31854  10.23791  1.44507  -0.000651  0.000596  6.3e-5
P  10.23803  10.23803  4.40427  -0.000212  -0.000212  -0.002836
P  10.23803  4.40427  10.23803  -0.000212  -0.002836  -0.000212
P  4.40427  10.23803  10.23803  -0.002836  -0.000212  -0.000212
P  7.31839  7.31839  4.40353  0.001402  0.001402  0.002713
P  7.31839  4.40353  7.31839  0.001402  0.002713  0.001402
P  4.40353  7.31839  7.31839  0.002713  0.001402  0.001402
P  1.44422  1.44422  10.23274  -0.000455  -0.000455  0.008279
P  1.44422  10.23274  1.44422  -0.000455  0.008279  -0.000455
P  10.23274  1.44422  1.44422  0.008279  -0.000455  -0.000455
P  1.44435  7.32281  4.4055  -9.1e-5  -0.001682  -0.00343
P  1.44435  4.4055  7.32281  -9.1e-5  -0.00343  -0.001682
P  7.32281  1.44435  4.4055  -0.001682  -9.1e-5  -0.00343
P  4.4055  1.44435  7.32281  -0.00343  -9.1e-5  -0.001682
P  7.32281  4.4055  1.44435  -0.001682  -0.00343  -9.1e-5
P  4.4055  7.32281  1.44435  -0.00343  -0.001682  -9.1e-5
P  10.2334  4.40491  4.40491  0.002125  -0.002799  -0.002799
P  4.40491  10.2334  4.40491  -0.002799  0.002125  -0.002799
P  4.40491  4.40491  10.2334  -0.002799  -0.002799  0.002125
P  1.45993  1.45993  4.39007  -0.004631  -0.004631  0.002218
P  1.45993  4.39007  1.45993  -0.004631  0.002218  -0.004631
P  4.39007  1.45993  1.45993  0.002218  -0.004631  -0.004631
P  4.39029  4.39029  4.39029  0.000871  0.000871  0.000871
63
Lattice="11.70751661 0.0 0.0 0.0 11.70751661 0.0 0.0 0.0 11.70751661" Properties=species:S:1:pos:R:3:forces:R:3 energy=-302.06732022 stress="-18.81887 -0.0047 -0.0047 -0.0047 -18.81887 -0.0047 -0.0047 -0.0047 -18.81887" pbc="T T T"
In  11.63429  11.63429  8.81714  0.002516  0.002516  0.003326
In  11.63429  8.81714  11.63429  0.002516  0.003326  0.002516
In  8.81714  11.63429  11.63429  0.003326  0.002516  0.002516
In  11.63483  8.73936  5.92179  -0.00129  -0.001267  0.000488
In  11.63483  5.92179  8.73936  -0.00129  0.000488  -0.001267
In  8.73936  11.63483  5.92179  -0.001267  -0.00129  0.000488
In  8.73936  5.92179  11.63483  -0.001267  0.000488  -0.00129
In  5.92179  11.63483  8.73936  0.000488  -0.00129  -0.001267
In  5.92179  8.73936  11.63483  0.000488  -0.001267  -0.00129
In  8.81711  5.92148  5.92148  0.000639  -0.000156  -0.000156
In  5.92148  8.81711  5.92148  -0.000156  0.000639  -0.000156
In  5.92148  5.92148  8.81711  -0.000156  -0.000156  0.000639
In  2.9241  8.77848  8.77848  0.002934  -0.000339  -0.000339
In  8.77848  2.9241  8.77848  -0.000339  0.002934  -0.000339
In  8.77848  8.77848  2.9241  -0.000339  -0.000339  0.002934
In  2.92562  11.6956  11.6956  -0.001724  8.5e-5  8.5e-5
In  11.6956  2.92562  11.6956  8.5e-5  -0.001724  8.5e-5
In  11.6956  11.6956  2.92562  8.5e-5  8.5e-5  -0.001724
In  2.9237  11.69544  5.86157  -0.002138  -0.001082  -0.002008
In  11.69544  2.9237  5.86157  -0.001082  -0.002138  -0.002008
In  2.9237  5.86157  11.69544  -0.002138  -0.002008  -0.001082
In  11.69544  5.86157  2.9237  -0.001082  -0.002008  -0.002138
In  5.86157  2.9237  11.69544  -0.002008  -0.002138  -0.001082
In  5.86157  11.69544  2.9237  -0.002008  -0.001082  -0.002138
In  2.92579  5.86109  5.86109  -0.003963  0.001335  0.001335
In  5.86109  2.92579  5.86109  0.001335  -0.003963  0.001335
In  5.86109  5.86109  2.92579  0.001335  0.001335  -0.003963
In  2.92418  2.92418  8.77749  0.002567  0.002567  0.00613
In  2.92418  8.77749  2.92418  0.002567  0.00613  0.002567
In  8.77749  2.92418  2.92418  0.00613  0.002567  0.002567
In  2.92502  2.92502  2.92502  -0.001005  -0.001005  -0.001005
P  10.0824  10.0824  10.0824  0.000313  0.000313  0.000313
P  10.08223  7.47375  7.47375  0.003893  -0.001536  -0.001536
P  7.47375  10.08223  7.47375  -0.001536  0.003893  -0.001536
P  7.47375  7.47375  10.08223  -0.001536  -0.001536  0.003893
P  1.44508  10.23809  7.31882  -0.000887  -0.000318  -0.002624
P  1.44508  7.31882  10.23809  -0.000887  -0.002624  -0.000318
P  10.23809  1.44508  7.31882  -0.000318  -0.000887  -0.002624
P  10.23809  7.31882  1.44508  -0.000318  -0.002624  -0.000887
P  7.31882  1.44508  10.23809  -0.002624  -0.000887  -0.000318
P  7.31882  10.23809  1.44508  -0.002624  -0.000318  -0.000887
P  10.23817  10.23817  4.40376  -0.00093  -0.00093  0.001723
P  10.23817  4.40376  10.23817  -0.00093  0.001723  -0.00093
P  4.40376  10.23817  10.23817  0.001723  -0.00093  -0.00093
P  7.31848  7.31848  4.40331  0.002377  0.002377  0.004113
P  7.31848  4.40331  7.31848  0.002377  0.004113  0.002377
P  4.40331  7.31848  7.31848  0.004113  0.002377  0.002377
P  1.44424  1.44424  10.23329  -0.000342  -0.000342  0.005005
P  1.44424  10.23329  1.44424  -0.000342  0.005005  -0.000342
P  10.23329  1.44424  1.44424  0.005005  -0.000342  -0.000342
P  1.44432  7.32289  4.40477  0.000963  -0.003329  0.001782
P  1.44432  4.40477  7.32289  0.000963  0.001782  -0.003329
P  7.32289  1.44432  4.40477  -0.003329  0.000963  0.001782
P  4.40477  1.44432  7.32289  0.001782  0.000963  -0.003329
P  7.32289  4.40477  1.44432  -0.003329  0.001782  0.000963
P  4.40477  7.32289  1.44432  0.001782  -0.003329  0.000963
P  10.23388  4.40464  4.40464  -0.000456  -0.002861  -0.002861
P  4.40464  10.23388  4.40464  -0.002861  -0.000456  -0.002861
P  4.40464  4.40464  10.23388  -0.002861  -0.002861  -0.000456
P  1.45973  1.45973  4.38979  -0.004383  -0.004383  0.004711
P  1.45973  4.38979  1.45973  -0.004383  0.004711  -0.004383
P  4.38979  1.45973  1.45973  0.004711  -0.004383  -0.004383
P  4.39011  4.39011  4.39011  0.001119  0.001119  0.001119
63
Lattice="11.70751661 0.0 0.0 0.0 11.70751661 0.0 0.0 0.0 11.70751661" Properties=species:S:1:pos:R:3:forces:R:3 energy=-302.06739615 stress="-18.80265 0.0001 0.0001 0.0001 -18.80265 0.0001 0.0001 0.0001 -18.80265" pbc="T T T"
In  11.63477  11.63477  8.81751  0.000168  0.000168  0.00131
In  11.63477  8.81751  11.63477  0.000168  0.00131  0.000168
In  8.81751  11.63477  11.63477  0.00131  0.000168  0.000168
In  11.63494  8.73931  5.92168  -0.000845  -0.001297  -0.000851
In  11.63494  5.92168  8.73931  -0.000845  -0.000851  -0.001297
In  8.73931  11.63494  5.92168  -0.001297  -0.000845  -0.000851
In  8.73931  5.92168  11.63494  -0.001297  -0.000851  -0.000845
In  5.92168  11.63494  8.73931  -0.000851  -0.000845  -0.001297
In  5.92168  8.73931  11.63494  -0.000851  -0.001297  -0.000845
In  8.81732  5.92132  5.92132  0.001782  0.0001  0.0001
In  5.92132  8.81732  5.92132  0.0001  0.001782  0.0001
In  5.92132  5.92132  8.81732  0.0001  0.0001  0.001782
In  2.92426  8.77854  8.77854  0.000646  -0.000662  -0.000662
In  8.77854  2.92426  8.77854  -0.000662  0.000646  -0.000662
In  8.77854  8.77854  2.92426  -0.000662  -0.000662  0.000646
In  2.92536  11.69558  11.69558  0.002688  -0.001194  -0.001194
In  11.69558  2.92536  11.69558  -0.001194  0.002688  -0.001194
In  11.69558  11.69558  2.92536  -0.001194  -0.001194  0.002688