62
Lattice="11.70751661 0.0 0.0 0.0 11.70751661 0.0 0.0 0.0 11.70751661" Properties=species:S:1:pos:R:3:forces:R:3 energy=-294.84645674 stress="-25.55925 3.98404 3.98404 3.98404 -25.55925 3.98404 3.98404 3.98404 -25.55925" pbc="T T T"
In  9.97066  7.46499  7.46499  0.050168  -0.018142  -0.018142
In  7.46499  9.97066  7.46499  -0.018142  0.050168  -0.018142
In  7.46499  7.46499  9.97066  -0.018142  -0.018142  0.050168
In  1.35419  10.30399  7.44768  0.052559  -0.013601  0.029774
In  1.35419  7.44768  10.30399  0.052559  0.029774  -0.013601
In  10.30399  1.35419  7.44768  -0.013601  0.052559  0.029774
In  10.30399  7.44768  1.35419  -0.013601  0.029774  0.052559
In  7.44768  1.35419  10.30399  0.029774  0.052559  -0.013601
In  7.44768  10.30399  1.35419  0.029774  -0.013601  0.052559
In  10.24187  10.24187  4.42573  0.103015  0.103015  -0.269751
In  10.24187  4.42573  10.24187  0.103015  -0.269751  0.103015
In  4.42573  10.24187  10.24187  -0.269751  0.103015  0.103015
In  7.29823  7.29823  4.37487  0.270053  0.270053  -0.094592
In  7.29823  4.37487  7.29823  0.270053  -0.094592  0.270053
In  4.37487  7.29823  7.29823  -0.094592  0.270053  0.270053
In  1.38627  1.38627  10.21458  0.05419  0.05419  0.007122
In  1.38627  10.21458  1.38627  0.05419  0.007122  0.05419
In  10.21458  1.38627  1.38627  0.007122  0.05419  0.05419
In  1.39344  7.34178  4.46752  0.063385  0.094563  -0.376489
In  1.39344  4.46752  7.34178  0.063385  -0.376489  0.094563
In  7.34178  1.39344  4.46752  0.094563  0.063385  -0.376489
In  4.46752  1.39344  7.34178  -0.376489  0.063385  0.094563
In  7.34178  4.46752  1.39344  0.094563  -0.376489  0.063385
In  4.46752  7.34178  1.39344  -0.376489  0.094563  0.063385
In  10.2413  4.41495  4.41495  0.094401  -0.20313  -0.20313
In  4.41495  10.2413  4.41495  -0.20313  0.094401  -0.20313
In  4.41495  4.41495  10.2413  -0.20313  -0.20313  0.094401
In  1.45614  1.45614  4.41674  0.080013  0.080013  -0.110988
In  1.45614  4.41674  1.45614  0.080013  -0.110988  0.080013
In  4.41674  1.45614  1.45614  -0.110988  0.080013  0.080013
In  4.38152  4.38152  4.38152  0.097355  0.097355  0.097355
P  11.50989  11.50989  9.05897  0.053501  0.053501  -0.077664
P  11.50989  9.05897  11.50989  0.053501  -0.077664  0.053501
P  9.05897  11.50989  11.50989  -0.077664  0.053501  0.053501
P  11.61618  8.7907  5.97598  -0.005149  -0.012202  0.001441
P  11.61618  5.97598  8.7907  -0.005149  0.001441  -0.012202
P  8.7907  11.61618  5.97598  -0.012202  -0.005149  0.001441
P  8.7907  5.97598  11.61618  -0.012202  0.001441  -0.005149
P  5.97598  11.61618  8.7907  0.001441  -0.005149  -0.012202
P  5.97598  8.7907  11.61618  0.001441  -0.012202  -0.005149
P  8.75409  5.87482  5.87482  0.01857  -0.011159  -0.011159
P  5.87482  8.75409  5.87482  -0.011159  0.01857  -0.011159
P  5.87482  5.87482  8.75409  -0.011159  -0.011159  0.01857
P  2.90142  8.79674  8.79674  0.188318  -0.092524  -0.092524
P  8.79674  2.90142  8.79674  -0.092524  0.188318  -0.092524
P  8.79674  8.79674  2.90142  -0.092524  -0.092524  0.188318
P  2.92113  0.0137  0.0137  0.189017  -0.142998  -0.142998
P  0.0137  2.92113  0.0137  -0.142998  0.189017  -0.142998
P  0.0137  0.0137  2.92113  -0.142998  -0.142998  0.189017
P  2.87745  11.68596  5.90369  0.307994  -0.044756  0.021256
P  11.68596  2.87745  5.90369  -0.044756  0.307994  0.021256
P  2.87745  5.90369  11.68596  0.307994  0.021256  -0.044756
P  11.68596  5.90369  2.87745  -0.044756  0.021256  0.307994
P  5.90369  2.87745  11.68596  0.021256  0.307994  -0.044756
P  5.90369  11.68596  2.87745  0.021256  -0.044756  0.307994
P  2.90673  5.87088  5.87088  -0.025041  -0.232783  -0.232783
P  5.87088  2.90673  5.87088  -0.232783  -0.025041  -0.232783
P  5.87088  5.87088  2.90673  -0.232783  -0.232783  -0.025041
P  2.9004  2.9004  8.80037  0.150362  0.150362  -0.216551
P  2.9004  8.80037  2.9004  0.150362  -0.216551  0.150362
P  8.80037  2.9004  2.9004  -0.216551  0.150362  0.150362
P  2.9337  2.9337  2.9337  -0.10871  -0.10871  -0.10871
62
Lattice="11.70751661 0.0 0.0 0.0 11.70751661 0.0 0.0 0.0 11.70751661" Properties=species:S:1:pos:R:3:forces:R:3 energy=-295.05368822 stress="-22.04854 3.51611 3.51611 3.51611 -22.04854 3.51611 3.51611 3.51611 -22.04854" pbc="T T T"
In  10.02629  7.41508  7.41508  0.004794  -0.000585  -0.000585
In  7.41508  10.02629  7.41508  -0.000585  0.004794  -0.000585
In  7.41508  7.41508  10.02629  -0.000585  -0.000585  0.004794
In  1.38375  10.29128  7.42511  0.001066  0.004626  -0.011062
In  1.38375  7.42511  10.29128  0.001066  -0.011062  0.004626
In  10.29128  1.38375  7.42511  0.004626  0.001066  -0.011062
In  10.29128  7.42511  1.38375  0.004626  -0.011062  0.001066
In  7.42511  1.38375  10.29128  -0.011062  0.001066  0.004626
In  7.42511  10.29128  1.38375  -0.011062  0.004626  0.001066
In  10.25553  10.25553  4.40086  -0.00464  -0.00464  0.010033
In  10.25553  4.40086  10.25553  -0.00464  0.010033  -0.00464
In  4.40086  10.25553  10.25553  0.010033  -0.00464  -0.00464
In  7.31042  7.31042  4.35412  0.002932  0.002932  0.00898
In  7.31042  4.35412  7.31042  0.002932  0.00898  0.002932
In  4.35412  7.31042  7.31042  0.00898  0.002932  0.002932
In  1.4189  1.4189  10.22803  0.003104  0.003104  -0.006218
In  1.4189  10.22803  1.4189  0.003104  -0.006218  0.003104
In  10.22803  1.4189  1.4189  -0.006218  0.003104  0.003104
In  1.41324  7.34241  4.41945  -0.001337  -0.000938  0.000339
In  1.41324  4.41945  7.34241  -0.001337  0.000339  -0.000938
In  7.34241  1.41324  4.41945  -0.000938  -0.001337  0.000339
In  4.41945  1.41324  7.34241  0.000339  -0.001337  -0.000938
In  7.34241  4.41945  1.41324  -0.000938  0.000339  -0.001337
In  4.41945  7.34241  1.41324  0.000339  -0.000938  -0.001337
In  10.24834  4.39249  4.39249  6.4e-5  0.000535  0.000535
In  4.39249  10.24834  4.39249  0.000535  6.4e-5  0.000535
In  4.39249  4.39249  10.24834  0.000535  0.000535  6.4e-5
In  1.47092  1.47092  4.4204  -0.00692  -0.00692  0.003464
In  1.47092  4.4204  1.47092  -0.00692  0.003464  -0.00692
In  4.4204  1.47092  1.47092  0.003464  -0.00692  -0.00692
In  4.38623  4.38623  4.38623  0.021895  0.021895  0.021895
P  11.57641  11.57641  8.99306  2.3e-5  2.3e-5  -0.000533
P  11.57641  8.99306  11.57641  2.3e-5  -0.000533  2.3e-5
P  8.99306  11.57641  11.57641  -0.000533  2.3e-5  2.3e-5
P  11.64014  8.78997  5.94384  0.002779  -0.001867  -0.004653
P  11.64014  5.94384  8.78997  0.002779  -0.004653  -0.001867
P  8.78997  11.64014  5.94384  -0.001867  0.002779  -0.004653
P  8.78997  5.94384  11.64014  -0.001867  -0.004653  0.002779
P  5.94384  11.64014  8.78997  -0.004653  0.002779  -0.001867
P  5.94384  8.78997  11.64014  -0.004653  -0.001867  0.002779
P  8.74996  5.85272  5.85272  -0.012614  -0.004805  -0.004805
P  5.85272  8.74996  5.85272  -0.004805  -0.012614  -0.004805
P  5.85272  5.85272  8.74996  -0.004805  -0.004805  -0.012614
P  2.92147  8.79283  8.79283  0.002086  -0.003077  -0.003077
P  8.79283  2.92147  8.79283  -0.003077  0.002086  -0.003077
P  8.79283  8.79283  2.92147  -0.003077  -0.003077  0.002086
P  2.9436  0.01585  0.01585  -0.01332  -0.003694  -0.003694
P  0.01585  2.9436  0.01585  -0.003694  -0.01332  -0.003694
P  0.01585  0.01585  2.9436  -0.003694  -0.003694  -0.01332
P  2.90887  11.68454  5.89096  0.009298  0.003437  0.000294
P  11.68454  2.90887  5.89096  0.003437  0.009298  0.000294
P  2.90887  5.89096  11.68454  0.009298  0.000294  0.003437
P  11.68454  5.89096  2.90887  0.003437  0.000294  0.009298
P  5.89096  2.90887  11.68454  0.000294  0.009298  0.003437
P  5.89096  11.68454  2.90887  0.000294  0.003437  0.009298
P  2.89637  5.84644  5.84644  0.000798  0.00506  0.00506
P  5.84644  2.89637  5.84644  0.00506  0.000798  0.00506
P  5.84644  5.84644  2.89637  0.00506  0.00506  0.000798
P  2.91856  2.91856  8.77988  0.006179  0.006179  -0.000432
P  2.91856  8.77988  2.91856  0.006179  -0.000432  0.006179
P  8.77988  2.91856  2.91856  -0.000432  0.006179  0.006179
P  2.92862  2.92862  2.92862  -0.011184  -0.011184  -0.011184
62
Lattice="11.70751661 0.0 0.0 0.0 11.70751661 0.0 0.0 0.0 11.70751661" Properties=species:S:1:pos:R:3:forces:R:3 energy=-295.05373209 stress="-22.07048 3.50826 3.50826 3.50826 -22.07048 3.50826 3.50826 3.50826 -22.07048" pbc="T T T"
In  10.02611  7.41541  7.41541  0.004215  -0.001385  -0.001385
In  7.41541  10.02611  7.41541  -0.001385  0.004215  -0.001385
In  7.41541  7.41541  10.02611  -0.001385  -0.001385  0.004215
In  1.38362  10.29142  7.42513  0.001378  0.003829  -0.010173
In  1.38362  7.42513  10.29142  0.001378  -0.010173  0.003829
In  10.29142  1.38362  7.42513  0.003829  0.001378  -0.010173
In  10.29142  7.42513  1.38362  0.003829  -0.010173  0.001378
In  7.42513  1.38362  10.29142  -0.010173  0.001378  0.003829
In  7.42513  10.29142  1.38362  -0.010173  0.003829  0.001378
In  10.25557  10.25557  4.401  -0.004502  -0.004502  0.008224
In  10.25557  4.401  10.25557  -0.004502  0.008224  -0.004502
In  4.401  10.25557  10.25557  0.008224  -0.004502  -0.004502
In  7.3104  7.3104  4.35416  0.002673  0.002673  0.008101
In  7.3104  4.35416  7.3104  0.002673  0.008101  0.002673
In  4.35416  7.3104  7.3104  0.008101  0.002673  0.002673
In  1.41878  1.41878  10.2281  0.003695  0.003695  -0.007305
In  1.41878  10.2281  1.41878  0.003695  -0.007305  0.003695
In  10.2281  1.41878  1.41878  -0.007305  0.003695  0.003695
In  1.41315  7.34243  4.41938  -0.000867  -0.000881  0.001077
In  1.41315  4.41938  7.34243  -0.000867  0.001077  -0.000881
In  7.34243  1.41315  4.41938  -0.000881  -0.000867  0.001077
In  4.41938  1.41315  7.34243  0.001077  -0.000867  -0.000881
In  7.34243  4.41938  1.41315  -0.000881  0.001077  -0.000867
In  4.41938  7.34243  1.41315  0.001077  -0.000881  -0.000867
In  10.24854  4.39242  4.39242  -0.001702  0.000677  0.000677
In  4.39242  10.24854  4.39242  0.000677  -0.001702  0.000677
In  4.39242  4.39242  10.24854  0.000677  0.000677  -0.001702
In  1.47091  1.47091  4.42063  -0.007215  -0.007215  0.001843
In  1.47091  4.42063  1.47091  -0.007215  0.001843  -0.007215
In  4.42063  1.47091  1.47091  0.001843  -0.007215  -0.007215
In  4.38641  4.38641  4.38641  0.018554  0.018554  0.018554
P  11.57622  11.57622  8.99337  -0.000148  -0.000148  -0.001462
P  11.57622  8.99337  11.57622  -0.000148  -0.001462  -0.000148
P  8.99337  11.57622  11.57622  -0.001462  -0.000148  -0.000148
P  11.64016  8.78994  5.94391  0.002387  -0.001575  -0.004619
P  11.64016  5.94391  8.78994  0.002387  -0.004619  -0.001575
P  8.78994  11.64016  5.94391  -0.001575  0.002387  -0.004619
P  8.78994  5.94391  11.64016  -0.001575  -0.004619  0.002387
P  5.94391  11.64016  8.78994  -0.004619  0.002387  -0.001575
P  5.94391  8.78994  11.64016  -0.004619  -0.001575  0.002387
P  8.75003  5.85274  5.85274  -0.011722  -0.00462  -0.00462
P  5.85274  8.75003  5.85274  -0.00462  -0.011722  -0.00462
P  5.85274  5.85274  8.75003  -0.00462  -0.00462  -0.011722
P  2.9214  8.79282  8.79282  0.002394  -0.002634  -0.002634
P  8.79282  2.9214  8.79282  -0.002634  0.002394  -0.002634
P  8.79282  8.79282  2.9214  -0.002634  -0.002634  0.002394
P  2.94335  0.01593  0.01593  -0.009723  -0.004409  -0.004409
P  0.01593  2.94335  0.01593  -0.004409  -0.009723  -0.004409
P  0.01593  0.01593  2.94335  -0.004409  -0.004409  -0.009723
P  2.90885  11.68452  5.89107  0.008827  0.003203  -0.000271
P  11.68452  2.90885  5.89107  0.003203  0.008827  -0.000271
P  2.90885  5.89107  11.68452  0.008827  -0.000271  0.003203
P  11.68452  5.89107  2.90885  0.003203  -0.000271  0.008827
P  5.89107  2.90885  11.68452  -0.000271  0.008827  0.003203
P  5.89107  11.68452  2.90885  -0.000271  0.003203  0.008827
P  2.89623  5.84635  5.84635  0.001237  0.006186  0.006186
P  5.84635  2.89623  5.84635  0.006186  0.001237  0.006186
P  5.84635  5.84635  2.89623  0.006186  0.006186  0.001237
P  2.91849  2.91849  8.77977  0.00622  0.00622  0.001355
P  2.91849  8.77977  2.91849  0.00622  0.001355  0.00622
P  8.77977  2.91849  2.91849  0.001355  0.00622  0.00622
P  2.92835  2.92835  2.92835  -0.007717  -0.007717  -0.007717
62
Lattice="11.70751661 0.0 0.0 0.0 11.70751661 0.0 0.0 0.0 11.70751661" Properties=species:S:1:pos:R:3:forces:R:3 energy=-295.0540018 stress="-22.00283 3.51071 3.51071 3.51071 -22.00283 3.51071 3.51071 3.51071 -22.00283" pbc="T T T"
In  10.02711  7.41429  7.41429  0.002274  -0.002017  -0.002017
In  7.41429  10.02711  7.41429  -0.002017  0.002274  -0.002017
In  7.41429  7.41429  10.02711  -0.002017  -0.002017  0.002274
In  1.38416  10.29144  7.42393  0.002277  0.004093  -0.004863
In  1.38416  7.42393  10.29144  0.002277  -0.004863  0.004093
In  10.29144  1.38416  7.42393  0.004093  0.002277  -0.004863
In  10.29144  7.42393  1.38416  0.004093  -0.004863  0.002277
In  7.42393  1.38416  10.29144  -0.004863  0.002277  0.004093
In  7.42393  10.29144  1.38416  -0.004863  0.004093  0.002277
In  10.25495  10.25495  4.40151  -0.001556  -0.001556  0.001216
In  10.25495  4.40151  10.25495  -0.001556  0.001216  -0.001556
In  4.40151  10.25495  10.25495  0.001216  -0.001556  -0.001556
In  7.31075  7.31075  4.35492  0.003051  0.003051  0.000473
In  7.31075  4.35492  7.31075  0.003051  0.000473  0.003051
In  4.35492  7.31075  7.31075  0.000473  0.003051  0.003051
In  1.41955  1.41955  10.2271  -0.000725  -0.000725  -0.003517
In  1.41955  10.2271  1.41955  -0.000725  -0.003517  -0.000725
In  10.2271  1.41955  1.41955  -0.003517  -0.000725  -0.000725
In  1.41333  7.34227  4.41971  0.003522  0.000591  -0.001245
In  1.41333  4.41971  7.34227  0.003522  -0.001245  0.000591
In  7.34227  1.41333  4.41971  0.000591  0.003522  -0.001245
In  4.41971  1.41333  7.34227  -0.001245  0.003522  0.000591
In  7.34227  4.41971  1.41333  0.000591  -0.001245  0.003522
In  4.41971  7.34227  1.41333  -0.001245  0.000591  0.003522
In  10.24776  4.39272  4.39272  0.005041  0.002354  0.002354
In  4.39272  10.24776  4.39272  0.002354  0.005041  0.002354
In  4.39272  4.39272  10.24776  0.002354  0.002354  0.005041
In  1.47012  1.47012  4.42017  -0.002634  -0.002634  -6.0e-6
In  1.47012  4.42017  1.47012  -0.002634  -6.0e-6  -0.002634
In  4.42017  1.47012  1.47012  -6.0e-6  -0.002634  -0.002634
In  4.38792  4.38792  4.38792  0.006307  0.006307  0.006307
P  11.57675  11.57675  8.99231  0.001471  0.001471  -0.003709
P  11.57675  8.99231  11.57675  0.001471  -0.003709  0.001471
P  8.99231  11.57675  11.57675  -0.003709  0.001471  0.001471
P  11.64036  8.78986  5.94319  0.002637  -0.002511  -0.000219
P  11.64036  5.94319  8.78986  0.002637  -0.000219  -0.002511
P  8.78986  11.64036  5.94319  -0.002511  0.002637  -0.000219
P  8.78986  5.94319  11.64036  -0.002511  -0.000219  0.002637
P  5.94319  11.64036  8.78986  -0.000219  0.002637  -0.002511
P  5.94319  8.78986  11.64036  -0.000219  -0.002511  0.002637
P  8.74855  5.85218  5.85218  0.000331  0.000981  0.000981
P  5.85218  8.74855  5.85218  0.000981  0.000331  0.000981
P  5.85218  5.85218  8.74855  0.000981  0.000981  0.000331
P  2.92187  8.79257  8.79257  -0.003942  -0.002515  -0.002515
P  8.79257  2.92187  8.79257  -0.002515  -0.003942  -0.002515
P  8.79257  8.79257  2.92187  -0.002515  -0.002515  -0.003942
P  2.94301  0.01522  0.01522  -0.008739  -0.00448  -0.00448
P  0.01522  2.94301  0.01522  -0.00448  -0.008739  -0.00448
P  0.01522  0.01522  2.94301  -0.00448  -0.00448  -0.008739
P  2.90987  11.68493  5.89071  0.003468  0.001989  -0.000845
P  11.68493  2.90987  5.89071  0.001989  0.003468  -0.000845
P  2.90987  5.89071  11.68493  0.003468  -0.000845  0.001989
P  11.68493  5.89071  2.90987  0.001989  -0.000845  0.003468
P  5.89071  2.90987  11.68493  -0.000845  0.003468  0.001989
P  5.89071  11.68493  2.90987  -0.000845  0.001989  0.003468
P  2.89678  5.84731  5.84731  -0.00123  0.002515  0.002515
P  5.84731  2.89678  5.84731  0.002515  -0.00123  0.002515
P  5.84731  5.84731  2.89678  0.002515  0.002515  -0.00123
P  2.91938  2.91938  8.78025  0.001962  0.001962  -0.008539
P  2.91938  8.78025  2.91938  0.001962  -0.008539  0.001962
P  8.78025  2.91938  2.91938  -0.008539  0.001962  0.001962
P  2.92828  2.92828  2.92828  -0.000562  -0.000562  -0.000562
62
Lattice="11.70751661 0.0 0.0 0.0 11.70751661 0.0 0.0 0.0 11.70751661" Properties=species:S:1:pos:R:3:forces:R:3 energy=-295.05399137 stress="-21.97436 3.51184 3.51184 3.51184 -21.97436 3.51184 3.51184 3.51184 -21.97436" pbc="T T T"
In  10.02755  7.41378  7.41378  0.001813  -0.002705  -0.002705
In  7.41378  10.02755  7.41378  -0.002705  0.001813  -0.002705
In  7.41378  7.41378  10.02755  -0.002705  -0.002705  0.001813
In  1.38441  10.29145  7.4234  0.002846  0.004308  -0.002924
In  1.38441  7.4234  10.29145  0.002846  -0.002924  0.004308
In  10.29145  1.38441  7.4234  0.004308  0.002846  -0.002924
In  10.29145  7.4234  1.38441  0.004308  -0.002924  0.002846
In  7.4234  1.38441  10.29145  -0.002924  0.002846  0.004308
In  7.4234  10.29145  1.38441  -0.002924  0.004308  0.002846
In  10.25468  10.25468  4.40173  -0.000502  -0.000502  -0.001622
In  10.25468  4.40173  10.25468  -0.000502  -0.001622  -0.000502
In  4.40173  10.25468  10.25468  -0.001622  -0.000502  -0.000502
In  7.31091  7.31091  4.35525  0.003404  0.003404  -0.002488
In  7.31091  4.35525  7.31091  0.003404  -0.002488  0.003404
In  4.35525  7.31091  7.31091  -0.002488  0.003404  0.003404
In  1.4199  1.4199  10.22665  -0.002429  -0.002429  -0.002195
In  1.4199  10.22665  1.4199  -0.002429  -0.002195  -0.002429
In  10.22665  1.4199  1.4199  -0.002195  -0.002429  -0.002429
In  1.4134  7.3422  4.41986  0.005572  0.001142  -0.002061
In  1.4134  4.41986  7.3422  0.005572  -0.002061  0.001142
In  7.3422  1.4134  4.41986  0.001142  0.005572  -0.002061
In  4.41986  1.4134  7.3422  -0.002061  0.005572  0.001142
In  7.3422  4.41986  1.4134  0.001142  -0.002061  0.005572
In  4.41986  7.3422  1.4134  -0.002061  0.001142  0.005572
In  10.24741  4.39285  4.39285  0.007838  0.003223  0.003223
In  4.39285  10.24741  4.39285  0.003223  0.007838  0.003223
In  4.39285  4.39285  10.24741  0.003223  0.003223  0.007838
In  1.46977  1.46977  4.41997  -0.000965  -0.000965  -0.000947
In  1.46977  4.41997  1.46977  -0.000965  -0.000947  -0.000965
In  4.41997  1.46977  1.46977  -0.000947  -0.000965  -0.000965
In  4.38859  4.38859  4.38859  0.001416  0.001416  0.001416
P  11.57699  11.57699  8.99183  0.002223  0.002223  -0.004807
P  11.57699  8.99183  11.57699  0.002223  -0.004807  0.002223
P  8.99183  11.57699  11.57699  -0.004807  0.002223  0.002223
P  11.64045  8.78982  5.94287  0.002739  -0.002922  0.001765
P  11.64045  5.94287  8.78982  0.002739  0.001765  -0.002922
P  8.78982  11.64045  5.94287  -0.002922  0.002739  0.001765
P  8.78982  5.94287  11.64045  -0.002922  0.001765  0.002739
P  5.94287  11.64045  8.78982  0.001765  0.002739  -0.002922
P  5.94287  8.78982  11.64045  0.001765  -0.002922  0.002739
P  8.74789  5.85193  5.85193  0.005721  0.003494  0.003494
P  5.85193  8.74789  5.85193  0.003494  0.005721  0.003494
P  5.85193  5.85193  8.74789  0.003494  0.003494  0.005721
P  2.92209  8.79245  8.79245  -0.006774  -0.002448  -0.002448
P  8.79245  2.92209  8.79245  -0.002448  -0.006774  -0.002448
P  8.79245  8.79245  2.92209  -0.002448  -0.002448  -0.006774
P  2.94286  0.0149  0.0149  -0.008323  -0.004529  -0.004529
P  0.0149  2.94286  0.0149  -0.004529  -0.008323  -0.004529
P  0.0149  0.0149  2.94286  -0.004529  -0.004529  -0.008323
P  2.91033  11.68511  5.89055  0.001075  0.00143  -0.001107
P  11.68511  2.91033  5.89055  0.00143  0.001075  -0.001107
P  2.91033  5.89055  11.68511  0.001075  -0.001107  0.00143
P  11.68511  5.89055  2.91033  0.00143  -0.001107  0.001075
P  5.89055  2.91033  11.68511  -0.001107  0.001075  0.00143
P  5.89055  11.68511  2.91033  -0.001107  0.00143  0.001075
P  2.89703  5.84774  5.84774  -0.002336  0.000861  0.000861
P  5.84774  2.89703  5.84774  0.000861  -0.002336  0.000861
P  5.84774  5.84774  2.89703  0.000861  0.000861  -0.002336
P  2.91979  2.91979  8.78047  5.1e-5  5.1e-5  -0.01296
P  2.91979  8.78047  2.91979  5.1e-5  -0.01296  5.1e-5
P  8.78047  2.91979  2.91979  -0.01296  5.1e-5  5.1e-5
P  2.92824  2.92824  2.92824  0.00258  0.00258  0.00258
62
Lattice="11.70751661 0.0 0.0 0.0 11.70751661 0.0 0.0 0.0 11.70751661" Properties=species:S:1:pos:R:3:forces:R:3 energy=-295.05398559 stress="-21.9333 3.46394 3.46394 3.46394 -21.9333 3.46394 3.46394 3.46394 -21.9333" pbc="T T T"
In  10.02816  7.41301  7.41301  0.003916  0.000466  0.000466
In  7.41301  10.02816  7.41301  0.000466  0.003916  0.000466
In  7.41301  7.41301  10.02816  0.000466  0.000466  0.003916
In  1.38496  10.29197  7.42258  0.000487  0.002135  -0.001022
In  1.38496  7.42258  10.29197  0.000487  -0.001022  0.002135
In  10.29197  1.38496  7.42258  0.002135  0.000487  -0.001022
In  10.29197  7.42258  1.38496  0.002135  -0.001022  0.000487
In  7.42258  1.38496  10.29197  -0.001022  0.000487  0.002135
In  7.42258  10.29197  1.38496  -0.001022  0.002135  0.000487
In  10.25438  10.25438  4.40174  -0.002181  -0.002181  -0.001376
In  10.25438  4.40174  10.25438  -0.002181  -0.001376  -0.002181
In  4.40174  10.25438  10.25438  -0.001376  -0.002181  -0.002181
In  7.31146  7.31146  4.35525  0.0011  0.0011  -0.001601
In  7.31146  4.35525  7.31146  0.0011  -0.001601  0.0011
In  4.35525  7.31146  7.31146  -0.001601  0.0011  0.0011
In  1.41991  1.41991  10.22599  -0.00032  -0.00032  -0.00527
In  1.41991  10.22599  1.41991  -0.00032  -0.00527  -0.00032
In  10.22599  1.41991  1.41991  -0.00527  -0.00032  -0.00032
In  1.41414  7.34228  4.41974  0.001198  -0.00132  0.000834
In  1.41414  4.41974  7.34228  0.001198  0.000834  -0.00132
In  7.34228  1.41414  4.41974  -0.00132  0.001198  0.000834
In  4.41974  1.41414  7.34228  0.000834  0.001198  -0.00132
In  7.34228  4.41974  1.41414  -0.00132  0.000834  0.001198
In  4.41974  7.34228  1.41414  0.000834  -0.00132  0.001198
In  10.24805  4.39336  4.39336  0.000615  -0.000945  -0.000945
In  4.39336  10.24805  4.39336  -0.000945  0.000615  -0.000945
In  4.39336  4.39336  10.24805  -0.000945  -0.000945  0.000615
In  1.46935  1.46935  4.41968  -0.001234  -0.001234  -0.006311
In  1.46935  4.41968  1.46935  -0.001234  -0.006311  -0.001234
In  4.41968  1.46935  1.46935  -0.006311  -0.001234  -0.001234
In  4.38935  4.38935  4.38935  -0.001536  -0.001536  -0.001536
P  11.57746  11.57746  8.99083  0.00064  0.00064  -0.006963
P  11.57746  8.99083  11.57746  0.00064  -0.006963  0.00064
P  8.99083  11.57746  11.57746  -0.006963  0.00064  0.00064
P  11.64086  8.78944  5.9428  0.001833  0.000884  -0.001168
P  11.64086  5.9428  8.78944  0.001833  -0.001168  0.000884
P  8.78944  11.64086  5.9428  0.000884  0.001833  -0.001168
P  8.78944  5.9428  11.64086  0.000884  -0.001168  0.001833
P  5.9428  11.64086  8.78944  -0.001168  0.001833  0.000884
P  5.9428  8.78944  11.64086  -0.001168  0.000884  0.001833
P  8.748  5.85213  5.85213  0.002996  0.000913  0.000913
P  5.85213  8.748  5.85213  0.000913  0.002996  0.000913
P  5.85213  5.85213  8.748  0.000913  0.000913  0.002996
P  2.92146  8.79206  8.79206  -0.004824  0.001865  0.001865
P  8.79206  2.92146  8.79206  0.001865  -0.004824  0.001865
P  8.79206  8.79206  2.92146  0.001865  0.001865  -0.004824
P  2.94173  0.01408  0.01408  0.000471  0.000405  0.000405
P  0.01408  2.94173  0.01408  0.000405  0.000471  0.000405
P  0.01408  0.01408  2.94173  0.000405  0.000405  0.000471
P  2.91086  11.68545  5.89027  -0.001505  0.002976  -0.000942
P  11.68545  2.91086  5.89027  0.002976  -0.001505  -0.000942
P  2.91086  5.89027  11.68545  -0.001505  -0.000942  0.002976
P  11.68545  5.89027  2.91086  0.002976  -0.000942  -0.001505
P  5.89027  2.91086  11.68545  -0.000942  -0.001505  0.002976
P  5.89027  11.68545  2.91086  -0.000942  0.002976  -0.001505
P  2.89696  5.84822  5.84822  0.002353  -0.00069  -0.00069
P  5.84822  2.89696  5.84822  -0.00069  0.002353  -0.00069
P  5.84822  5.84822  2.89696  -0.00069  -0.00069  0.002353
P  2.92014  2.92014  8.77911  0.001285  0.001285  0.003761
P  2.92014  8.77911  2.92014  0.001285  0.003761  0.001285
P  8.77911  2.92014  2.92014  0.003761  0.001285  0.001285
P  2.92852  2.92852  2.92852  0.002377  0.002377  0.002377
62
Lattice="11.70751661 0.0 0.0 0.0 11.70751661 0.0 0.0 0.0 11.70751661" Properties=species:S:1:pos:R:3:forces:R:3 energy=-295.05394104 stress="-21.91437 3.45136 3.45136 3.45136 -21.91437 3.45136 3.45136 3.45136 -21.91437" pbc="T T T"
In  10.02835  7.41278  7.41278  0.00469  0.00132  0.00132
In  7.41278  10.02835  7.41278  0.00132  0.00469  0.00132
In  7.41278  7.41278  10.02835  0.00132  0.00132  0.00469
In  1.38514  10.29213  7.42233  -0.000143  0.001496  -0.000587
In  1.38514  7.42233  10.29213  -0.000143  -0.000587  0.001496
In  10.29213  1.38514  7.42233  0.001496  -0.000143  -0.000587
In  10.29213  7.42233  1.38514  0.001496  -0.000587  -0.000143
In  7.42233  1.38514  10.29213  -0.000587  -0.000143  0.001496
In  7.42233  10.29213  1.38514  -0.000587  0.001496  -0.000143
In  10.25428  10.25428  4.40174  -0.002757  -0.002757  -0.001293
In  10.25428  4.40174  10.25428  -0.002757  -0.001293  -0.002757
In  4.40174  10.25428  10.25428  -0.001293  -0.002757  -0.002757
In  7.31163  7.31163  4.35525  0.000502  0.000502  -0.00132
In  7.31163  4.35525  7.31163  0.000502  -0.00132  0.000502
In  4.35525  7.31163  7.31163  -0.00132  0.000502  0.000502
In  1.41992  1.41992  10.22579  0.000328  0.000328  -0.0063
In  1.41992  10.22579  1.41992  0.000328  -0.0063  0.000328
In  10.22579  1.41992  1.41992  -0.0063  0.000328  0.000328
In  1.41437  7.3423  4.41971  1.0e-5  -0.002049  0.001714
In  1.41437  4.41971  7.3423  1.0e-5  0.001714  -0.002049
In  7.3423  1.41437  4.41971  -0.002049  1.0e-5  0.001714
In  4.41971  1.41437  7.3423  0.001714  1.0e-5  -0.002049
In  7.3423  4.41971  1.41437  -0.002049  0.001714  1.0e-5
In  4.41971  7.3423  1.41437  0.001714  -0.002049  1.0e-5
In  10.24825  4.39351  4.39351  -0.001586  -0.002138  -0.002138
In  4.39351  10.24825  4.39351  -0.002138  -0.001586  -0.002138
In  4.39351  4.39351  10.24825  -0.002138  -0.002138  -0.001586
In  1.46922  1.46922  4.41959  -0.001461  -0.001461  -0.008086
In  1.46922  4.41959  1.46922  -0.001461  -0.008086  -0.001461
In  4.41959  1.46922  1.46922  -0.008086  -0.001461  -0.001461
In  4.38959  4.38959  4.38959  -0.002338  -0.002338  -0.002338
P  11.57761  11.57761  8.99053  0.000158  0.000158  -0.007509
P  11.57761  8.99053  11.57761  0.000158  -0.007509  0.000158
P  8.99053  11.57761  11.57761  -0.007509  0.000158  0.000158
P  11.64099  8.78932  5.94278  0.001552  0.002021  -0.002082
P  11.64099  5.94278  8.78932  0.001552  -0.002082  0.002021
P  8.78932  11.64099  5.94278  0.002021  0.001552  -0.002082
P  8.78932  5.94278  11.64099  0.002021  -0.002082  0.001552
P  5.94278  11.64099  8.78932  -0.002082  0.001552  0.002021
P  5.94278  8.78932  11.64099  -0.002082  0.002021  0.001552
P  8.74803  5.85219  5.85219  0.002269  0.000158  0.000158
P  5.85219  8.74803  5.85219  0.000158  0.002269  0.000158
P  5.85219  5.85219  8.74803  0.000158  0.000158  0.002269
P  2.92127  8.79194  8.79194  -0.004081  0.003144  0.003144
P  8.79194  2.92127  8.79194  0.003144  -0.004081  0.003144
P  8.79194  8.79194  2.92127  0.003144  0.003144  -0.004081
P  2.94138  0.01383  0.01383  0.003223  0.001935  0.001935
P  0.01383  2.94138  0.01383  0.001935  0.003223  0.001935
P  0.01383  0.01383  2.94138  0.001935  0.001935  0.003223
P  2.91102  11.68555  5.89019  -0.002317  0.003416  -0.000895
P  11.68555  2.91102  5.89019  0.003416  -0.002317  -0.000895
P  2.91102  5.89019  11.68555  -0.002317  -0.000895  0.003416
P  11.68555  5.89019  2.91102  0.003416  -0.000895  -0.002317
P  5.89019  2.91102  11.68555  -0.000895  -0.002317  0.003416
P  5.89019  11.68555  2.91102  -0.000895  0.003416  -0.002317
P  2.89694  5.84837  5.84837  0.003795  -0.001189  -0.001189
P  5.84837  2.89694  5.84837  -0.001189  0.003795  -0.001189
P  5.84837  5.84837  2.89694  -0.001189  -0.001189  0.003795
P  2.92025  2.92025  8.77869  0.001632  0.001632  0.008725
P  2.92025  8.77869  2.92025  0.001632  0.008725  0.001632
P  8.77869  2.92025  2.92025  0.008725  0.001632  0.001632
P  2.92861  2.92861  2.92861  0.002277  0.002277  0.002277
62
Lattice="11.70751661 0.0 0.0 0.0 11.70751661 0.0 0.0 0.0 11.70751661" Properties=species:S:1:pos:R:3:forces:R:3 energy=-295.05389201 stress="-21.86913 3.4544 3.4544 3.4544 -21.86913 3.4544 3.4544 3.4544 -21.86913" pbc="T T T"
In  10.02941  7.41236  7.41236  0.005381  0.00269  0.00269
In  7.41236  10.02941  7.41236  0.00269  0.005381  0.00269
In  7.41236  7.41236  10.02941  0.00269  0.00269  0.005381
In  1.38554  10.29272  7.42163  -0.000709  -0.000447  -0.002041
In  1.38554  7.42163  10.29272  -0.000709  -0.002041  -0.000447
In  10.29272  1.38554  7.42163  -0.000447  -0.000709  -0.002041
In  10.29272  7.42163  1.38554  -0.000447  -0.002041  -0.000709
In  7.42163  1.38554  10.29272  -0.002041  -0.000709  -0.000447
In  7.42163  10.29272  1.38554  -0.002041  -0.000447  -0.000709
In  10.2537  10.2537  4.40157  0.000269  0.000269  -0.000724
In  10.2537  4.40157  10.2537  0.000269  -0.000724  0.000269
In  4.40157  10.2537  10.2537  -0.000724  0.000269  0.000269
In  7.31211  7.31211  4.35507  0.000406  0.000406  0.001055
In  7.31211  4.35507  7.31211  0.000406  0.001055  0.000406
In  4.35507  7.31211  7.31211  0.001055  0.000406  0.000406
In  1.41997  1.41997  10.22449  -0.000369  -0.000369  -0.000791
In  1.41997  10.22449  1.41997  -0.000369  -0.000791  -0.000369
In  10.22449  1.41997  1.41997  -0.000791  -0.000369  -0.000369
In  1.41493  7.3421  4.41984  -0.001264  -0.001508  0.000643
In  1.41493  4.41984  7.3421  -0.001264  0.000643  -0.001508
In  7.3421  1.41493  4.41984  -0.001508  -0.001264  0.000643
In  4.41984  1.41493  7.3421  0.000643  -0.001264  -0.001508
In  7.3421  4.41984  1.41493  -0.001508  0.000643  -0.001264
In  4.41984  7.3421  1.41493  0.000643  -0.001508  -0.001264
In  10.24853  4.39362  4.39362  -0.000387  -0.001217  -0.001217
In  4.39362  10.24853  4.39362  -0.001217  -0.000387  -0.001217
In  4.39362  4.39362  10.24853  -0.001217  -0.001217  -0.000387