8
Lattice="5.85 5.8511 0.143421197 0.0 5.85 0.687108912 0.0 0.0 5.85" Properties=species:S:1:pos:R:3:forces:R:3 energy=-17.80095971 stress="604.24409 1.57599 162.16414 1.57599 -49.76964 -11.23143 162.16414 -11.23143 484.30139" pbc="T T T"
In  0.0  0.0  0.0  -5.001702  0.053334  -11.266622
In  2.925  2.92555  2.99671  -5.001702  0.053334  -11.266622
In  0.0  2.925  3.26855  -5.001702  0.053334  -11.266622
In  2.925  5.85055  0.41527  -5.001702  0.053334  -11.266622
P  1.4625  2.92528  4.59513  5.001702  -0.053334  11.266622
P  4.3875  5.85082  1.74184  5.001702  -0.053334  11.266622
P  1.4625  5.85027  2.01369  5.001702  -0.053334  11.266622
P  4.3875  8.77582  5.0104  5.001702  -0.053334  11.266622
8
Lattice="5.85 5.8511 0.378650316 0.0 5.85 0.54397952 0.0 0.0 5.85" Properties=species:S:1:pos:R:3:forces:R:3 energy=-18.68039145 stress="567.82953 0.48856 48.918 0.48856 -50.19536 -7.36953 48.918 -7.36953 480.22975" pbc="T T T"
In  0.0  0.0  0.0  -1.498578  0.032541  -10.896329
In  2.925  2.92555  3.11433  -1.498578  0.032541  -10.896329
In  0.0  2.925  3.19699  -1.498578  0.032541  -10.896329
In  2.925  5.85055  0.46131  -1.498578  0.032541  -10.896329
P  1.4625  2.92528  4.61816  1.498578  -0.032541  10.896329
P  4.3875  5.85082  1.88248  1.498578  -0.032541  10.896329
P  1.4625  5.85027  1.96515  1.498578  -0.032541  10.896329
P  4.3875  8.77582  5.07947  1.498578  -0.032541  10.896329
8
Lattice="5.85 5.8511 0.49106365 0.0 5.85 0.37656306 0.0 0.0 5.85" Properties=species:S:1:pos:R:3:forces:R:3 energy=-18.74847294 stress="567.18743 -0.06981 -33.71278 -0.06981 -51.69193 -5.14927 -33.71278 -5.14927 478.84838" pbc="T T T"
In  0.0  0.0  0.0  1.036124  0.02564  -10.865257
In  2.925  2.92555  3.17053  1.036124  0.02564  -10.865257
In  0.0  2.925  3.11328  1.036124  0.02564  -10.865257
In  2.925  5.85055  0.43381  1.036124  0.02564  -10.865257
P  1.4625  2.92528  4.60441  -1.036124  -0.02564  10.865257
P  4.3875  5.85082  1.92494  -1.036124  -0.02564  10.865257
P  1.4625  5.85027  1.86769  -1.036124  -0.02564  10.865257
P  4.3875  8.77582  5.03822  -1.036124  -0.02564  10.865257
8
Lattice="5.85 5.8511 0.396062038 0.0 5.85 0.178417331 0.0 0.0 5.85" Properties=species:S:1:pos:R:3:forces:R:3 energy=-18.66050137 stress="572.98635 -0.08213 -63.95697 -0.08213 -53.06257 -2.66026 -63.95697 -2.66026 478.24224" pbc="T T T"
In  0.0  0.0  0.0  1.972023  0.014845  -10.906473
In  2.925  2.92555  3.12303  1.972023  0.014845  -10.906473
In  0.0  2.925  3.01421  1.972023  0.014845  -10.906473
In  2.925  5.85055  0.28724  1.972023  0.014845  -10.906473
P  1.4625  2.92528  4.53112  -1.972023  -0.014845  10.906473
P  4.3875  5.85082  1.80415  -1.972023  -0.014845  10.906473
P  1.4625  5.85027  1.69533  -1.972023  -0.014845  10.906473
P  4.3875  8.77582  4.81836  -1.972023  -0.014845  10.906473
8
Lattice="5.85 5.8511 0.637253448 0.0 5.85 0.04847952 0.0 0.0 5.85" Properties=species:S:1:pos:R:3:forces:R:3 energy=-17.72226746 stress="615.86193 -0.01174 -174.07785 -0.01174 -55.32225 -0.82696 -174.07785 -0.82696 481.18721" pbc="T T T"
In  0.0  0.0  0.0  5.424132  0.004458  -11.318226
In  2.925  2.92555  3.24363  5.424132  0.004458  -11.318226
In  0.0  2.925  2.94924  5.424132  0.004458  -11.318226
In  2.925  5.85055  0.34287  5.424132  0.004458  -11.318226
P  1.4625  2.92528  4.55893  -5.424132  -0.004458  11.318226
P  4.3875  5.85082  1.95256  -5.424132  -0.004458  11.318226
P  1.4625  5.85027  1.65817  -5.424132  -0.004458  11.318226
P  4.3875  8.77582  4.9018  -5.424132  -0.004458  11.318226
8
Lattice="5.85 5.8511 0.184259034 0.0 5.85 0.418160549 0.0 0.0 5.85" Properties=species:S:1:pos:R:3:forces:R:3 energy=-18.61280191 stress="572.74751 0.59732 69.00301 0.59732 -51.61091 -5.77227 69.00301 -5.77227 479.56982" pbc="T T T"
In  0.0  0.0  0.0  -2.121685  0.027297  -10.924386
In  2.925  2.92555  3.01713  -2.121685  0.027297  -10.924386
In  0.0  2.925  3.13408  -2.121685  0.027297  -10.924386
In  2.925  5.85055  0.30121  -2.121685  0.027297  -10.924386
P  1.4625  2.92528  4.5381  2.121685  -0.027297  10.924386
P  4.3875  5.85082  1.70523  2.121685  -0.027297  10.924386
P  1.4625  5.85027  1.82219  2.121685  -0.027297  10.924386
P  4.3875  8.77582  4.83931  2.121685  -0.027297  10.924386
8
Lattice="5.85 5.8511 0.242705684 0.0 5.85 0.316548394 0.0 0.0 5.85" Properties=species:S:1:pos:R:3:forces:R:3 energy=-18.77926611 stress="566.5123 0.26197 21.71362 0.26197 -52.08154 -4.36333 21.71362 -4.36333 478.39569" pbc="T T T"
In  0.0  0.0  0.0  -0.667863  0.022615  -10.851923
In  2.925  2.92555  3.04635  -0.667863  0.022615  -10.851923
In  0.0  2.925  3.08327  -0.667863  0.022615  -10.851923
In  2.925  5.85055  0.27963  -0.667863  0.022615  -10.851923
P  1.4625  2.92528  4.52731  0.667863  -0.022615  10.851923
P  4.3875  5.85082  1.72367  0.667863  -0.022615  10.851923
P  1.4625  5.85027  1.76059  0.667863  -0.022615  10.851923
P  4.3875  8.77582  4.80694  0.667863  -0.022615  10.851923
8
Lattice="5.85 5.8511 0.083006589 0.0 5.85 0.13905345 0.0 0.0 5.85" Properties=species:S:1:pos:R:3:forces:R:3 energy=-18.80113601 stress="566.90763 0.18563 16.44363 0.18563 -52.8431 -2.04241 16.44363 -2.04241 477.54903" pbc="T T T"
In  0.0  0.0  0.0  -0.506597  0.01145  -10.84373
In  2.925  2.92555  2.9665  -0.506597  0.01145  -10.84373
In  0.0  2.925  2.99453  -0.506597  0.01145  -10.84373
In  2.925  5.85055  0.11103  -0.506597  0.01145  -10.84373
P  1.4625  2.92528  4.44302  0.506597  -0.01145  10.84373
P  4.3875  5.85082  1.55952  0.506597  -0.01145  10.84373
P  1.4625  5.85027  1.58754  0.506597  -0.01145  10.84373
P  4.3875  8.77582  4.55405  0.506597  -0.01145  10.84373
8
Lattice="5.85 5.8511 0.304302103 0.0 5.85 0.543588324 0.0 0.0 5.85" Properties=species:S:1:pos:R:3:forces:R:3 energy=-18.58622087 stress="572.03562 0.65647 70.84108 0.65647 -50.37763 -7.51328 70.84108 -7.51328 480.54641" pbc="T T T"
In  0.0  0.0  0.0  -2.172167  0.033448  -10.93672
In  2.925  2.92555  3.07715  -2.172167  0.033448  -10.93672
In  0.0  2.925  3.19679  -2.172167  0.033448  -10.93672
In  2.925  5.85055  0.42395  -2.172167  0.033448  -10.93672
P  1.4625  2.92528  4.59947  2.172167  -0.033448  10.93672
P  4.3875  5.85082  1.82662  2.172167  -0.033448  10.93672
P  1.4625  5.85027  1.94627  2.172167  -0.033448  10.93672
P  4.3875  8.77582  5.02342  2.172167  -0.033448  10.93672
8
Lattice="5.85 5.8511 0.43025536 0.0 5.85 0.424927281 0.0 0.0 5.85" Properties=species:S:1:pos:R:3:forces:R:3 energy=-18.78332932 stress="564.99516 0.13222 -1.57382 0.13222 -51.20563 -5.68311 -1.57382 -5.68311 479.03802" pbc="T T T"
In  0.0  0.0  0.0  0.04813  0.027128  -10.850144
In  2.925  2.92555  3.14013  0.04813  0.027128  -10.850144
In  0.0  2.925  3.13746  0.04813  0.027128  -10.850144
In  2.925  5.85055  0.42759  0.04813  0.027128  -10.850144
P  1.4625  2.92528  4.6013  -0.04813  -0.027128  10.850144
P  4.3875  5.85082  1.89142  -0.04813  -0.027128  10.850144
P  1.4625  5.85027  1.88876  -0.04813  -0.027128  10.850144
P  4.3875  8.77582  5.02889  -0.04813  -0.027128  10.850144
8
Lattice="5.85 5.8511 0.491474885 0.0 5.85 0.131066829 0.0 0.0 5.85" Properties=species:S:1:pos:R:3:forces:R:3 energy=-18.40404938 stress="584.71819 -0.12093 -106.14936 -0.12093 -53.78539 -2.05125 -106.14936 -2.05125 479.11543" pbc="T T T"
In  0.0  0.0  0.0  3.280134  0.011311  -11.021137
In  2.925  2.92555  3.17074  3.280134  0.011311  -11.021137
In  0.0  2.925  2.99053  3.280134  0.011311  -11.021137
In  2.925  5.85055  0.31127  3.280134  0.011311  -11.021137
P  1.4625  2.92528  4.54314  -3.280134  -0.011311  11.021137
P  4.3875  5.85082  1.86387  -3.280134  -0.011311  11.021137
P  1.4625  5.85027  1.68367  -3.280134  -0.011311  11.021137
P  4.3875  8.77582  4.85441  -3.280134  -0.011311  11.021137
8
Lattice="5.85 5.8511 0.143196605 0.0 5.85 0.275920282 0.0 0.0 5.85" Properties=species:S:1:pos:R:3:forces:R:3 energy=-18.74540916 stress="568.44074 0.33794 39.01398 0.33794 -52.41546 -3.87998 39.01398 -3.87998 478.30461" pbc="T T T"
In  0.0  0.0  0.0  -1.201022  0.020486  -10.867285
In  2.925  2.92555  2.9966  -1.201022  0.020486  -10.867285
In  0.0  2.925  3.06296  -1.201022  0.020486  -10.867285
In  2.925  5.85055  0.20956  -1.201022  0.020486  -10.867285
P  1.4625  2.92528  4.49228  1.201022  -0.020486  10.867285
P  4.3875  5.85082  1.63888  1.201022  -0.020486  10.867285
P  1.4625  5.85027  1.70524  1.201022  -0.020486  10.867285
P  4.3875  8.77582  4.70184  1.201022  -0.020486  10.867285
8
Lattice="5.85 5.8511 0.400934489 0.0 5.85 0.254277887 0.0 0.0 5.85" Properties=species:S:1:pos:R:3:forces:R:3 energy=-18.73534983 stress="569.0983 -0.0649 -43.09399 -0.0649 -52.55451 -3.63762 -43.09399 -3.63762 478.24156" pbc="T T T"
In  0.0  0.0  0.0  1.327202  0.019655  -10.872041
In  2.925  2.92555  3.12547  1.327202  0.019655  -10.872041
In  0.0  2.925  3.05214  1.327202  0.019655  -10.872041
In  2.925  5.85055  0.32761  1.327202  0.019655  -10.872041
P  1.4625  2.92528  4.5513  -1.327202  -0.019655  10.872041
P  4.3875  5.85082  1.82677  -1.327202  -0.019655  10.872041
P  1.4625  5.85027  1.75344  -1.327202  -0.019655  10.872041
P  4.3875  8.77582  4.87891  -1.327202  -0.019655  10.872041
8
Lattice="5.85 5.8511 0.06228147 0.0 5.85 0.044791138 0.0 0.0 5.85" Properties=species:S:1:pos:R:3:forces:R:3 energy=-18.8134127 stress="566.61412 0.13367 -5.12383 0.13367 -52.95124 -0.66905 -5.12383 -0.66905 477.31637" pbc="T T T"
In  0.0  0.0  0.0  0.158063  0.003864  -10.838772
In  2.925  2.92555  2.95614  0.158063  0.003864  -10.838772
In  0.0  2.925  2.9474  0.158063  0.003864  -10.838772
In  2.925  5.85055  0.05354  0.158063  0.003864  -10.838772
P  1.4625  2.92528  4.41427  -0.158063  -0.003864  10.838772
P  4.3875  5.85082  1.52041  -0.158063  -0.003864  10.838772
P  1.4625  5.85027  1.51166  -0.158063  -0.003864  10.838772
P  4.3875  8.77582  4.4678  -0.158063  -0.003864  10.838772
8
Lattice="5.85 5.8511 0.690533414 0.0 5.85 0.344742581 0.0 0.0 5.85" Properties=species:S:1:pos:R:3:forces:R:3 energy=-18.41797991 stress="582.52536 -0.46842 -102.01977 -0.46842 -52.63377 -5.0535 -102.01977 -5.0535 479.78657" pbc="T T T"
In  0.0  0.0  0.0  3.146416  0.024932  -11.009981
In  2.925  2.92555  3.27027  3.146416  0.024932  -11.009981
In  0.0  2.925  3.09737  3.146416  0.024932  -11.009981
In  2.925  5.85055  0.51764  3.146416  0.024932  -11.009981
P  1.4625  2.92528  4.64632  -3.146416  -0.024932  11.009981
P  4.3875  5.85082  2.06659  -3.146416  -0.024932  11.009981
P  1.4625  5.85027  1.89369  -3.146416  -0.024932  11.009981
P  4.3875  8.77582  5.16396  -3.146416  -0.024932  11.009981
8
Lattice="5.85 5.8511 0.618399219 0.0 5.85 0.329963075 0.0 0.0 5.85" Properties=species:S:1:pos:R:3:forces:R:3 energy=-18.53413003 stress="577.41775 -0.34952 -85.01092 -0.34952 -52.50672 -4.77028 -85.01092 -4.77028 479.32719" pbc="T T T"
In  0.0  0.0  0.0  2.61929  0.024101  -10.959617
In  2.925  2.92555  3.2342  2.61929  0.024101  -10.959617
In  0.0  2.925  3.08998  2.61929  0.024101  -10.959617
In  2.925  5.85055  0.47418  2.61929  0.024101  -10.959617
P  1.4625  2.92528  4.62459  -2.61929  -0.024101  10.959617
P  4.3875  5.85082  2.00879  -2.61929  -0.024101  10.959617
P  1.4625  5.85027  1.86457  -2.61929  -0.024101  10.959617
P  4.3875  8.77582  5.09877  -2.61929  -0.024101  10.959617
8
Lattice="5.85 5.8511 0.359048536 0.0 5.85 0.53669505 0.0 0.0 5.85" Properties=species:S:1:pos:R:3:forces:R:3 energy=-18.66826987 stress="568.48606 0.51503 52.55412 0.51503 -50.29954 -7.28706 52.55412 -7.28706 480.21504" pbc="T T T"
In  0.0  0.0  0.0  -1.610499  0.032311  -10.901402
In  2.925  2.92555  3.10452  -1.610499  0.032311  -10.901402
In  0.0  2.925  3.19335  -1.610499  0.032311  -10.901402
In  2.925  5.85055  0.44787  -1.610499  0.032311  -10.901402
P  1.4625  2.92528  4.61144  1.610499  -0.032311  10.901402
P  4.3875  5.85082  1.86596  1.610499  -0.032311  10.901402
P  1.4625  5.85027  1.95478  1.610499  -0.032311  10.901402
P  4.3875  8.77582  5.05931  1.610499  -0.032311  10.901402
8
Lattice="5.85 5.8511 0.26411141 0.0 5.85 0.006194499 0.0 0.0 5.85" Properties=species:S:1:pos:R:3:forces:R:3 energy=-18.60668646 stress="575.81549 0.13413 -75.79172 0.13413 -53.47146 -0.09704 -75.79172 -0.09704 478.19217" pbc="T T T"
In  0.0  0.0  0.0  2.339077  0.000894  -10.932208
In  2.925  2.92555  3.05706  2.339077  0.000894  -10.932208
In  0.0  2.925  2.9281  2.339077  0.000894  -10.932208
In  2.925  5.85055  0.13515  2.339077  0.000894  -10.932208
P  1.4625  2.92528  4.45508  -2.339077  -0.000894  10.932208
P  4.3875  5.85082  1.66213  -2.339077  -0.000894  10.932208
P  1.4625  5.85027  1.53317  -2.339077  -0.000894  10.932208
P  4.3875  8.77582  4.59023  -2.339077  -0.000894  10.932208
8
Lattice="5.85 5.8511 0.223468784 0.0 5.85 0.283224105 0.0 0.0 5.85" Properties=species:S:1:pos:R:3:forces:R:3 energy=-18.78856529 stress="566.44711 0.23103 17.56276 0.23103 -52.27106 -3.94715 17.56276 -3.94715 478.1891" pbc="T T T"
In  0.0  0.0  0.0  -0.540345  0.020931  -10.84803
In  2.925  2.92555  3.03673  -0.540345  0.020931  -10.84803
In  0.0  2.925  3.06661  -0.540345  0.020931  -10.84803
In  2.925  5.85055  0.25335  -0.540345  0.020931  -10.84803
P  1.4625  2.92528  4.51417  0.540345  -0.020931  10.84803
P  4.3875  5.85082  1.70091  0.540345  -0.020931  10.84803
P  1.4625  5.85027  1.73079  0.540345  -0.020931  10.84803
P  4.3875  8.77582  4.76752  0.540345  -0.020931  10.84803
8
Lattice="5.85 5.8511 0.538643745 0.0 5.85 0.589151282 0.0 0.0 5.85" Properties=species:S:1:pos:R:3:forces:R:3 energy=-18.75078927 stress="563.97382 0.24403 14.95726 0.24403 -49.53731 -7.8847 14.95726 -7.8847 480.36991" pbc="T T T"
In  0.0  0.0  0.0  -0.457437  0.033934  -10.867176
In  2.925  2.92555  3.19432  -0.457437  0.033934  -10.867176
In  0.0  2.925  3.21958  -0.457437  0.033934  -10.867176
In  2.925  5.85055  0.5639  -0.457437  0.033934  -10.867176
P  1.4625  2.92528  4.66945  0.457437  -0.033934  10.867176
P  4.3875  5.85082  2.01377  0.457437  -0.033934  10.867176
P  1.4625  5.85027  2.03902  0.457437  -0.033934  10.867176
P  4.3875  8.77582  5.23335  0.457437  -0.033934  10.867176
8
Lattice="5.85 5.8511 0.605328887 0.0 5.85 0.00957736 0.0 0.0 5.85" Properties=species:S:1:pos:R:3:forces:R:3 energy=-17.6965478 stress="617.05776 0.11256 -176.15495 0.11256 -55.38683 -0.18794 -176.15495 -0.18794 481.2556" pbc="T T T"
In  0.0  0.0  0.0  5.491001  0.001581  -11.32948
In  2.925  2.92555  3.22766  5.491001  0.001581  -11.32948
In  0.0  2.925  2.92979  5.491001  0.001581  -11.32948
In  2.925  5.85055  0.30745  5.491001  0.001581  -11.32948
P  1.4625  2.92528  4.54123  -5.491001  -0.001581  11.32948
P  4.3875  5.85082  1.91889  -5.491001  -0.001581  11.32948
P  1.4625  5.85027  1.62102  -5.491001  -0.001581  11.32948
P  4.3875  8.77582  4.84868  -5.491001  -0.001581  11.32948
8
Lattice="5.85 5.8511 0.200759262 0.0 5.85 0.192107478 0.0 0.0 5.85" Properties=species:S:1:pos:R:3:forces:R:3 energy=-18.80734294 stress="566.3571 0.12849 -2.5306 0.12849 -52.66802 -2.76624 -2.5306 -2.76624 477.70341" pbc="T T T"
In  0.0  0.0  0.0  0.078101  0.015412  -10.840504
In  2.925  2.92555  3.02538  0.078101  0.015412  -10.840504
In  0.0  2.925  3.02105  0.078101  0.015412  -10.840504
In  2.925  5.85055  0.19643  0.078101  0.015412  -10.840504
P  1.4625  2.92528  4.48572  -0.078101  -0.015412  10.840504
P  4.3875  5.85082  1.6611  -0.078101  -0.015412  10.840504
P  1.4625  5.85027  1.65677  -0.078101  -0.015412  10.840504
P  4.3875  8.77582  4.68215  -0.078101  -0.015412  10.840504
8
Lattice="5.85 5.8511 0.151095697 0.0 5.85 0.476266616 0.0 0.0 5.85" Properties=species:S:1:pos:R:3:forces:R:3 energy=-18.44403239 stress="579.5162 0.83372 96.15571 0.83372 -51.37489 -6.74279 96.15571 -6.74279 480.51974" pbc="T T T"
In  0.0  0.0  0.0  -2.958099  0.030661  -10.997185
In  2.925  2.92555  3.00055  -2.958099  0.030661  -10.997185
In  0.0  2.925  3.16313  -2.958099  0.030661  -10.997185
In  2.925  5.85055  0.31368  -2.958099  0.030661  -10.997185
P  1.4625  2.92528  4.54434  2.958099  -0.030661  10.997185
P  4.3875  5.85082  1.69489  2.958099  -0.030661  10.997185
P  1.4625  5.85027  1.85747  2.958099  -0.030661  10.997185
P  4.3875  8.77582  4.85802  2.958099  -0.030661  10.997185
8
Lattice="5.85 5.8511 0.561867624 0.0 5.85 0.594316576 0.0 0.0 5.85" Properties=species:S:1:pos:R:3:forces:R:3 energy=-18.75459744 stress="563.71989 0.20798 9.60744 0.20798 -49.46394 -7.95291 9.60744 -7.95291 480.40335" pbc="T T T"
In  0.0  0.0  0.0  -0.29391  0.034143  -10.865666
In  2.925  2.92555  3.20593  -0.29391  0.034143  -10.865666
In  0.0  2.925  3.22216  -0.29391  0.034143  -10.865666
In  2.925  5.85055  0.57809  -0.29391  0.034143  -10.865666
P  1.4625  2.92528  4.67655  0.29391  -0.034143  10.865666
P  4.3875  5.85082  2.03248  0.29391  -0.034143  10.865666
P  1.4625  5.85027  2.0487  0.29391  -0.034143  10.865666
P  4.3875  8.77582  5.25464  0.29391  -0.034143  10.865666
8
Lattice="5.85 5.8511 0.266917006 0.0 5.85 0.210514657 0.0 0.0 5.85" Properties=species:S:1:pos:R:3:forces:R:3 energy=-18.79627044 stress="566.72629 0.07006 -16.54689 0.07006 -52.62409 -3.02034 -16.54689 -3.02034 477.8211" pbc="T T T"
In  0.0  0.0  0.0  0.509828  0.016737  -10.845318
In  2.925  2.92555  3.05846  0.509828  0.016737  -10.845318
In  0.0  2.925  3.03026  0.509828  0.016737  -10.845318
In  2.925  5.85055  0.23872  0.509828  0.016737  -10.845318
P  1.4625  2.92528  4.50686  -0.509828  -0.016737  10.845318
P  4.3875  5.85082  1.71532  -0.509828  -0.016737  10.845318
P  1.4625  5.85027  1.68712  -0.509828  -0.016737  10.845318
P  4.3875  8.77582  4.74557  -0.509828  -0.016737  10.845318
8
Lattice="5.85 5.8511 0.654531592 0.0 5.85 0.413874056 0.0 0.0 5.85" Properties=species:S:1:pos:R:3:forces:R:3 energy=-18.60324612 stress="573.23805 -0.33269 -71.0028 -0.33269 -51.6701 -5.78516 -71.0028 -5.78516 479.56317" pbc="T T T"
In  0.0  0.0  0.0  2.183183  0.027851  -10.928563
In  2.925  2.92555  3.25227  2.183183  0.027851  -10.928563
In  0.0  2.925  3.13194  2.183183  0.027851  -10.928563
In  2.925  5.85055  0.5342  2.183183  0.027851  -10.928563
P  1.4625  2.92528  4.6546  -2.183183  -0.027851  10.928563
P  4.3875  5.85082  2.05687  -2.183183  -0.027851  10.928563
P  1.4625  5.85027  1.93654  -2.183183  -0.027851  10.928563
P  4.3875  8.77582  5.1888  -2.183183  -0.027851  10.928563
8
Lattice="5.85 5.8511 0.197445217 0.0 5.85 0.281248227 0.0 0.0 5.85" Properties=species:S:1:pos:R:3:forces:R:3 energy=-18.77797969 stress="566.93755 0.26747 24.62996 0.26747 -52.30646 -3.92811 24.62996 -3.92811 478.21769" pbc="T T T"
In  0.0  0.0  0.0  -0.75793  0.02081  -10.852756
In  2.925  2.92555  3.02372  -0.75793  0.02081  -10.852756
In  0.0  2.925  3.06562  -0.75793  0.02081  -10.852756
In  2.925  5.85055  0.23935  -0.75793  0.02081  -10.852756
P  1.4625  2.92528  4.50717  0.75793  -0.02081  10.852756
P  4.3875  5.85082  1.6809  0.75793  -0.02081  10.852756
P  1.4625  5.85027  1.7228  0.75793  -0.02081  10.852756
P  4.3875  8.77582  4.74652  0.75793  -0.02081  10.852756
8
Lattice="5.85 5.8511 0.630570605 0.0 5.85 0.117872566 0.0 0.0 5.85" Properties=species:S:1:pos:R:3:forces:R:3 energy=-17.98503897 stress="603.74743 -0.18434 -151.41553 -0.18434 -54.69893 -1.9251 -151.41553 -1.9251 480.46277" pbc="T T T"
In  0.0  0.0  0.0  4.700984  0.009916  -11.20415
In  2.925  2.92555  3.24029  4.700984  0.009916  -11.20415
In  0.0  2.925  2.98394  4.700984  0.009916  -11.20415
In  2.925  5.85055  0.37422  4.700984  0.009916  -11.20415
P  1.4625  2.92528  4.57461  -4.700984  -0.009916  11.20415
P  4.3875  5.85082  1.9649  -4.700984  -0.009916  11.20415
P  1.4625  5.85027  1.70855  -4.700984  -0.009916  11.20415
P  4.3875  8.77582  4.94883  -4.700984  -0.009916  11.20415
8
Lattice="5.85 5.8511 0.294284391 0.0 5.85 0.640498465 0.0 0.0 5.85" Properties=species:S:1:pos:R:3:forces:R:3 energy=-18.37037378 stress="579.88467 0.9358 102.95628 0.9358 -49.54935 -9.39131 102.95628 -9.39131 482.1016" pbc="T T T"
In  0.0  0.0  0.0  -3.154678  0.042227  -11.029483
In  2.925  2.92555  3.07214  -3.154678  0.042227  -11.029483
In  0.0  2.925  3.24525  -3.154678  0.042227  -11.029483
In  2.925  5.85055  0.46739  -3.154678  0.042227  -11.029483
P  1.4625  2.92528  4.6212  3.154678  -0.042227  11.029483
P  4.3875  5.85082  1.84334  3.154678  -0.042227  11.029483
P  1.4625  5.85027  2.01644  3.154678  -0.042227  11.029483
P  4.3875  8.77582  5.08859  3.154678  -0.042227  11.029483
8
Lattice="5.85 5.8511 0.072744832 0.0 5.85 0.585299744 0.0 0.0 5.85" Properties=species:S:1:pos:R:3:forces:R:3 energy=-17.92840077 stress="600.71998 1.43351 152.32328 1.43351 -51.01244 -9.16885 152.32328 -9.16885 483.02769" pbc="T T T"
In  0.0  0.0  0.0  -4.70441  0.042228  -11.215442
In  2.925  2.92555  2.96137  -4.70441  0.042228  -11.215442
In  0.0  2.925  3.21765  -4.70441  0.042228  -11.215442
In  2.925  5.85055  0.32902  -4.70441  0.042228  -11.215442
P  1.4625  2.92528  4.55201  4.70441  -0.042228  11.215442
P  4.3875  5.85082  1.66338  4.70441  -0.042228  11.215442
P  1.4625  5.85027  1.91966  4.70441  -0.042228  11.215442
P  4.3875  8.77582  4.88103  4.70441  -0.042228  11.215442
8
Lattice="5.85 5.8511 0.437519315 0.0 5.85 0.568245688 0.0 0.0 5.85" Properties=species:S:1:pos:R:3:forces:R:3 energy=-18.70860148 stress="566.18315 0.41373 38.70351 0.41373 -49.86437 -7.66315 38.70351 -7.66315 480.33471" pbc="T T T"
In  0.0  0.0  0.0  -1.184524  0.033409  -10.88471
In  2.925  2.92555  3.14376  -1.184524  0.033409  -10.88471
In  0.0  2.925  3.20912  -1.184524  0.033409  -10.88471
In  2.925  5.85055  0.50288  -1.184524  0.033409  -10.88471
P  1.4625  2.92528  4.63894  1.184524  -0.033409  10.88471
P  4.3875  5.85082  1.9327  1.184524  -0.033409  10.88471
P  1.4625  5.85027  1.99806  1.184524  -0.033409  10.88471
P  4.3875  8.77582  5.14182  1.184524  -0.033409  10.88471
8
Lattice="5.85 5.8511 0.653734504 0.0 5.85 0.425555758 0.0 0.0 5.85" Properties=species:S:1:pos:R:3:forces:R:3 energy=-18.62007006 stress="572.31687 -0.31431 -67.33165 -0.31431 -51.52903 -5.91508 -67.33165 -5.91508 479.58056" pbc="T T T"
In  0.0  0.0  0.0  2.069436  0.028288  -10.921228
In  2.925  2.92555  3.25187  2.069436  0.028288  -10.921228
In  0.0  2.925  3.13778  2.069436  0.028288  -10.921228
In  2.925  5.85055  0.53965  2.069436  0.028288  -10.921228
P  1.4625  2.92528  4.65732  -2.069436  -0.028288  10.921228
P  4.3875  5.85082  2.05919  -2.069436  -0.028288  10.921228
P  1.4625  5.85027  1.9451  -2.069436  -0.028288  10.921228
P  4.3875  8.77582  5.19697  -2.069436  -0.028288  10.921228
8
Lattice="5.85 5.8511 0.260214891 0.0 5.85 0.188527623 0.0 0.0 5.85" Properties=species:S:1:pos:R:3:forces:R:3 energy=-18.79181491 stress="567.07103 0.05897 -21.02842 0.05897 -52.7177 -2.72948 -21.02842 -2.72948 477.75105" pbc="T T T"
In  0.0  0.0  0.0  0.648053  0.015269  -10.84754
In  2.925  2.92555  3.05511  0.648053  0.015269  -10.84754
In  0.0  2.925  3.01926  0.648053  0.015269  -10.84754
In  2.925  5.85055  0.22437  0.648053  0.015269  -10.84754
P  1.4625  2.92528  4.49969  -0.648053  -0.015269  10.84754
P  4.3875  5.85082  1.70479  -0.648053  -0.015269  10.84754
P  1.4625  5.85027  1.66895  -0.648053  -0.015269  10.84754
P  4.3875  8.77582  4.72406  -0.648053  -0.015269  10.84754
8
Lattice="5.85 5.8511 0.67674239 0.0 5.85 0.022943691 0.0 0.0 5.85" Properties=species:S:1:pos:R:3:forces:R:3 energy=-17.46686581 stress="627.6805 0.06078 -193.48996 0.06078 -55.82395 -0.41775 -193.48996 -0.41775 481.8798" pbc="T T T"
In  0.0  0.0  0.0  6.050837  0.002595  -11.427111
In  2.925  2.92555  3.26337  6.050837  0.002595  -11.427111
In  0.0  2.925  2.93647  6.050837  0.002595  -11.427111
In  2.925  5.85055  0.34984  6.050837  0.002595  -11.427111
P  1.4625  2.92528  4.56242  -6.050837  -0.002595  11.427111
P  4.3875  5.85082  1.97579  -6.050837  -0.002595  11.427111
P  1.4625  5.85027  1.64889  -6.050837  -0.002595  11.427111
P  4.3875  8.77582  4.91226  -6.050837  -0.002595  11.427111
8
Lattice="5.85 5.8511 0.516421328 0.0 5.85 0.117563184 0.0 0.0 5.85" Properties=species:S:1:pos:R:3:forces:R:3 energy=-18.31273123 stress="588.87836 -0.11662 -117.55323 -0.11662 -54.01716 -1.86532 -117.55323 -1.86532 479.4155" pbc="T T T"
In  0.0  0.0  0.0  3.635942  0.010228  -11.061544
In  2.925  2.92555  3.18321  3.635942  0.010228  -11.061544
In  0.0  2.925  2.98378  3.635942  0.010228  -11.061544
In  2.925  5.85055  0.31699  3.635942  0.010228  -11.061544
P  1.4625  2.92528  4.546  -3.635942  -0.010228  11.061544
P  4.3875  5.85082  1.87921  -3.635942  -0.010228  11.061544
P  1.4625  5.85027  1.67978  -3.635942  -0.010228  11.061544
P  4.3875  8.77582  4.86299  -3.635942  -0.010228  11.061544
8
Lattice="5.85 5.8511 0.439233735 0.0 5.85 0.246829964 0.0 0.0 5.85" Properties=species:S:1:pos:R:3:forces:R:3 energy=-18.68749049 stress="571.30629 -0.12128 -56.56257 -0.12128 -52.70049 -3.57571 -56.56257 -3.57571 478.39134" pbc="T T T"
In  0.0  0.0  0.0  1.74264  0.019307  -10.893433
In  2.925  2.92555  3.14462  1.74264  0.019307  -10.893433
In  0.0  2.925  3.04841  1.74264  0.019307  -10.893433
In  2.925  5.85055  0.34303  1.74264  0.019307  -10.893433
P  1.4625  2.92528  4.55902  -1.74264  -0.019307  10.893433
P  4.3875  5.85082  1.85363  -1.74264  -0.019307  10.893433
P  1.4625  5.85027  1.75743  -1.74264  -0.019307  10.893433
P  4.3875  8.77582  4.90205  -1.74264  -0.019307  10.893433
8
Lattice="5.85 5.8511 0.34354125 0.0 5.85 0.265276935 0.0 0.0 5.85" Properties=species:S:1:pos:R:3:forces:R:3 energy=-18.78234842 stress="566.90463 0.02528 -22.98421 0.02528 -52.38439 -3.74049 -22.98421 -3.74049 478.12358" pbc="T T T"
In  0.0  0.0  0.0  0.707679  0.020151  -10.850986
In  2.925  2.92555  3.09677  0.707679  0.020151  -10.850986
In  0.0  2.925  3.05764  0.707679  0.020151  -10.850986
In  2.925  5.85055  0.30441  0.707679  0.020151  -10.850986
P  1.4625  2.92528  4.5397  -0.707679  -0.020151  10.850986
P  4.3875  5.85082  1.78648  -0.707679  -0.020151  10.850986
P  1.4625  5.85027  1.74734  -0.707679  -0.020151  10.850986
P  4.3875  8.77582  4.84411  -0.707679  -0.020151  10.850986
8
Lattice="5.85 5.8511 0.028493473 0.0 5.85 0.274433667 0.0 0.0 5.85" Properties=species:S:1:pos:R:3:forces:R:3 energy=-18.61129142 stress="574.48211 0.50074 72.38346 0.50074 -52.71905 -3.94136 72.38346 -3.94136 478.79499" pbc="T T T"
In  0.0  0.0  0.0  -2.230463  0.020339  -10.926668
In  2.925  2.92555  2.93925  -2.230463  0.020339  -10.926668
In  0.0  2.925  3.06222  -2.230463  0.020339  -10.926668
In  2.925  5.85055  0.15146  -2.230463  0.020339  -10.926668
P  1.4625  2.92528  4.46323  2.230463  -0.020339  10.926668
P  4.3875  5.85082  1.55248  2.230463  -0.020339  10.926668
P  1.4625  5.85027  1.67545  2.230463  -0.020339  10.926668
P  4.3875  8.77582  4.6147  2.230463  -0.020339  10.926668
8
Lattice="5.85 5.8511 0.353926878 0.0 5.85 0.620895011 0.0 0.0 5.85" Properties=species:S:1:pos:R:3:forces:R:3 energy=-18.52820447 stress="573.26941 0.72834 79.28597 0.72834 -49.53794 -8.78007 79.28597 -8.78007 481.39571" pbc="T T T"
In  0.0  0.0  0.0  -2.426237  0.038755  -10.962604
In  2.925  2.92555  3.10196  -2.426237  0.038755  -10.962604
In  0.0  2.925  3.23545  -2.426237  0.038755  -10.962604
In  2.925  5.85055  0.48741  -2.426237  0.038755  -10.962604
P  1.4625  2.92528  4.63121  2.426237  -0.038755  10.962604
P  4.3875  5.85082  1.88317  2.426237  -0.038755  10.962604
P  1.4625  5.85027  2.01665  2.426237  -0.038755  10.962604
P  4.3875  8.77582  5.11862  2.426237  -0.038755  10.962604
8
Lattice="5.85 5.8511 0.352617596 0.0 5.85 0.409976477 0.0 0.0 5.85" Properties=species:S:1:pos:R:3:forces:R:3 energy=-18.77505826 stress="565.56336 0.25227 16.89315 0.25227 -51.35724 -5.50348 16.89315 -5.50348 478.96652" pbc="T T T"
In  0.0  0.0  0.0  -0.519  0.026542  -10.853672
In  2.925  2.92555  3.10131  -0.519  0.026542  -10.853672
In  0.0  2.925  3.12999  -0.519  0.026542  -10.853672
In  2.925  5.85055  0.3813  -0.519  0.026542  -10.853672
P  1.4625  2.92528  4.57815  0.519  -0.026542  10.853672
P  4.3875  5.85082  1.82946  0.519  -0.026542  10.853672
P  1.4625  5.85027  1.85814  0.519  -0.026542  10.853672
P  4.3875  8.77582  4.95945  0.519  -0.026542  10.853672
8
Lattice="5.85 5.8511 0.403825184 0.0 5.85 0.639115886 0.0 0.0 5.85" Properties=species:S:1:pos:R:3:forces:R:3 energy=-18.57500616 stress="570.86493 0.64809 69.91764 0.64809 -49.21491 -8.97232 69.91764 -8.97232 481.39288" pbc="T T T"
In  0.0  0.0  0.0  -2.136893  0.039214  -10.943047
In  2.925  2.92555  3.12691  -2.136893  0.039214  -10.943047
In  0.0  2.925  3.24456  -2.136893  0.039214  -10.943047
In  2.925  5.85055  0.52147  -2.136893  0.039214  -10.943047
P  1.4625  2.92528  4.64824  2.136893  -0.039214  10.943047
P  4.3875  5.85082  1.92515  2.136893  -0.039214  10.943047
P  1.4625  5.85027  2.04279  2.136893  -0.039214  10.943047
P  4.3875  8.77582  5.16971  2.136893  -0.039214  10.943047
8
Lattice="5.85 5.8511 0.335566845 0.0 5.85 0.592488947 0.0 0.0 5.85" Properties=species:S:1:pos:R:3:forces:R:3 energy=-18.55015461 stress="572.80518 0.70491 76.20986 0.70491 -49.86045 -8.30013 76.20986 -8.30013 481.07309" pbc="T T T"
In  0.0  0.0  0.0  -2.333919  0.036661  -10.952872
In  2.925  2.92555  3.09278  -2.333919  0.036661  -10.952872
In  0.0  2.925  3.22124  -2.333919  0.036661  -10.952872
In  2.925  5.85055  0.46403  -2.333919  0.036661  -10.952872
P  1.4625  2.92528  4.61951  2.333919  -0.036661  10.952872
P  4.3875  5.85082  1.8623  2.333919  -0.036661  10.952872
P  1.4625  5.85027  1.99076  2.333919  -0.036661  10.952872
P  4.3875  8.77582  5.08354  2.333919  -0.036661  10.952872
8
Lattice="5.85 5.8511 0.382119451 0.0 5.85 0.007353346 0.0 0.0 5.85" Properties=species:S:1:pos:R:3:forces:R:3 energy=-18.37420108 stress="586.2457 0.13209 -110.37407 0.13209 -54.00342 -0.12452 -110.37407 -0.12452 479.10857" pbc="T T T"
In  0.0  0.0  0.0  3.412711  0.001148  -11.035612
In  2.925  2.92555  3.11606  3.412711  0.001148  -11.035612
In  0.0  2.925  2.92868  3.412711  0.001148  -11.035612
In  2.925  5.85055  0.19474  3.412711  0.001148  -11.035612
P  1.4625  2.92528  4.48487  -3.412711  -0.001148  11.035612