8
Lattice="5.913413789 0.0 0.0 0.0 5.921112506 0.0 0.0 0.0 5.721529032" Properties=species:S:1:pos:R:3:forces:R:3 energy=-38.70258669 stress="-12.56811 0.0 0.0 0.0 -13.21061 0.0 0.0 0.0 0.85726" pbc="T T T"
In  0.0  0.0  0.0  0.0  -0.0  0.0
In  2.95671  0.0  2.86076  -0.0  0.0  -0.0
In  0.0  2.96056  2.86076  -0.0  0.0  0.0
In  2.95671  2.96056  0.0  0.0  -0.0  -0.0
P  1.47835  1.48028  4.29115  -0.0  0.0  -0.0
P  4.43506  1.48028  1.43038  0.0  -0.0  0.0
P  1.47835  4.44083  1.43038  -0.0  -0.0  -0.0
P  4.43506  4.44083  4.29115  0.0  -0.0  -0.0
8
Lattice="5.873036886 0.0 0.0 0.0 6.522549482 0.0 0.0 0.0 5.989474014" Properties=species:S:1:pos:R:3:forces:R:3 energy=-37.67775132 stress="-55.81148 0.0 0.0 0.0 -107.45906 0.0 0.0 0.0 -62.24707" pbc="T T T"
In  0.0  0.0  0.0  0.0  -0.0  -0.0
In  2.93652  0.0  2.99474  -0.0  -0.0  -0.0
In  0.0  3.26127  2.99474  -0.0  -0.0  -0.0
In  2.93652  3.26127  0.0  0.0  -0.0  0.0
P  1.46826  1.63064  4.49211  0.0  0.0  -0.0
P  4.40478  1.63064  1.49737  -0.0  -0.0  -0.0
P  1.46826  4.89191  1.49737  0.0  0.0  -0.0
P  4.40478  4.89191  4.49211  -0.0  -0.0  -0.0
8
Lattice="6.036773742 0.0 0.0 0.0 6.270512802 0.0 0.0 0.0 6.025262486" Properties=species:S:1:pos:R:3:forces:R:3 energy=-37.92256116 stress="-66.75905 0.0 0.0 0.0 -84.88025 0.0 0.0 0.0 -66.01165" pbc="T T T"
In  0.0  0.0  0.0  0.0  0.0  -0.0
In  3.01839  0.0  3.01263  -0.0  -0.0  0.0
In  0.0  3.13526  3.01263  0.0  -0.0  -0.0
In  3.01839  3.13526  0.0  0.0  0.0  0.0
P  1.50919  1.56763  4.51895  -0.0  0.0  0.0
P  4.52758  1.56763  1.50632  0.0  -0.0  -0.0
P  1.50919  4.70288  1.50632  0.0  -0.0  -0.0
P  4.52758  4.70288  4.51895  0.0  0.0  -0.0
8
Lattice="6.125327276 0.0 0.0 0.0 5.935444294 0.0 0.0 0.0 5.985141883" Properties=species:S:1:pos:R:3:forces:R:3 energy=-38.35404444 stress="-62.68012 0.0 0.0 0.0 -47.9948 0.0 0.0 0.0 -51.58387" pbc="T T T"
In  0.0  0.0  0.0  -0.0  0.0  -0.0
In  3.06266  0.0  2.99257  -0.0  0.0  -0.0
In  0.0  2.96772  2.99257  0.0  0.0  0.0
In  3.06266  2.96772  0.0  0.0  0.0  0.0
P  1.53133  1.48386  4.48886  0.0  -0.0  -0.0
P  4.594  1.48386  1.49629  0.0  -0.0  -0.0
P  1.53133  4.45158  1.49629  -0.0  -0.0  -0.0
P  4.594  4.45158  4.48886  0.0  -0.0  -0.0
8
Lattice="5.124364488 0.0 0.0 0.0 6.505443418 0.0 0.0 0.0 6.097179703" Properties=species:S:1:pos:R:3:forces:R:3 energy=-37.97890348 stress="14.75373 0.0 0.0 0.0 -74.90531 0.0 0.0 0.0 -23.89577" pbc="T T T"
In  0.0  0.0  0.0  0.0  0.0  0.0
In  2.56218  0.0  3.04859  -0.0  0.0  -0.0
In  0.0  3.25272  3.04859  0.0  0.0  -0.0
In  2.56218  3.25272  0.0  -0.0  0.0  -0.0
P  1.28109  1.62636  4.57288  0.0  0.0  0.0
P  3.84327  1.62636  1.52429  0.0  -0.0  0.0
P  1.28109  4.87908  1.52429  -0.0  -0.0  0.0
P  3.84327  4.87908  4.57288  0.0  -0.0  0.0
8
Lattice="5.957552546 0.0 0.0 0.0 6.484341686 0.0 0.0 0.0 5.244959849" Properties=species:S:1:pos:R:3:forces:R:3 energy=-38.10663521 stress="-11.81901 0.0 0.0 0.0 -73.6834 0.0 0.0 0.0 15.7436" pbc="T T T"
In  0.0  0.0  0.0  -0.0  -0.0  0.0
In  2.97878  0.0  2.62248  -0.0  -0.0  -0.0
In  0.0  3.24217  2.62248  0.0  -0.0  0.0
In  2.97878  3.24217  0.0  0.0  0.0  -0.0
P  1.48939  1.62109  3.93372  0.0  -0.0  -0.0
P  4.46816  1.62109  1.31124  -0.0  0.0  -0.0
P  1.48939  4.86326  1.31124  0.0  0.0  0.0
P  4.46816  4.86326  3.93372  0.0  0.0  -0.0
8
Lattice="5.129464981 0.0 0.0 0.0 5.504401928 0.0 0.0 0.0 5.912654197" Properties=species:S:1:pos:R:3:forces:R:3 energy=-37.06560865 stress="188.69803 0.0 0.0 0.0 183.78536 0.0 0.0 0.0 143.06495" pbc="T T T"
In  0.0  0.0  0.0  -0.0  0.0  0.0
In  2.56473  0.0  2.95633  -0.0  -0.0  -0.0
In  0.0  2.7522  2.95633  0.0  0.0  0.0
In  2.56473  2.7522  0.0  0.0  0.0  -0.0
P  1.28237  1.3761  4.43449  0.0  -0.0  -0.0
P  3.8471  1.3761  1.47816  -0.0  -0.0  0.0
P  1.28237  4.1283  1.47816  0.0  -0.0  -0.0
P  3.8471  4.1283  4.43449  0.0  -0.0  -0.0
8
Lattice="5.888204159 0.0 0.0 0.0 5.770979996 0.0 0.0 0.0 6.230431403" Properties=species:S:1:pos:R:3:forces:R:3 energy=-38.44489458 stress="-34.04365 0.0 0.0 0.0 -27.10478 0.0 0.0 0.0 -63.84672" pbc="T T T"
In  0.0  0.0  0.0  0.0  -0.0  0.0
In  2.9441  0.0  3.11522  -0.0  -0.0  0.0
In  0.0  2.88549  3.11522  0.0  0.0  -0.0
In  2.9441  2.88549  0.0  0.0  -0.0  0.0
P  1.47205  1.44274  4.67282  -0.0  0.0  -0.0
P  4.41615  1.44274  1.55761  -0.0  0.0  0.0
P  1.47205  4.32823  1.55761  -0.0  0.0  0.0
P  4.41615  4.32823  4.67282  -0.0  0.0  -0.0
8
Lattice="5.622517836 0.0 0.0 0.0 6.388419913 0.0 0.0 0.0 5.962949588" Properties=species:S:1:pos:R:3:forces:R:3 energy=-38.22591978 stress="-22.91112 0.0 0.0 0.0 -81.97858 0.0 0.0 0.0 -41.05432" pbc="T T T"
In  0.0  0.0  0.0  -0.0  0.0  0.0
In  2.81126  0.0  2.98147  0.0  0.0  0.0
In  0.0  3.19421  2.98147  0.0  -0.0  -0.0
In  2.81126  3.19421  0.0  -0.0  -0.0  -0.0
P  1.40563  1.5971  4.47221  -0.0  -0.0  0.0
P  4.21689  1.5971  1.49074  0.0  0.0  -0.0
P  1.40563  4.79131  1.49074  0.0  0.0  -0.0
P  4.21689  4.79131  4.47221  -0.0  0.0  0.0
8
Lattice="5.708639918 0.0 0.0 0.0 5.87609993 0.0 0.0 0.0 5.846121769" Properties=species:S:1:pos:R:3:forces:R:3 energy=-38.71102348 stress="14.03248 0.0 0.0 0.0 2.09269 0.0 0.0 0.0 4.52497" pbc="T T T"
In  0.0  0.0  0.0  -0.0  -0.0  -0.0
In  2.85432  0.0  2.92306  -0.0  0.0  0.0
In  0.0  2.93805  2.92306  -0.0  0.0  -0.0
In  2.85432  2.93805  0.0  0.0  -0.0  0.0
P  1.42716  1.46902  4.38459  -0.0  0.0  -0.0
P  4.28148  1.46902  1.46153  0.0  -0.0  0.0
P  1.42716  4.40707  1.46153  0.0  0.0  0.0
P  4.28148  4.40707  4.38459  -0.0  -0.0  -0.0
8
Lattice="5.241502022 0.0 0.0 0.0 6.043500934 0.0 0.0 0.0 5.614393763" Properties=species:S:1:pos:R:3:forces:R:3 energy=-37.9483308 stress="114.04285 0.0 0.0 0.0 58.30463 0.0 0.0 0.0 103.11388" pbc="T T T"
In  0.0  0.0  0.0  -0.0  0.0  0.0
In  2.62075  0.0  2.8072  -0.0  -0.0  -0.0
In  0.0  3.02175  2.8072  -0.0  -0.0  0.0
In  2.62075  3.02175  0.0  -0.0  -0.0  -0.0
P  1.31038  1.51088  4.2108  0.0  0.0  0.0
P  3.93113  1.51088  1.4036  0.0  -0.0  -0.0
P  1.31038  4.53263  1.4036  0.0  0.0  -0.0
P  3.93113  4.53263  4.2108  -0.0  -0.0  -0.0
8
Lattice="6.346633318 0.0 0.0 0.0 5.195710149 0.0 0.0 0.0 5.746818239" Properties=species:S:1:pos:R:3:forces:R:3 energy=-38.13417254 stress="-26.92755 0.0 0.0 0.0 59.89066 0.0 0.0 0.0 43.76304" pbc="T T T"
In  0.0  0.0  0.0  0.0  0.0  -0.0
In  3.17332  0.0  2.87341  0.0  0.0  -0.0
In  0.0  2.59786  2.87341  -0.0  -0.0  0.0
In  3.17332  2.59786  0.0  -0.0  -0.0  0.0
P  1.58666  1.29893  4.31011  -0.0  -0.0  -0.0
P  4.75997  1.29893  1.4367  0.0  -0.0  -0.0
P  1.58666  3.89678  1.4367  0.0  -0.0  -0.0
P  4.75997  3.89678  4.31011  0.0  0.0  -0.0
8
Lattice="5.504656555 0.0 0.0 0.0 5.668809163 0.0 0.0 0.0 5.215834487" Properties=species:S:1:pos:R:3:forces:R:3 energy=-36.6664979 stress="217.3519 0.0 0.0 0.0 204.28875 0.0 0.0 0.0 224.59565" pbc="T T T"
In  0.0  0.0  0.0  -0.0  0.0  0.0
In  2.75233  0.0  2.60792  0.0  -0.0  -0.0
In  0.0  2.8344  2.60792  -0.0  0.0  0.0
In  2.75233  2.8344  0.0  0.0  -0.0  -0.0
P  1.37616  1.4172  3.91188  0.0  -0.0  -0.0
P  4.12849  1.4172  1.30396  -0.0  -0.0  -0.0
P  1.37616  4.25161  1.30396  0.0  -0.0  -0.0
P  4.12849  4.25161  3.91188  -0.0  -0.0  0.0
8
Lattice="5.54529279 0.0 0.0 0.0 5.667630162 0.0 0.0 0.0 5.884011432" Properties=species:S:1:pos:R:3:forces:R:3 energy=-38.46259083 stress="66.82023 0.0 0.0 0.0 59.91174 0.0 0.0 0.0 41.8166" pbc="T T T"
In  0.0  0.0  0.0  -0.0  -0.0  -0.0
In  2.77265  0.0  2.94201  0.0  -0.0  0.0
In  0.0  2.83382  2.94201  -0.0  -0.0  0.0
In  2.77265  2.83382  0.0  0.0  -0.0  0.0
P  1.38632  1.41691  4.41301  -0.0  -0.0  -0.0
P  4.15897  1.41691  1.471  -0.0  0.0  0.0
P  1.38632  4.25072  1.471  -0.0  0.0  -0.0
P  4.15897  4.25072  4.41301  -0.0  0.0  0.0
8
Lattice="6.374737856 0.0 0.0 0.0 5.74542791 0.0 0.0 0.0 5.166804985" Properties=species:S:1:pos:R:3:forces:R:3 energy=-38.07805907 stress="-29.77479 0.0 0.0 0.0 45.79961 0.0 0.0 0.0 61.43288" pbc="T T T"
In  0.0  0.0  0.0  -0.0  0.0  -0.0
In  3.18737  0.0  2.5834  -0.0  0.0  -0.0
In  0.0  2.87271  2.5834  0.0  -0.0  -0.0
In  3.18737  2.87271  0.0  -0.0  -0.0  0.0
P  1.59368  1.43636  3.8751  -0.0  0.0  0.0
P  4.78105  1.43636  1.2917  0.0  0.0  0.0
P  1.59368  4.30907  1.2917  0.0  0.0  0.0
P  4.78105  4.30907  3.8751  -0.0  -0.0  0.0
8
Lattice="5.309713795 0.0 0.0 0.0 5.92957061 0.0 0.0 0.0 5.954440414" Properties=species:S:1:pos:R:3:forces:R:3 energy=-38.41703276 stress="63.38308 0.0 0.0 0.0 29.57733 0.0 0.0 0.0 26.77951" pbc="T T T"
In  0.0  0.0  0.0  -0.0  0.0  0.0
In  2.65486  0.0  2.97722  0.0  0.0  -0.0
In  0.0  2.96479  2.97722  0.0  -0.0  -0.0
In  2.65486  2.96479  0.0  -0.0  0.0  -0.0
P  1.32743  1.48239  4.46583  0.0  -0.0  0.0
P  3.98229  1.48239  1.48861  -0.0  0.0  0.0
P  1.32743  4.44718  1.48861  -0.0  0.0  0.0
P  3.98229  4.44718  4.46583  0.0  0.0  0.0
8
Lattice="5.703703611 0.0 0.0 0.0 6.121432857 0.0 0.0 0.0 6.058700892" Properties=species:S:1:pos:R:3:forces:R:3 energy=-38.4679551 stress="-23.68012 0.0 0.0 0.0 -52.89145 0.0 0.0 0.0 -47.21843" pbc="T T T"
In  0.0  0.0  0.0  -0.0  0.0  0.0
In  2.85185  0.0  3.02935  0.0  -0.0  0.0
In  0.0  3.06072  3.02935  -0.0  -0.0  -0.0
In  2.85185  3.06072  0.0  0.0  -0.0  0.0
P  1.42593  1.53036  4.54403  0.0  0.0  0.0
P  4.27778  1.53036  1.51468  0.0  0.0  0.0
P  1.42593  4.59107  1.51468  0.0  0.0  0.0
P  4.27778  4.59107  4.54403  0.0  0.0  0.0
8
Lattice="5.079101515 0.0 0.0 0.0 6.166464738 0.0 0.0 0.0 5.206306841" Properties=species:S:1:pos:R:3:forces:R:3 energy=-36.26472406 stress="227.76986 0.0 0.0 0.0 134.16349 0.0 0.0 0.0 231.19722" pbc="T T T"
In  0.0  0.0  0.0  0.0  -0.0  -0.0
In  2.53955  0.0  2.60315  -0.0  -0.0  -0.0
In  0.0  3.08323  2.60315  -0.0  0.0  0.0
In  2.53955  3.08323  0.0  0.0  -0.0  -0.0
P  1.26978  1.54162  3.90473  0.0  0.0  -0.0
P  3.80933  1.54162  1.30158  0.0  0.0  -0.0
P  1.26978  4.62485  1.30158  0.0  0.0  -0.0
P  3.80933  4.62485  3.90473  0.0  0.0  -0.0
8
Lattice="6.332009473 0.0 0.0 0.0 5.152544305 0.0 0.0 0.0 6.219696272" Properties=species:S:1:pos:R:3:forces:R:3 energy=-38.1282619 stress="-52.89186 0.0 0.0 0.0 14.12021 0.0 0.0 0.0 -38.96012" pbc="T T T"
In  0.0  0.0  0.0  -0.0  0.0  0.0
In  3.166  0.0  3.10985  -0.0  -0.0  0.0
In  0.0  2.57627  3.10985  -0.0  -0.0  -0.0
In  3.166  2.57627  0.0  0.0  0.0  -0.0
P  1.583  1.28814  4.66477  0.0  0.0  0.0
P  4.74901  1.28814  1.55492  0.0  0.0  0.0
P  1.583  3.86441  1.55492  0.0  0.0  0.0
P  4.74901  3.86441  4.66477  0.0  -0.0  0.0
8
Lattice="5.11744948 0.0 0.0 0.0 5.986851718 0.0 0.0 0.0 5.90604111" Properties=species:S:1:pos:R:3:forces:R:3 energy=-38.08222169 stress="95.67864 0.0 0.0 0.0 52.19987 0.0 0.0 0.0 61.94849" pbc="T T T"
In  0.0  0.0  0.0  0.0  -0.0  0.0
In  2.55872  0.0  2.95302  0.0  0.0  -0.0
In  0.0  2.99343  2.95302  -0.0  -0.0  -0.0
In  2.55872  2.99343  0.0  -0.0  0.0  -0.0
P  1.27936  1.49671  4.42953  0.0  0.0  0.0
P  3.83809  1.49671  1.47651  -0.0  0.0  0.0
P  1.27936  4.49014  1.47651  -0.0  -0.0  0.0
P  3.83809  4.49014  4.42953  -0.0  0.0  0.0
8
Lattice="5.812967095 0.0 0.0 0.0 6.247959315 0.0 0.0 0.0 6.104987801" Properties=species:S:1:pos:R:3:forces:R:3 energy=-38.1401102 stress="-45.76544 0.0 0.0 0.0 -77.06775 0.0 0.0 0.0 -64.60424" pbc="T T T"
In  0.0  0.0  0.0  -0.0  -0.0  0.0
In  2.90648  0.0  3.05249  0.0  0.0  0.0
In  0.0  3.12398  3.05249  -0.0  -0.0  0.0
In  2.90648  3.12398  0.0  0.0  0.0  0.0
P  1.45324  1.56199  4.57874  0.0  -0.0  -0.0
P  4.35973  1.56199  1.52625  -0.0  0.0  -0.0
P  1.45324  4.68597  1.52625  -0.0  -0.0  -0.0
P  4.35973  4.68597  4.57874  0.0  0.0  -0.0
8
Lattice="5.226040969 0.0 0.0 0.0 6.314497571 0.0 0.0 0.0 6.009916234" Properties=species:S:1:pos:R:3:forces:R:3 energy=-38.28172569 stress="26.62157 0.0 0.0 0.0 -44.357 0.0 0.0 0.0 -8.36792" pbc="T T T"
In  0.0  0.0  0.0  0.0  0.0  -0.0
In  2.61302  0.0  3.00496  -0.0  -0.0  -0.0
In  0.0  3.15725  3.00496  -0.0  -0.0  0.0
In  2.61302  3.15725  0.0  -0.0  0.0  -0.0
P  1.30651  1.57862  4.50744  0.0  0.0  0.0
P  3.91953  1.57862  1.50248  0.0  0.0  0.0
P  1.30651  4.73587  1.50248  0.0  0.0  0.0
P  3.91953  4.73587  4.50744  -0.0  0.0  0.0
8
Lattice="6.154156467 0.0 0.0 0.0 6.030542716 0.0 0.0 0.0 5.146649978" Properties=species:S:1:pos:R:3:forces:R:3 energy=-38.28758136 stress="-5.01788 0.0 0.0 0.0 10.0241 0.0 0.0 0.0 51.35558" pbc="T T T"
In  0.0  0.0  0.0  0.0  -0.0  -0.0
In  3.07708  0.0  2.57332  -0.0  0.0  -0.0
In  0.0  3.01527  2.57332  -0.0  0.0  -0.0
In  3.07708  3.01527  0.0  0.0  -0.0  0.0
P  1.53854  1.50764  3.85999  0.0  0.0  0.0
P  4.61562  1.50764  1.28666  0.0  0.0  0.0
P  1.53854  4.52291  1.28666  0.0  0.0  0.0
P  4.61562  4.52291  3.85999  0.0  0.0  0.0
8
Lattice="5.33879534 0.0 0.0 0.0 5.154931398 0.0 0.0 0.0 6.421612914" Properties=species:S:1:pos:R:3:forces:R:3 energy=-37.3050262 stress="130.79622 0.0 0.0 0.0 129.93594 0.0 0.0 0.0 8.38282" pbc="T T T"
In  0.0  0.0  0.0  0.0  0.0  0.0
In  2.6694  0.0  3.21081  -0.0  -0.0  -0.0
In  0.0  2.57747  3.21081  0.0  0.0  0.0
In  2.6694  2.57747  0.0  0.0  -0.0  -0.0
P  1.3347  1.28873  4.81621  0.0  0.0  0.0
P  4.0041  1.28873  1.6054  0.0  0.0  -0.0
P  1.3347  3.8662  1.6054  -0.0  -0.0  0.0
P  4.0041  3.8662  4.81621  0.0  0.0  -0.0
8
Lattice="5.873758127 0.0 0.0 0.0 5.518377117 0.0 0.0 0.0 5.115444897" Properties=species:S:1:pos:R:3:forces:R:3 energy=-36.95721097 stress="156.68662 0.0 0.0 0.0 191.95355 0.0 0.0 0.0 197.43642" pbc="T T T"
In  0.0  0.0  0.0  -0.0  -0.0  -0.0
In  2.93688  0.0  2.55772  -0.0  0.0  -0.0
In  0.0  2.75919  2.55772  -0.0  0.0  -0.0
In  2.93688  2.75919  0.0  0.0  -0.0  -0.0
P  1.46844  1.37959  3.83658  -0.0  0.0  0.0
P  4.40532  1.37959  1.27886  0.0  0.0  0.0
P  1.46844  4.13878  1.27886  -0.0  -0.0  0.0
P  4.40532  4.13878  3.83658  -0.0  -0.0  0.0
8
Lattice="5.690974022 0.0 0.0 0.0 6.27155012 0.0 0.0 0.0 5.487289199" Properties=species:S:1:pos:R:3:forces:R:3 energy=-38.43899557 stress="20.61119 0.0 0.0 0.0 -36.60521 0.0 0.0 0.0 29.23105" pbc="T T T"
In  0.0  0.0  0.0  -0.0  0.0  0.0
In  2.84549  0.0  2.74364  -0.0  -0.0  -0.0
In  0.0  3.13578  2.74364  0.0  -0.0  0.0
In  2.84549  3.13578  0.0  0.0  0.0  -0.0
P  1.42274  1.56789  4.11547  -0.0  0.0  0.0
P  4.26823  1.56789  1.37182  -0.0  -0.0  0.0
P  1.42274  4.70366  1.37182  -0.0  -0.0  0.0
P  4.26823  4.70366  4.11547  -0.0  0.0  0.0
8
Lattice="6.160036172 0.0 0.0 0.0 5.346115884 0.0 0.0 0.0 5.139873864" Properties=species:S:1:pos:R:3:forces:R:3 energy=-37.05934352 stress="91.15061 0.0 0.0 0.0 175.81725 0.0 0.0 0.0 175.08254" pbc="T T T"
In  0.0  0.0  0.0  0.0  0.0  0.0
In  3.08002  0.0  2.56994  -0.0  0.0  -0.0
In  0.0  2.67306  2.56994  0.0  -0.0  0.0
In  3.08002  2.67306  0.0  0.0  -0.0  0.0
P  1.54001  1.33653  3.85491  -0.0  -0.0  -0.0
P  4.62003  1.33653  1.28497  -0.0  0.0  -0.0
P  1.54001  4.00959  1.28497  -0.0  -0.0  -0.0
P  4.62003  4.00959  3.85491  -0.0  -0.0  -0.0
8
Lattice="5.687642871 0.0 0.0 0.0 5.206155559 0.0 0.0 0.0 5.51032484" Properties=species:S:1:pos:R:3:forces:R:3 energy=-36.71493496 stress="198.91547 0.0 0.0 0.0 220.94117 0.0 0.0 0.0 213.48851" pbc="T T T"
In  0.0  0.0  0.0  -0.0  0.0  0.0
In  2.84382  0.0  2.75516  -0.0  0.0  0.0
In  0.0  2.60308  2.75516  -0.0  -0.0  0.0
In  2.84382  2.60308  0.0  -0.0  -0.0  -0.0
P  1.42191  1.30154  4.13274  -0.0  0.0  -0.0
P  4.26573  1.30154  1.37758  -0.0  0.0  -0.0
P  1.42191  3.90462  1.37758  0.0  -0.0  -0.0
P  4.26573  3.90462  4.13274  0.0  0.0  0.0
8
Lattice="5.205925073 0.0 0.0 0.0 6.032836489 0.0 0.0 0.0 5.989672032" Properties=species:S:1:pos:R:3:forces:R:3 energy=-38.33632133 stress="62.35865 0.0 0.0 0.0 17.49809 0.0 0.0 0.0 22.49633" pbc="T T T"
In  0.0  0.0  0.0  -0.0  0.0  -0.0
In  2.60296  0.0  2.99484  0.0  0.0  -0.0
In  0.0  3.01642  2.99484  0.0  0.0  -0.0
In  2.60296  3.01642  0.0  0.0  -0.0  0.0
P  1.30148  1.50821  4.49225  -0.0  0.0  0.0
P  3.90444  1.50821  1.49742  -0.0  -0.0  0.0
P  1.30148  4.52463  1.49742  -0.0  -0.0  0.0
P  3.90444  4.52463  4.49225  -0.0  -0.0  0.0
8
Lattice="5.417187408 0.0 0.0 0.0 5.360225871 0.0 0.0 0.0 5.632185204" Properties=species:S:1:pos:R:3:forces:R:3 energy=-36.79425161 stress="213.65424 0.0 0.0 0.0 215.40489 0.0 0.0 0.0 200.1393" pbc="T T T"
In  0.0  0.0  0.0  0.0  0.0  0.0
In  2.70859  0.0  2.81609  -0.0  -0.0  0.0
In  0.0  2.68011  2.81609  0.0  0.0  0.0
In  2.70859  2.68011  0.0  0.0  0.0  0.0
P  1.3543  1.34006  4.22414  -0.0  0.0  -0.0
P  4.06289  1.34006  1.40805  -0.0  0.0  -0.0
P  1.3543  4.02017  1.40805  -0.0  -0.0  -0.0
P  4.06289  4.02017  4.22414  -0.0  -0.0  0.0
8
Lattice="6.035828505 0.0 0.0 0.0 5.922948792 0.0 0.0 0.0 6.185296612" Properties=species:S:1:pos:R:3:forces:R:3 energy=-38.21519129 stress="-59.5328 0.0 0.0 0.0 -51.79131 0.0 0.0 0.0 -71.63242" pbc="T T T"
In  0.0  0.0  0.0  0.0  0.0  0.0
In  3.01791  0.0  3.09265  0.0  -0.0  0.0
In  0.0  2.96147  3.09265  -0.0  0.0  -0.0
In  3.01791  2.96147  0.0  -0.0  -0.0  -0.0
P  1.50896  1.48074  4.63897  0.0  -0.0  0.0
P  4.52687  1.48074  1.54632  0.0  0.0  0.0
P  1.50896  4.44221  1.54632  0.0  0.0  0.0
P  4.52687  4.44221  4.63897  0.0  0.0  0.0
8
Lattice="6.093909585 0.0 0.0 0.0 6.095245116 0.0 0.0 0.0 6.12240473" Properties=species:S:1:pos:R:3:forces:R:3 energy=-37.98550076 stress="-70.64346 0.0 0.0 0.0 -70.74023 0.0 0.0 0.0 -72.74463" pbc="T T T"
In  0.0  0.0  0.0  0.0  0.0  0.0
In  3.04695  0.0  3.0612  -0.0  0.0  -0.0
In  0.0  3.04762  3.0612  0.0  -0.0  0.0
In  3.04695  3.04762  0.0  -0.0  -0.0  -0.0
P  1.52348  1.52381  4.5918  -0.0  0.0  -0.0
P  4.57043  1.52381  1.5306  -0.0  0.0  0.0
P  1.52348  4.57143  1.5306  -0.0  -0.0  0.0
P  4.57043  4.57143  4.5918  -0.0  0.0  0.0
8
Lattice="5.340590467 0.0 0.0 0.0 5.64499336 0.0 0.0 0.0 6.436421034" Properties=species:S:1:pos:R:3:forces:R:3 energy=-38.15380832 stress="42.5389 0.0 0.0 0.0 33.87248 0.0 0.0 0.0 -52.27972" pbc="T T T"
In  0.0  0.0  0.0  0.0  0.0  0.0
In  2.6703  0.0  3.21821  0.0  0.0  -0.0
In  0.0  2.8225  3.21821  0.0  0.0  -0.0
In  2.6703  2.8225  0.0  -0.0  -0.0  -0.0
P  1.33515  1.41125  4.82732  -0.0  -0.0  -0.0
P  4.00544  1.41125  1.60911  -0.0  -0.0  0.0
P  1.33515  4.23375  1.60911  -0.0  -0.0  -0.0
P  4.00544  4.23375  4.82732  0.0  -0.0  0.0
8
Lattice="6.129913627 0.0 0.0 0.0 5.578227458 0.0 0.0 0.0 6.383137754" Properties=species:S:1:pos:R:3:forces:R:3 energy=-38.07617611 stress="-59.48728 0.0 0.0 0.0 -28.41395 0.0 0.0 0.0 -84.66168" pbc="T T T"
In  0.0  0.0  0.0  -0.0  -0.0  -0.0
In  3.06496  0.0  3.19157  -0.0  -0.0  -0.0
In  0.0  2.78911  3.19157  -0.0  0.0  0.0
In  3.06496  2.78911  0.0  -0.0  -0.0  -0.0
P  1.53248  1.39456  4.78735  0.0  0.0  -0.0
P  4.59744  1.39456  1.59578  0.0  0.0  -0.0
P  1.53248  4.18367  1.59578  0.0  0.0  -0.0
P  4.59744  4.18367  4.78735  0.0  0.0  -0.0
8
Lattice="6.088781453 0.0 0.0 0.0 6.325874527 0.0 0.0 0.0 5.739290575" Properties=species:S:1:pos:R:3:forces:R:3 energy=-38.10211299 stress="-61.53783 0.0 0.0 0.0 -83.12637 0.0 0.0 0.0 -40.51534" pbc="T T T"
In  0.0  0.0  0.0  -0.0  -0.0  0.0
In  3.04439  0.0  2.86965  0.0  0.0  -0.0
In  0.0  3.16294  2.86965  -0.0  -0.0  0.0
In  3.04439  3.16294  0.0  -0.0  0.0  -0.0
P  1.5222  1.58147  4.30447  0.0  -0.0  0.0
P  4.56659  1.58147  1.43482  0.0  -0.0  0.0
P  1.5222  4.74441  1.43482  0.0  -0.0  0.0
P  4.56659  4.74441  4.30447  0.0  0.0  0.0
8
Lattice="6.326556966 0.0 0.0 0.0 5.448482706 0.0 0.0 0.0 5.87371324" Properties=species:S:1:pos:R:3:forces:R:3 energy=-38.39252912 stress="-56.94594 0.0 0.0 0.0 10.17604 0.0 0.0 0.0 -9.64864" pbc="T T T"
In  0.0  0.0  0.0  0.0  -0.0  -0.0
In  3.16328  0.0  2.93686  -0.0  -0.0  -0.0
In  0.0  2.72424  2.93686  -0.0  0.0  0.0
In  3.16328  2.72424  0.0  0.0  0.0  0.0
P  1.58164  1.36212  4.40528  -0.0  0.0  0.0
P  4.74492  1.36212  1.46843  -0.0  0.0  0.0
P  1.58164  4.08636  1.46843  -0.0  0.0  0.0
P  4.74492  4.08636  4.40528  -0.0  0.0  0.0
8
Lattice="6.194975784 0.0 0.0 0.0 6.191052649 0.0 0.0 0.0 6.423398355" Properties=species:S:1:pos:R:3:forces:R:3 energy=-36.97481197 stress="-87.34165 0.0 0.0 0.0 -87.09304 0.0 0.0 0.0 -103.94037" pbc="T T T"
In  0.0  0.0  0.0  -0.0  0.0  -0.0
In  3.09749  0.0  3.2117  -0.0  -0.0  0.0
In  0.0  3.09553  3.2117  0.0  0.0  0.0
In  3.09749  3.09553  0.0  0.0  -0.0  0.0
P  1.54874  1.54776  4.81755  -0.0  0.0  0.0
P  4.64623  1.54776  1.60585  -0.0  0.0  0.0
P  1.54874  4.64329  1.60585  0.0  -0.0  -0.0
P  4.64623  4.64329  4.81755  0.0  -0.0  -0.0
8
Lattice="6.503616317 0.0 0.0 0.0 5.543827059 0.0 0.0 0.0 5.557025682" Properties=species:S:1:pos:R:3:forces:R:3 energy=-38.16239523 stress="-74.71283 0.0 0.0 0.0 17.67444 0.0 0.0 0.0 17.25868" pbc="T T T"
In  0.0  0.0  0.0  0.0  0.0  -0.0
In  3.25181  0.0  2.77851  -0.0  -0.0  -0.0
In  0.0  2.77191  2.77851  0.0  -0.0  0.0
In  3.25181  2.77191  0.0  -0.0  0.0  0.0
P  1.6259  1.38596  4.16777  0.0  -0.0  0.0
P  4.87771  1.38596  1.38926  0.0  0.0  0.0
P  1.6259  4.15787  1.38926  0.0  0.0  0.0
P  4.87771  4.15787  4.16777  -0.0  0.0  0.0
8
Lattice="5.084429919 0.0 0.0 0.0 5.474134001 0.0 0.0 0.0 5.097897495" Properties=species:S:1:pos:R:3:forces:R:3 energy=-32.18589704 stress="500.1967 0.0 0.0 0.0 494.31318 0.0 0.0 0.0 500.88299" pbc="T T T"
In  0.0  0.0  0.0  -0.0  0.0  -0.0
In  2.54221  0.0  2.54895  -0.0  0.0  0.0
In  0.0  2.73707  2.54895  -0.0  0.0  -0.0
In  2.54221  2.73707  0.0  0.0  0.0  -0.0
P  1.27111  1.36853  3.82342  0.0  -0.0  -0.0
P  3.81332  1.36853  1.27447  -0.0  -0.0  -0.0
P  1.27111  4.1056  1.27447  0.0  -0.0  -0.0
P  3.81332  4.1056  3.82342  0.0  -0.0  -0.0
8
Lattice="6.242923678 0.0 0.0 0.0 5.607675082 0.0 0.0 0.0 5.477321853" Properties=species:S:1:pos:R:3:forces:R:3 energy=-38.39299598 stress="-21.96687 0.0 0.0 0.0 39.53601 0.0 0.0 0.0 44.47999" pbc="T T T"
In  0.0  0.0  0.0  -0.0  0.0  -0.0
In  3.12146  0.0  2.73866  0.0  -0.0  -0.0
In  0.0  2.80384  2.73866  -0.0  -0.0  -0.0
In  3.12146  2.80384  0.0  0.0  0.0  0.0
P  1.56073  1.40192  4.10799  0.0  -0.0  0.0
P  4.68219  1.40192  1.36933  -0.0  0.0  0.0
P  1.56073  4.20576  1.36933  -0.0  -0.0  0.0
P  4.68219  4.20576  4.10799  0.0  -0.0  0.0
8
Lattice="6.025198365 0.0 0.0 0.0 5.176683478 0.0 0.0 0.0 5.724407199" Properties=species:S:1:pos:R:3:forces:R:3 energy=-37.98407917 stress="57.71124 0.0 0.0 0.0 109.55596 0.0 0.0 0.0 91.15364" pbc="T T T"
In  0.0  0.0  0.0  -0.0  0.0  0.0
In  3.0126  0.0  2.8622  -0.0  -0.0  -0.0
In  0.0  2.58834  2.8622  -0.0  -0.0  0.0
In  3.0126  2.58834  0.0  0.0  0.0  0.0
P  1.5063  1.29417  4.29331  0.0  -0.0  -0.0
P  4.5189  1.29417  1.4311  0.0  -0.0  -0.0
P  1.5063  3.88251  1.4311  0.0  -0.0  -0.0
P  4.5189  3.88251  4.29331  0.0  0.0  -0.0
8
Lattice="6.047377801 0.0 0.0 0.0 5.586422126 0.0 0.0 0.0 5.265080883" Properties=species:S:1:pos:R:3:forces:R:3 energy=-37.95163819 stress="57.53574 0.0 0.0 0.0 104.63784 0.0 0.0 0.0 113.86025" pbc="T T T"
In  0.0  0.0  0.0  0.0  -0.0  -0.0
In  3.02369  0.0  2.63254  0.0  0.0  0.0
In  0.0  2.79321  2.63254  -0.0  0.0  -0.0
In  3.02369  2.79321  0.0  -0.0  0.0  -0.0
P  1.51184  1.39661  3.94881  -0.0  -0.0  0.0
P  4.53553  1.39661  1.31627  0.0  -0.0  0.0
P  1.51184  4.18982  1.31627  -0.0  -0.0  0.0
P  4.53553  4.18982  3.94881  -0.0  -0.0  0.0
8
Lattice="5.98518018 0.0 0.0 0.0 5.320859863 0.0 0.0 0.0 6.396528023" Properties=species:S:1:pos:R:3:forces:R:3 energy=-38.24193762 stress="-19.19429 0.0 0.0 0.0 10.44644 0.0 0.0 0.0 -65.63813" pbc="T T T"
In  0.0  0.0  0.0  -0.0  0.0  -0.0
In  2.99259  0.0  3.19826  0.0  -0.0  -0.0
In  0.0  2.66043  3.19826  -0.0  0.0  0.0
In  2.99259  2.66043  0.0  -0.0  0.0  0.0
P  1.4963  1.33021  4.7974  0.0  0.0  -0.0
P  4.48889  1.33021  1.59913  0.0  -0.0  -0.0
P  1.4963  3.99064  1.59913  -0.0  -0.0  -0.0
P  4.48889  3.99064  4.7974  -0.0  -0.0  -0.0
8
Lattice="6.137990076 0.0 0.0 0.0 5.576530062 0.0 0.0 0.0 6.481479397" Properties=species:S:1:pos:R:3:forces:R:3 energy=-37.87591984 stress="-63.10084 0.0 0.0 0.0 -33.1434 0.0 0.0 0.0 -97.25228" pbc="T T T"
In  0.0  0.0  0.0  0.0  0.0  0.0
In  3.069  0.0  3.24074  0.0  0.0  0.0
In  0.0  2.78827  3.24074  0.0  0.0  -0.0
In  3.069  2.78827  0.0  0.0  -0.0  -0.0
P  1.5345  1.39413  4.86111  -0.0  -0.0  -0.0
P  4.60349  1.39413  1.62037  0.0  -0.0  -0.0
P  1.5345  4.1824  1.62037  -0.0  -0.0  -0.0
P  4.60349  4.1824  4.86111  0.0  -0.0  -0.0
8
Lattice="5.18003474 0.0 0.0 0.0 5.63578022 0.0 0.0 0.0 5.105252925" Properties=species:S:1:pos:R:3:forces:R:3 energy=-34.1201446 stress="386.89208 0.0 0.0 0.0 363.82838 0.0 0.0 0.0 384.59031" pbc="T T T"
In  0.0  0.0  0.0  0.0  0.0  -0.0
In  2.59002  0.0  2.55263  -0.0  0.0  -0.0
In  0.0  2.81789  2.55263  -0.0  0.0  0.0
In  2.59002  2.81789  0.0  0.0  0.0  -0.0
P  1.29501  1.40895  3.82894  -0.0  -0.0  0.0
P  3.88503  1.40895  1.27631  -0.0  -0.0  0.0
P  1.29501  4.22684  1.27631  -0.0  -0.0  0.0
P  3.88503  4.22684  3.82894  -0.0  0.0  0.0
8
Lattice="5.833736631 0.0 0.0 0.0 5.821337993 0.0 0.0 0.0 5.325723028" Properties=species:S:1:pos:R:3:forces:R:3 energy=-38.23180712 stress="66.61793 0.0 0.0 0.0 67.83448 0.0 0.0 0.0 94.31794" pbc="T T T"
In  0.0  0.0  0.0  0.0  -0.0  -0.0
In  2.91687  0.0  2.66286  0.0  0.0  0.0
In  0.0  2.91067  2.66286  -0.0  0.0  -0.0
In  2.91687  2.91067  0.0  0.0  0.0  0.0
P  1.45843  1.45533  3.99429  -0.0  -0.0  -0.0
P  4.3753  1.45533  1.33143  0.0  0.0  0.0
P  1.45843  4.366  1.33143  -0.0  0.0  0.0
P  4.3753  4.366  3.99429  0.0  -0.0  -0.0
8
Lattice="5.164934159 0.0 0.0 0.0 5.083310595 0.0 0.0 0.0 5.242554191" Properties=species:S:1:pos:R:3:forces:R:3 energy=-30.75189792 stress="587.16112 0.0 0.0 0.0 583.74119 0.0 0.0 0.0 587.94154" pbc="T T T"
In  0.0  0.0  0.0  0.0  0.0  -0.0
In  2.58247  0.0  2.62128  0.0  -0.0  0.0
In  0.0  2.54166  2.62128  -0.0  -0.0  0.0
In  2.58247  2.54166  0.0  0.0  -0.0  -0.0
P  1.29123  1.27083  3.93192  -0.0  0.0  -0.0
P  3.8737  1.27083  1.31064  -0.0  0.0  -0.0
P  1.29123  3.81248  1.31064  -0.0  0.0  -0.0
P  3.8737  3.81248  3.93192  -0.0  0.0  -0.0
8
Lattice="5.549913205 0.0 0.0 0.0 5.522084188 0.0 0.0 0.0 6.432432284" Properties=species:S:1:pos:R:3:forces:R:3 energy=-38.23907453 stress="26.39414 0.0 0.0 0.0 27.27606 0.0 0.0 0.0 -59.40942" pbc="T T T"
In  0.0  0.0  0.0  0.0  -0.0  0.0
In  2.77496  0.0  3.21622  -0.0  -0.0  0.0
In  0.0  2.76104  3.21622  0.0  0.0  -0.0
In  2.77496  2.76104  0.0  -0.0  0.0  -0.0
P  1.38748  1.38052  4.82432  0.0  0.0  0.0
P  4.16243  1.38052  1.60811  -0.0  -0.0  0.0
P  1.38748  4.14156  1.60811  -0.0  0.0  -0.0
P  4.16243  4.14156  4.82432  0.0  -0.0  -0.0
8
Lattice="5.985830498 0.0 0.0 0.0 5.359765161 0.0 0.0 0.0 5.399474139" Properties=species:S:1:pos:R:3:forces:R:3 energy=-37.6586922 stress="90.71966 0.0 0.0 0.0 141.83346 0.0 0.0 0.0 140.94276" pbc="T T T"
In  0.0  0.0  0.0  -0.0  0.0  0.0
In  2.99292  0.0  2.69974  0.0  -0.0  -0.0
In  0.0  2.67988  2.69974  0.0  0.0  -0.0
In  2.99292  2.67988  0.0  -0.0  0.0  0.0
P  1.49646  1.33994  4.04961  0.0  -0.0  -0.0
P  4.48937  1.33994  1.34987  0.0  -0.0  -0.0
P  1.49646  4.01982  1.34987  0.0  -0.0  -0.0
P  4.48937  4.01982  4.04961  0.0  -0.0  -0.0
8
Lattice="5.615067527 0.0 0.0 0.0 5.585256558 0.0 0.0 0.0 5.418220822" Properties=species:S:1:pos:R:3:forces:R:3 energy=-37.53059169 stress="150.1251 0.0 0.0 0.0 152.29552 0.0 0.0 0.0 160.61794" pbc="T T T"
In  0.0  0.0  0.0  0.0  0.0  -0.0
In  2.80753  0.0  2.70911  0.0  0.0  0.0
In  0.0  2.79263  2.70911  -0.0  -0.0  -0.0
In  2.80753  2.79263  0.0  -0.0  0.0  0.0
P  1.40377  1.39631  4.06367  0.0  -0.0  0.0
P  4.2113  1.39631  1.35456  0.0  0.0  -0.0
P  1.40377  4.18894  1.35456  0.0  0.0  -0.0
P  4.2113  4.18894  4.06367  -0.0  -0.0  0.0
8
Lattice="6.192720508 0.0 0.0 0.0 5.695732506 0.0 0.0 0.0 5.287248521" Properties=species:S:1:pos:R:3:forces:R:3 energy=-38.25030306 stress="2.41943 0.0 0.0 0.0 56.18176 0.0 0.0 0.0 70.24006" pbc="T T T"
In  0.0  0.0  0.0  0.0  -0.0  0.0
In  3.09636  0.0  2.64362  -0.0  0.0  -0.0
In  0.0  2.84787  2.64362  -0.0  0.0  0.0
In  3.09636  2.84787  0.0  -0.0  0.0  0.0
P  1.54818  1.42393  3.96544  0.0  -0.0  0.0
P  4.64454  1.42393  1.32181  0.0  -0.0  0.0
P  1.54818  4.2718  1.32181  0.0  0.0  -0.0
P  4.64454  4.2718  3.96544  0.0  -0.0  -0.0
8
Lattice="6.435074153 0.0 0.0 0.0 6.412314416 0.0 0.0 0.0 5.615443238" Properties=species:S:1:pos:R:3:forces:R:3 energy=-37.44655603 stress="-96.95032 0.0 0.0 0.0 -94.74425 0.0 0.0 0.0 -46.87404" pbc="T T T"
In  0.0  0.0  0.0  -0.0  -0.0  -0.0
In  3.21754  0.0  2.80772  0.0  -0.0  0.0
In  0.0  3.20616  2.80772  0.0  -0.0  0.0
In  3.21754  3.20616  0.0  0.0  -0.0  -0.0
P  1.60877  1.60308  4.21158  -0.0  0.0  -0.0
P  4.82631  1.60308  1.40386  -0.0  0.0  -0.0
P  1.60877  4.80924  1.40386  -0.0  0.0  -0.0
P  4.82631  4.80924  4.21158  -0.0  0.0  -0.0
8
Lattice="6.083217253 0.0 0.0 0.0 5.812974976 0.0 0.0 0.0 5.324546993" Properties=species:S:1:pos:R:3:forces:R:3 energy=-38.40387361 stress="9.26835 0.0 0.0 0.0 37.96517 0.0 0.0 0.0 60.24626" pbc="T T T"
In  0.0  0.0  0.0  -0.0  -0.0  0.0
In  3.04161  0.0  2.66227  -0.0  -0.0  -0.0
In  0.0  2.90649  2.66227  0.0  0.0  -0.0
In  3.04161  2.90649  0.0  -0.0  0.0  0.0
P  1.5208  1.45324  3.99341  -0.0  -0.0  0.0
P  4.56241  1.45324  1.33114  0.0  -0.0  0.0
P  1.5208  4.35973  1.33114  0.0  0.0  0.0
P  4.56241  4.35973  3.99341  -0.0  -0.0  0.0
8
Lattice="5.381841413 0.0 0.0 0.0 6.207972595 0.0 0.0 0.0 5.275975787" Properties=species:S:1:pos:R:3:forces:R:3 energy=-37.64901469 stress="125.96591 0.0 0.0 0.0 43.67639 0.0 0.0 0.0 127.21419" pbc="T T T"
In  0.0  0.0  0.0  -0.0  0.0  0.0
In  2.69092  0.0  2.63799  -0.0  -0.0  -0.0
In  0.0  3.10399  2.63799  0.0  -0.0  -0.0
In  2.69092  3.10399  0.0  -0.0  0.0  0.0
P  1.34546  1.55199  3.95698  -0.0  -0.0  -0.0
P  4.03638  1.55199  1.31899  -0.0  0.0  0.0
P  1.34546  4.65598  1.31899  -0.0  0.0  0.0
P  4.03638  4.65598  3.95698  -0.0  -0.0  -0.0
8
Lattice="5.179535893 0.0 0.0 0.0 5.123085032 0.0 0.0 0.0 5.58965811" Properties=species:S:1:pos:R:3:forces:R:3 energy=-33.95941672 stress="397.07011 0.0 0.0 0.0 395.46627 0.0 0.0 0.0 378.96016" pbc="T T T"
In  0.0  0.0  0.0  -0.0  -0.0  -0.0
In  2.58977  0.0  2.79483  0.0  0.0  -0.0
In  0.0  2.56154  2.79483  -0.0  -0.0  0.0