214
Lattice="17.561274918 0.0 0.0 0.0 17.561274918 0.0 0.0 0.0 17.561274918" Properties=species:S:1:pos:R:3:forces:R:3 energy=-1030.82709205 stress="-14.36507 1.34647 1.34647 1.34647 -14.36507 1.34647 1.34647 1.34647 -14.36507" pbc="T T T"
In  9.97066  7.46499  7.46499  0.030591  -0.022959  -0.022959
In  7.46499  9.97066  7.46499  -0.022959  0.030591  -0.022959
In  7.46499  7.46499  9.97066  -0.022959  -0.022959  0.030591
In  13.06171  10.30399  7.44768  -0.024455  0.049516  0.04078
In  13.06171  7.44768  10.30399  -0.024455  0.04078  0.049516
In  10.30399  13.06171  7.44768  0.049516  -0.024455  0.04078
In  10.30399  7.44768  13.06171  0.049516  0.04078  -0.024455
In  7.44768  13.06171  10.30399  0.04078  -0.024455  0.049516
In  7.44768  10.30399  13.06171  0.04078  0.049516  -0.024455
In  10.24187  10.24187  4.42573  0.003239  0.003239  0.008589
In  10.24187  4.42573  10.24187  0.003239  0.008589  0.003239
In  4.42573  10.24187  10.24187  0.008589  0.003239  0.003239
In  7.29823  7.29823  4.37487  0.011267  0.011267  0.004471
In  7.29823  4.37487  7.29823  0.011267  0.004471  0.011267
In  4.37487  7.29823  7.29823  0.004471  0.011267  0.011267
In  13.09378  13.09378  10.21458  -0.010885  -0.010885  -0.017229
In  13.09378  10.21458  13.09378  -0.010885  -0.017229  -0.010885
In  10.21458  13.09378  13.09378  -0.017229  -0.010885  -0.010885
In  13.10096  7.34178  4.46752  -0.006085  0.020622  0.011068
In  13.10096  4.46752  7.34178  -0.006085  0.011068  0.020622
In  7.34178  13.10096  4.46752  0.020622  -0.006085  0.011068
In  4.46752  13.10096  7.34178  0.011068  -0.006085  0.020622
In  7.34178  4.46752  13.10096  0.020622  0.011068  -0.006085
In  4.46752  7.34178  13.10096  0.011068  0.020622  -0.006085
In  10.2413  4.41495  4.41495  -0.010976  -0.00086  -0.00086
In  4.41495  10.2413  4.41495  -0.00086  -0.010976  -0.00086
In  4.41495  4.41495  10.2413  -0.00086  -0.00086  -0.010976
In  16.07724  10.25409  10.25409  -0.003391  0.005937  0.005937
In  10.25409  16.07724  10.25409  0.005937  -0.003391  0.005937
In  10.25409  10.25409  16.07724  0.005937  0.005937  -0.003391
In  16.07495  7.33489  7.33489  -0.003211  0.024037  0.024037
In  13.16365  13.16365  4.41674  0.008775  0.008775  0.007163
In  13.16365  4.41674  13.16365  0.008775  0.007163  0.008775
In  7.33489  16.07495  7.33489  0.024037  -0.003211  0.024037
In  7.33489  7.33489  16.07495  0.024037  0.024037  -0.003211
In  4.41674  13.16365  13.16365  0.007163  0.008775  0.008775
In  10.23888  7.33049  1.46522  0.004809  0.001572  -0.002082
In  7.33049  10.23888  1.46522  0.001572  0.004809  -0.002082
In  10.23888  1.46522  7.33049  0.004809  -0.002082  0.001572
In  7.33049  1.46522  10.23888  0.001572  -0.002082  0.004809
In  1.46522  10.23888  7.33049  -0.002082  0.004809  0.001572
In  1.46522  7.33049  10.23888  -0.002082  0.001572  0.004809
In  4.38152  4.38152  4.38152  0.006455  0.006455  0.006455
In  16.07639  13.15793  7.32871  -0.00023  0.010602  0.001167
In  13.15793  16.07639  7.32871  0.010602  -0.00023  0.001167
In  16.07639  7.32871  13.15793  -0.00023  0.001167  0.010602
In  13.15793  7.32871  16.07639  0.010602  0.001167  -0.00023
In  7.32871  16.07639  13.15793  0.001167  -0.00023  0.010602
In  7.32871  13.15793  16.07639  0.001167  0.010602  -0.00023
In  16.06769  10.2434  4.42178  -0.004584  0.026381  0.011638
In  16.06769  4.42178  10.2434  -0.004584  0.011638  0.026381
In  10.2434  16.06769  4.42178  0.026381  -0.004584  0.011638
In  10.2434  4.42178  16.06769  0.026381  0.011638  -0.004584
In  4.42178  16.06769  10.2434  0.011638  -0.004584  0.026381
In  4.42178  10.2434  16.06769  0.011638  0.026381  -0.004584
In  13.16297  10.24463  1.47271  0.007074  0.002183  0.001844
In  10.24463  13.16297  1.47271  0.002183  0.007074  0.001844
In  13.16297  1.47271  10.24463  0.007074  0.001844  0.002183
In  10.24463  1.47271  13.16297  0.002183  0.001844  0.007074
In  1.47271  13.16297  10.24463  0.001844  0.007074  0.002183
In  1.47271  10.24463  13.16297  0.001844  0.002183  0.007074
In  7.32007  4.38804  1.4502  0.015379  0.007895  0.002426
In  7.32007  1.4502  4.38804  0.015379  0.002426  0.007895
In  4.38804  7.32007  1.4502  0.007895  0.015379  0.002426
In  4.38804  1.4502  7.32007  0.007895  0.002426  0.015379
In  1.4502  7.32007  4.38804  0.002426  0.015379  0.007895
In  1.4502  4.38804  7.32007  0.002426  0.007895  0.015379
In  16.09704  13.17054  13.17054  0.004603  0.000424  0.000424
In  13.17054  16.09704  13.17054  0.000424  0.004603  0.000424
In  13.17054  13.17054  16.09704  0.000424  0.000424  0.004603
In  16.07606  4.40034  4.40034  0.008229  0.005764  0.005764
In  4.40034  16.07606  4.40034  0.005764  0.008229  0.005764
In  4.40034  4.40034  16.07606  0.005764  0.005764  0.008229
In  13.15875  4.40774  1.47185  0.007621  -0.000364  -0.001344
In  13.15875  1.47185  4.40774  0.007621  -0.001344  -0.000364
In  4.40774  13.15875  1.47185  -0.000364  0.007621  -0.001344
In  1.47185  13.15875  4.40774  -0.001344  0.007621  -0.000364
In  4.40774  1.47185  13.15875  -0.000364  -0.001344  0.007621
In  1.47185  4.40774  13.15875  -0.001344  -0.000364  0.007621
In  16.08313  16.08313  10.24899  0.001458  0.001458  -0.013305
In  16.08313  10.24899  16.08313  0.001458  -0.013305  0.001458
In  10.24899  16.08313  16.08313  -0.013305  0.001458  0.001458
In  16.07205  7.33097  1.47552  0.004731  0.008103  0.003311
In  16.07205  1.47552  7.33097  0.004731  0.003311  0.008103
In  7.33097  16.07205  1.47552  0.008103  0.004731  0.003311
In  1.47552  16.07205  7.33097  0.003311  0.004731  0.008103
In  7.33097  1.47552  16.07205  0.008103  0.003311  0.004731
In  1.47552  7.33097  16.07205  0.003311  0.008103  0.004731
In  10.24122  1.46717  1.46717  0.009576  0.001374  0.001374
In  1.46717  10.24122  1.46717  0.001374  0.009576  0.001374
In  1.46717  1.46717  10.24122  0.001374  0.001374  0.009576
In  16.09394  16.09394  4.40276  0.005639  0.005639  0.004257
In  16.09394  4.40276  16.09394  0.005639  0.004257  0.005639
In  16.10042  13.16687  1.47582  0.003614  0.006008  0.004585
In  4.40276  16.09394  16.09394  0.004257  0.005639  0.005639
In  13.16687  16.10042  1.47582  0.006008  0.003614  0.004585
In  16.10042  1.47582  13.16687  0.003614  0.004585  0.006008
In  13.16687  1.47582  16.10042  0.006008  0.004585  0.003614
In  1.47582  16.10042  13.16687  0.004585  0.003614  0.006008
In  1.47582  13.16687  16.10042  0.004585  0.006008  0.003614
In  4.39602  1.45724  1.45724  0.005901  0.007779  0.007779
In  1.45724  4.39602  1.45724  0.007779  0.005901  0.007779
In  1.45724  1.45724  4.39602  0.007779  0.007779  0.005901
In  16.10137  16.10137  16.10137  0.004803  0.004803  0.004803
In  16.09229  1.46721  1.46721  0.008328  0.006329  0.006329
In  1.46721  16.09229  1.46721  0.006329  0.008328  0.006329
In  1.46721  1.46721  16.09229  0.006329  0.006329  0.008328
P  11.50989  11.50989  9.05897  0.062552  0.062552  -0.105215
P  11.50989  9.05897  11.50989  0.062552  -0.105215  0.062552
P  9.05897  11.50989  11.50989  -0.105215  0.062552  0.062552
P  11.61618  8.7907  5.97598  -0.002126  -0.020106  -0.016372
P  11.61618  5.97598  8.7907  -0.002126  -0.016372  -0.020106
P  8.7907  11.61618  5.97598  -0.020106  -0.002126  -0.016372
P  8.7907  5.97598  11.61618  -0.020106  -0.016372  -0.002126
P  5.97598  11.61618  8.7907  -0.016372  -0.002126  -0.020106
P  5.97598  8.7907  11.61618  -0.016372  -0.020106  -0.002126
P  8.75409  5.87481  5.87481  -0.00576  -0.0149  -0.0149
P  5.87481  8.75409  5.87481  -0.0149  -0.00576  -0.0149
P  5.87481  5.87481  8.75409  -0.0149  -0.0149  -0.00576
P  14.60894  8.79674  8.79674  0.01056  -0.014831  -0.014831
P  8.79674  14.60894  8.79674  -0.014831  0.01056  -0.014831
P  8.79674  8.79674  14.60894  -0.014831  -0.014831  0.01056
P  8.78061  8.78061  2.94161  -0.00443  -0.00443  0.000699
P  8.78061  2.94161  8.78061  -0.00443  0.000699  -0.00443
P  2.94161  8.78061  8.78061  0.000699  -0.00443  -0.00443
P  14.62865  11.72122  11.72122  -0.004948  -0.007496  -0.007496
P  11.72122  14.62865  11.72122  -0.007496  -0.004948  -0.007496
P  11.72122  11.72122  14.62865  -0.007496  -0.007496  -0.004948
P  14.58497  11.68596  5.90369  0.003566  -0.023406  -0.011566
P  11.68596  14.58497  5.90369  -0.023406  0.003566  -0.011566
P  14.58497  5.90369  11.68596  0.003566  -0.011566  -0.023406
P  11.68596  5.90369  14.58497  -0.023406  -0.011566  0.003566
P  5.90369  14.58497  11.68596  -0.011566  0.003566  -0.023406
P  5.90369  11.68596  14.58497  -0.011566  -0.023406  0.003566
P  14.61425  5.87088  5.87088  -0.002235  -0.0073  -0.0073
P  11.70123  11.70123  2.94593  -0.008621  -0.008621  0.004674
P  11.70123  2.94593  11.70123  -0.008621  0.004674  -0.008621
P  5.87088  14.61425  5.87088  -0.0073  -0.002235  -0.0073
P  5.87088  5.87088  14.61425  -0.0073  -0.0073  -0.002235
P  2.94593  11.70123  11.70123  0.004674  -0.008621  -0.008621
P  11.69771  5.873  2.94425  -0.004204  -0.002797  -0.003018
P  11.69771  2.94425  5.873  -0.004204  -0.003018  -0.002797
P  5.873  11.69771  2.94425  -0.002797  -0.004204  -0.003018
P  2.94425  11.69771  5.873  -0.003018  -0.004204  -0.002797
P  5.873  2.94425  11.69771  -0.002797  -0.003018  -0.004204
P  2.94425  5.873  11.69771  -0.003018  -0.002797  -0.004204
P  5.84187  5.84187  2.90788  -0.008555  -0.008555  -0.002858
P  5.84187  2.90788  5.84187  -0.008555  -0.002858  -0.008555
P  2.90788  5.84187  5.84187  -0.002858  -0.008555  -0.008555
P  14.60792  14.60792  8.80037  -0.003456  -0.003456  0.015241
P  14.60792  8.80037  14.60792  -0.003456  0.015241  -0.003456
P  8.80037  14.60792  14.60792  0.015241  -0.003456  -0.003456
P  14.59476  8.77711  2.96858  -0.002218  -0.011218  -0.008415
P  14.59476  2.96858  8.77711  -0.002218  -0.008415  -0.011218
P  8.77711  14.59476  2.96858  -0.011218  -0.002218  -0.008415
P  8.77711  2.96858  14.59476  -0.011218  -0.008415  -0.002218
P  2.96858  14.59476  8.77711  -0.008415  -0.002218  -0.011218
P  2.96858  8.77711  14.59476  -0.008415  -0.011218  -0.002218
P  8.78081  2.93888  2.93888  -0.004428  -0.004195  -0.004195
P  2.93888  8.78081  2.93888  -0.004195  -0.004428  -0.004195
P  2.93888  2.93888  8.78081  -0.004195  -0.004195  -0.004428
P  17.56005  11.70589  8.78676  -0.001115  -0.005022  -0.001492
P  17.56005  8.78676  11.70589  -0.001115  -0.001492  -0.005022
P  11.70589  17.56005  8.78676  -0.005022  -0.001115  -0.001492
P  8.78676  17.56005  11.70589  -0.001492  -0.001115  -0.005022
P  11.70589  8.78676  17.56005  -0.005022  -0.001492  -0.001115
P  8.78676  11.70589  17.56005  -0.001492  -0.005022  -0.001115
P  17.55391  8.78336  5.86502  0.00614  -0.013002  -0.008135
P  17.55391  5.86502  8.78336  0.00614  -0.008135  -0.013002
P  8.78336  17.55391  5.86502  -0.013002  0.00614  -0.008135
P  5.86502  17.55391  8.78336  -0.008135  0.00614  -0.013002
P  8.78336  5.86502  17.55391  -0.013002  -0.008135  0.00614
P  5.86502  8.78336  17.55391  -0.008135  -0.013002  0.00614
P  14.64121  14.64121  14.64121  -0.000489  -0.000489  -0.000489
P  14.62942  14.62942  2.94118  -0.009741  -0.009741  0.000437
P  14.62942  2.94118  14.62942  -0.009741  0.000437  -0.009741
P  2.94118  14.62942  14.62942  0.000437  -0.009741  -0.009741
P  14.62304  2.9313  2.9313  -0.009716  -0.003212  -0.003212
P  2.9313  14.62304  2.9313  -0.003212  -0.009716  -0.003212
P  2.9313  2.9313  14.62304  -0.003212  -0.003212  -0.009716
P  2.91891  2.91891  2.91891  -0.007227  -0.007227  -0.007227
P  0.01051  14.63515  11.70802  -0.001724  -0.005121  -0.00311
P  0.01051  11.70802  14.63515  -0.001724  -0.00311  -0.005121
P  14.63515  0.01051  11.70802  -0.005121  -0.001724  -0.00311
P  14.63515  11.70802  0.01051  -0.005121  -0.00311  -0.001724
P  11.70802  0.01051  14.63515  -0.00311  -0.001724  -0.005121
P  11.70802  14.63515  0.01051  -0.00311  -0.005121  -0.001724
P  17.55703  14.62266  5.86578  -0.007316  -0.011747  0.001169
P  14.62266  17.55703  5.86578  -0.011747  -0.007316  0.001169
P  17.55703  5.86578  14.62266  -0.007316  0.001169  -0.011747
P  14.62266  5.86578  17.55703  -0.011747  0.001169  -0.007316
P  17.55609  11.69755  2.94832  -0.000744  -0.011199  -0.005718
P  5.86578  17.55703  14.62266  0.001169  -0.007316  -0.011747
P  5.86578  14.62266  17.55703  0.001169  -0.011747  -0.007316
P  11.69755  17.55609  2.94832  -0.011199  -0.000744  -0.005718
P  17.55609  2.94832  11.69755  -0.000744  -0.005718  -0.011199
P  11.69755  2.94832  17.55609  -0.011199  -0.005718  -0.000744
P  17.54664  5.85689  2.92589  -0.00659  -0.005671  -0.006736
P  2.94832  17.55609  11.69755  -0.005718  -0.000744  -0.011199
P  17.54664  2.92589  5.85689  -0.00659  -0.006736  -0.005671
P  2.94832  11.69755  17.55609  -0.005718  -0.011199  -0.000744
P  5.85689  17.54664  2.92589  -0.005671  -0.00659  -0.006736
P  2.92589  17.54664  5.85689  -0.006736  -0.00659  -0.005671
P  5.85689  2.92589  17.54664  -0.005671  -0.006736  -0.00659
P  2.92589  5.85689  17.54664  -0.006736  -0.005671  -0.00659
P  17.55636  17.55636  8.78127  -0.003338  -0.003338  0.001013
P  17.55636  8.78127  17.55636  -0.003338  0.001013  -0.003338
P  8.78127  17.55636  17.55636  0.001013  -0.003338  -0.003338
P  0.00443  0.00443  14.63081  -0.003349  -0.003349  -0.006668
P  0.00443  14.63081  0.00443  -0.003349  -0.006668  -0.003349
P  14.63081  0.00443  0.00443  -0.006668  -0.003349  -0.003349
P  17.55733  17.55733  2.92999  -0.00673  -0.00673  -0.006921
P  17.55733  2.92999  17.55733  -0.00673  -0.006921  -0.00673
P  2.92999  17.55733  17.55733  -0.006921  -0.00673  -0.00673
214
Lattice="17.561274918 0.0 0.0 0.0 17.561274918 0.0 0.0 0.0 17.561274918" Properties=species:S:1:pos:R:3:forces:R:3 energy=-1030.83123572 stress="-14.31848 1.19938 1.19938 1.19938 -14.31848 1.19938 1.19938 1.19938 -14.31848" pbc="T T T"
In  9.97213  7.46388  7.46388  0.021349  -0.023858  -0.023858
In  7.46388  9.97213  7.46388  -0.023858  0.021349  -0.023858
In  7.46388  7.46388  9.97213  -0.023858  -0.023858  0.021349
In  13.06053  10.30638  7.44965  -0.004182  0.021992  0.010448
In  13.06053  7.44965  10.30638  -0.004182  0.010448  0.021992
In  10.30638  13.06053  7.44965  0.021992  -0.004182  0.010448
In  10.30638  7.44965  13.06053  0.021992  0.010448  -0.004182
In  7.44965  13.06053  10.30638  0.010448  -0.004182  0.021992
In  7.44965  10.30638  13.06053  0.010448  0.021992  -0.004182
In  10.24202  10.24202  4.42615  -0.001379  -0.001379  0.005553
In  10.24202  4.42615  10.24202  -0.001379  0.005553  -0.001379
In  4.42615  10.24202  10.24202  0.005553  -0.001379  -0.001379
In  7.29877  7.29877  4.37509  0.004125  0.004125  -0.000918
In  7.29877  4.37509  7.29877  0.004125  -0.000918  0.004125
In  4.37509  7.29877  7.29877  -0.000918  0.004125  0.004125
In  13.09326  13.09326  10.21375  -0.000407  -0.000407  -0.00784
In  13.09326  10.21375  13.09326  -0.000407  -0.00784  -0.000407
In  10.21375  13.09326  13.09326  -0.00784  -0.000407  -0.000407
In  13.10066  7.34278  4.46805  -0.002076  0.008322  0.003918
In  13.10066  4.46805  7.34278  -0.002076  0.003918  0.008322
In  7.34278  13.10066  4.46805  0.008322  -0.002076  0.003918
In  4.46805  13.10066  7.34278  0.003918  -0.002076  0.008322
In  7.34278  4.46805  13.10066  0.008322  0.003918  -0.002076
In  4.46805  7.34278  13.10066  0.003918  0.008322  -0.002076
In  10.24077  4.41491  4.41491  -0.005911  -0.003761  -0.003761
In  4.41491  10.24077  4.41491  -0.003761  -0.005911  -0.003761
In  4.41491  4.41491  10.24077  -0.003761  -0.003761  -0.005911
In  16.07708  10.25437  10.25437  -0.002721  8.6e-5  8.6e-5
In  10.25437  16.07708  10.25437  8.6e-5  -0.002721  8.6e-5
In  10.25437  10.25437  16.07708  8.6e-5  8.6e-5  -0.002721
In  16.07479  7.33605  7.33605  -0.000609  0.009003  0.009003
In  13.16408  13.16408  4.41709  0.002032  0.002032  0.007159
In  13.16408  4.41709  13.16408  0.002032  0.007159  0.002032
In  7.33605  16.07479  7.33605  0.009003  -0.000609  0.009003
In  7.33605  7.33605  16.07479  0.009003  0.009003  -0.000609
In  4.41709  13.16408  13.16408  0.007159  0.002032  0.002032
In  10.23911  7.33056  1.46512  0.000662  -0.00124  -0.001559
In  7.33056  10.23911  1.46512  -0.00124  0.000662  -0.001559
In  10.23911  1.46512  7.33056  0.000662  -0.001559  -0.00124
In  7.33056  1.46512  10.23911  -0.00124  -0.001559  0.000662
In  1.46512  10.23911  7.33056  -0.001559  0.000662  -0.00124
In  1.46512  7.33056  10.23911  -0.001559  -0.00124  0.000662
In  4.38183  4.38183  4.38183  0.001739  0.001739  0.001739
In  16.07638  13.15844  7.32877  -0.00516  0.00228  0.001101
In  13.15844  16.07638  7.32877  0.00228  -0.00516  0.001101
In  16.07638  7.32877  13.15844  -0.00516  0.001101  0.00228
In  13.15844  7.32877  16.07638  0.00228  0.001101  -0.00516
In  7.32877  16.07638  13.15844  0.001101  -0.00516  0.00228
In  7.32877  13.15844  16.07638  0.001101  0.00228  -0.00516
In  16.06747  10.24468  4.42234  -0.001311  0.009642  0.003799
In  16.06747  4.42234  10.24468  -0.001311  0.003799  0.009642
In  10.24468  16.06747  4.42234  0.009642  -0.001311  0.003799
In  10.24468  4.42234  16.06747  0.009642  0.003799  -0.001311
In  4.42234  16.06747  10.24468  0.003799  -0.001311  0.009642
In  4.42234  10.24468  16.06747  0.003799  0.009642  -0.001311
In  13.16332  10.24473  1.4728  0.002167  -0.000119  0.002042
In  10.24473  13.16332  1.4728  -0.000119  0.002167  0.002042
In  13.16332  1.4728  10.24473  0.002167  0.002042  -0.000119
In  10.24473  1.4728  13.16332  -0.000119  0.002042  0.002167
In  1.4728  13.16332  10.24473  0.002042  0.002167  -0.000119
In  1.4728  10.24473  13.16332  0.002042  -0.000119  0.002167
In  7.32082  4.38842  1.45032  0.005067  0.001979  0.001352
In  7.32082  1.45032  4.38842  0.005067  0.001352  0.001979
In  4.38842  7.32082  1.45032  0.001979  0.005067  0.001352
In  4.38842  1.45032  7.32082  0.001979  0.001352  0.005067
In  1.45032  7.32082  4.38842  0.001352  0.005067  0.001979
In  1.45032  4.38842  7.32082  0.001352  0.001979  0.005067
In  16.09726  13.17056  13.17056  0.000702  -0.00102  -0.00102
In  13.17056  16.09726  13.17056  -0.00102  0.000702  -0.00102
In  13.17056  13.17056  16.09726  -0.00102  -0.00102  0.000702
In  16.07646  4.40062  4.40062  0.002556  0.002378  0.002378
In  4.40062  16.07646  4.40062  0.002378  0.002556  0.002378
In  4.40062  4.40062  16.07646  0.002378  0.002378  0.002556
In  13.15912  4.40772  1.47178  0.00109  -0.000636  -0.001746
In  13.15912  1.47178  4.40772  0.00109  -0.001746  -0.000636
In  4.40772  13.15912  1.47178  -0.000636  0.00109  -0.001746
In  1.47178  13.15912  4.40772  -0.001746  0.00109  -0.000636
In  4.40772  1.47178  13.15912  -0.000636  -0.001746  0.00109
In  1.47178  4.40772  13.15912  -0.001746  -0.000636  0.00109
In  16.0832  16.0832  10.24835  0.000845  0.000845  -0.006783
In  16.0832  10.24835  16.0832  0.000845  -0.006783  0.000845
In  10.24835  16.0832  16.0832  -0.006783  0.000845  0.000845
In  16.07228  7.33136  1.47568  0.001616  0.002782  -0.000431
In  16.07228  1.47568  7.33136  0.001616  -0.000431  0.002782
In  7.33136  16.07228  1.47568  0.002782  0.001616  -0.000431
In  1.47568  16.07228  7.33136  -0.000431  0.001616  0.002782
In  7.33136  1.47568  16.07228  0.002782  -0.000431  0.001616
In  1.47568  7.33136  16.07228  -0.000431  0.002782  0.001616
In  10.24168  1.46724  1.46724  0.003345  0.000365  0.000365
In  1.46724  10.24168  1.46724  0.000365  0.003345  0.000365
In  1.46724  1.46724  10.24168  0.000365  0.000365  0.003345
In  16.09421  16.09421  4.40297  0.000945  0.000945  0.002701
In  16.09421  4.40297  16.09421  0.000945  0.002701  0.000945
In  16.10059  13.16716  1.47604  0.001026  0.001292  0.0026
In  4.40297  16.09421  16.09421  0.002701  0.000945  0.000945
In  13.16716  16.10059  1.47604  0.001292  0.001026  0.0026
In  16.10059  1.47604  13.16716  0.001026  0.0026  0.001292
In  13.16716  1.47604  16.10059  0.001292  0.0026  0.001026
In  1.47604  16.10059  13.16716  0.0026  0.001026  0.001292
In  1.47604  13.16716  16.10059  0.0026  0.001292  0.001026
In  4.39631  1.45761  1.45761  0.002381  0.002678  0.002678
In  1.45761  4.39631  1.45761  0.002678  0.002381  0.002678
In  1.45761  1.45761  4.39631  0.002678  0.002678  0.002381
In  16.1016  16.1016  16.1016  0.0026  0.0026  0.0026
In  16.09269  1.46752  1.46752  0.001877  0.003141  0.003141
In  1.46752  16.09269  1.46752  0.003141  0.001877  0.003141
In  1.46752  1.46752  16.09269  0.003141  0.003141  0.001877
P  11.51291  11.51291  9.05389  0.046409  0.046409  -0.069147
P  11.51291  9.05389  11.51291  0.046409  -0.069147  0.046409
P  9.05389  11.51291  11.51291  -0.069147  0.046409  0.046409
P  11.61607  8.78973  5.97519  0.00385  -0.001947  -0.002551
P  11.61607  5.97519  8.78973  0.00385  -0.002551  -0.001947
P  8.78973  11.61607  5.97519  -0.001947  0.00385  -0.002551
P  8.78973  5.97519  11.61607  -0.001947  -0.002551  0.00385
P  5.97519  11.61607  8.78973  -0.002551  0.00385  -0.001947
P  5.97519  8.78973  11.61607  -0.002551  -0.001947  0.00385
P  8.75381  5.8741  5.8741  -0.005752  -0.009675  -0.009675
P  5.8741  8.75381  5.8741  -0.009675  -0.005752  -0.009675
P  5.8741  5.8741  8.75381  -0.009675  -0.009675  -0.005752
P  14.60945  8.79603  8.79603  -0.005786  -0.001317  -0.001317
P  8.79603  14.60945  8.79603  -0.001317  -0.005786  -0.001317
P  8.79603  8.79603  14.60945  -0.001317  -0.001317  -0.005786
P  8.7804  8.7804  2.94164  -3.7e-5  -3.7e-5  -0.001222
P  8.7804  2.94164  8.7804  -3.7e-5  -0.001222  -3.7e-5
P  2.94164  8.7804  8.7804  -0.001222  -3.7e-5  -3.7e-5
P  14.62841  11.72086  11.72086  -0.009945  -0.004429  -0.004429
P  11.72086  14.62841  11.72086  -0.004429  -0.009945  -0.004429
P  11.72086  11.72086  14.62841  -0.004429  -0.004429  -0.009945
P  14.58514  11.68483  5.90313  6.0e-5  -0.010142  -0.001653
P  11.68483  14.58514  5.90313  -0.010142  6.0e-5  -0.001653
P  14.58514  5.90313  11.68483  6.0e-5  -0.001653  -0.010142
P  11.68483  5.90313  14.58514  -0.010142  -0.001653  6.0e-5
P  5.90313  14.58514  11.68483  -0.001653  6.0e-5  -0.010142
P  5.90313  11.68483  14.58514  -0.001653  -0.010142  6.0e-5
P  14.61414  5.87053  5.87053  -0.000668  0.000264  0.000264
P  11.70082  11.70082  2.94616  -0.003013  -0.003013  0.004433
P  11.70082  2.94616  11.70082  -0.003013  0.004433  -0.003013
P  5.87053  14.61414  5.87053  0.000264  -0.000668  0.000264
P  5.87053  5.87053  14.61414  0.000264  0.000264  -0.000668
P  2.94616  11.70082  11.70082  0.004433  -0.003013  -0.003013
P  11.69751  5.87287  2.9441  -0.000847  -0.001458  0.000146
P  11.69751  2.9441  5.87287  -0.000847  0.000146  -0.001458
P  5.87287  11.69751  2.9441  -0.001458  -0.000847  0.000146
P  2.9441  11.69751  5.87287  0.000146  -0.000847  -0.001458
P  5.87287  2.9441  11.69751  -0.001458  0.000146  -0.000847
P  2.9441  5.87287  11.69751  0.000146  -0.001458  -0.000847
P  5.84146  5.84146  2.90774  -0.002282  -0.002282  -0.000793
P  5.84146  2.90774  5.84146  -0.002282  -0.000793  -0.002282
P  2.90774  5.84146  5.84146  -0.000793  -0.002282  -0.002282
P  14.60775  14.60775  8.8011  -0.002209  -0.002209  0.008993
P  14.60775  8.8011  14.60775  -0.002209  0.008993  -0.002209
P  8.8011  14.60775  14.60775  0.008993  -0.002209  -0.002209
P  14.59465  8.77657  2.96817  0.001933  -0.00284  -0.001607
P  14.59465  2.96817  8.77657  0.001933  -0.001607  -0.00284
P  8.77657  14.59465  2.96817  -0.00284  0.001933  -0.001607
P  8.77657  2.96817  14.59465  -0.00284  -0.001607  0.001933
P  2.96817  14.59465  8.77657  -0.001607  0.001933  -0.00284
P  2.96817  8.77657  14.59465  -0.001607  -0.00284  0.001933
P  8.7806  2.93868  2.93868  -0.001631  -0.004726  -0.004726
P  2.93868  8.7806  2.93868  -0.004726  -0.001631  -0.004726
P  2.93868  2.93868  8.7806  -0.004726  -0.004726  -0.001631
P  17.56  11.70565  8.78669  -0.001895  -0.000727  0.000347
P  17.56  8.78669  11.70565  -0.001895  0.000347  -0.000727
P  11.70565  17.56  8.78669  -0.000727  -0.001895  0.000347
P  8.78669  17.56  11.70565  0.000347  -0.001895  -0.000727
P  11.70565  8.78669  17.56  -0.000727  0.000347  -0.001895
P  8.78669  11.70565  17.56  0.000347  -0.000727  -0.001895
P  17.5542  8.78273  5.86462  7.6e-5  -0.00328  -0.003808
P  17.5542  5.86462  8.78273  7.6e-5  -0.003808  -0.00328
P  8.78273  17.5542  5.86462  -0.00328  7.6e-5  -0.003808
P  5.86462  17.5542  8.78273  -0.003808  7.6e-5  -0.00328
P  8.78273  5.86462  17.5542  -0.00328  -0.003808  7.6e-5
P  5.86462  8.78273  17.5542  -0.003808  -0.00328  7.6e-5
P  14.64119  14.64119  14.64119  -0.000198  -0.000198  -0.000198
P  14.62895  14.62895  2.9412  -0.002977  -0.002977  0.001484
P  14.62895  2.9412  14.62895  -0.002977  0.001484  -0.002977
P  2.9412  14.62895  14.62895  0.001484  -0.002977  -0.002977
P  14.62257  2.93115  2.93115  -0.002187  -0.000717  -0.000717
P  2.93115  14.62257  2.93115  -0.000717  -0.002187  -0.000717
P  2.93115  2.93115  14.62257  -0.000717  -0.000717  -0.002187
P  2.91856  2.91856  2.91856  -0.002148  -0.002148  -0.002148
P  0.01043  14.6349  11.70787  -0.001479  -0.000147  -0.001768
P  0.01043  11.70787  14.6349  -0.001479  -0.001768  -0.000147
P  14.6349  0.01043  11.70787  -0.000147  -0.001479  -0.001768
P  14.6349  11.70787  0.01043  -0.000147  -0.001768  -0.001479
P  11.70787  0.01043  14.6349  -0.001768  -0.001479  -0.000147
P  11.70787  14.6349  0.01043  -0.001768  -0.000147  -0.001479
P  17.55668  14.6221  5.86583  -0.003095  -0.003491  0.001633
P  14.6221  17.55668  5.86583  -0.003491  -0.003095  0.001633
P  17.55668  5.86583  14.6221  -0.003095  0.001633  -0.003491
P  14.6221  5.86583  17.55668  -0.003491  0.001633  -0.003095
P  17.55605  11.69701  2.94805  -0.000113  -0.003964  -0.003159
P  5.86583  17.55668  14.6221  0.001633  -0.003095  -0.003491
P  5.86583  14.6221  17.55668  0.001633  -0.003491  -0.003095
P  11.69701  17.55605  2.94805  -0.003964  -0.000113  -0.003159
P  17.55605  2.94805  11.69701  -0.000113  -0.003159  -0.003964
P  11.69701  2.94805  17.55605  -0.003964  -0.003159  -0.000113
P  17.54632  5.85662  2.92557  -0.001201  -0.000384  -0.002749
P  2.94805  17.55605  11.69701  -0.003159  -0.000113  -0.003964
P  17.54632  2.92557  5.85662  -0.001201  -0.002749  -0.000384
P  2.94805  11.69701  17.55605  -0.003159  -0.003964  -0.000113
P  5.85662  17.54632  2.92557  -0.000384  -0.001201  -0.002749
P  2.92557  17.54632  5.85662  -0.002749  -0.001201  -0.000384
P  5.85662  2.92557  17.54632  -0.000384  -0.002749  -0.001201
P  2.92557  5.85662  17.54632  -0.002749  -0.000384  -0.001201
P  17.5562  17.5562  8.78132  5.4e-5  5.4e-5  0.001237
P  17.5562  8.78132  17.5562  5.4e-5  0.001237  5.4e-5
P  8.78132  17.5562  17.5562  0.001237  5.4e-5  5.4e-5
P  0.00427  0.00427  14.63049  6.9e-5  6.9e-5  -0.001244
P  0.00427  14.63049  0.00427  6.9e-5  -0.001244  6.9e-5
P  14.63049  0.00427  0.00427  -0.001244  6.9e-5  6.9e-5
P  17.55701  17.55701  2.92965  -0.00163  -0.00163  -0.001432
P  17.55701  2.92965  17.55701  -0.00163  -0.001432  -0.00163
P  2.92965  17.55701  17.55701  -0.001432  -0.00163  -0.00163
214
Lattice="17.561274918 0.0 0.0 0.0 17.561274918 0.0 0.0 0.0 17.561274918" Properties=species:S:1:pos:R:3:forces:R:3 energy=-1030.83217247 stress="-14.27944 1.05693 1.05693 1.05693 -14.27944 1.05693 1.05693 1.05693 -14.27944" pbc="T T T"
In  9.97356  7.46281  7.46281  0.012962  -0.024817  -0.024817
In  7.46281  9.97356  7.46281  -0.024817  0.012962  -0.024817
In  7.46281  7.46281  9.97356  -0.024817  -0.024817  0.012962
In  13.05939  10.3087  7.45155  0.016149  -0.005138  -0.019415
In  13.05939  7.45155  10.3087  0.016149  -0.019415  -0.005138
In  10.3087  13.05939  7.45155  -0.005138  0.016149  -0.019415
In  10.3087  7.45155  13.05939  -0.005138  -0.019415  0.016149
In  7.45155  13.05939  10.3087  -0.019415  0.016149  -0.005138
In  7.45155  10.3087  13.05939  -0.019415  -0.005138  0.016149
In  10.24218  10.24218  4.42655  -0.005777  -0.005777  0.002842
In  10.24218  4.42655  10.24218  -0.005777  0.002842  -0.005777
In  4.42655  10.24218  10.24218  0.002842  -0.005777  -0.005777
In  7.2993  7.2993  4.3753  -0.002739  -0.002739  -0.005937
In  7.2993  4.3753  7.2993  -0.002739  -0.005937  -0.002739
In  4.3753  7.2993  7.2993  -0.005937  -0.002739  -0.002739
In  13.09275  13.09275  10.21295  0.009709  0.009709  0.001386
In  13.09275  10.21295  13.09275  0.009709  0.001386  0.009709
In  10.21295  13.09275  13.09275  0.001386  0.009709  0.009709
In  13.10038  7.34374  4.46857  0.001807  -0.003387  -0.00289
In  13.10038  4.46857  7.34374  0.001807  -0.00289  -0.003387
In  7.34374  13.10038  4.46857  -0.003387  0.001807  -0.00289
In  4.46857  13.10038  7.34374  -0.00289  0.001807  -0.003387
In  7.34374  4.46857  13.10038  -0.003387  -0.00289  0.001807
In  4.46857  7.34374  13.10038  -0.00289  -0.003387  0.001807
In  10.24026  4.41487  4.41487  -0.00093  -0.006538  -0.006538
In  4.41487  10.24026  4.41487  -0.006538  -0.00093  -0.006538
In  4.41487  4.41487  10.24026  -0.006538  -0.006538  -0.00093
In  16.07692  10.25465  10.25465  -0.002288  -0.005418  -0.005418
In  10.25465  16.07692  10.25465  -0.005418  -0.002288  -0.005418
In  10.25465  10.25465  16.07692  -0.005418  -0.005418  -0.002288
In  16.07464  7.33718  7.33718  0.001846  -0.005217  -0.005217
In  13.16449  13.16449  4.41742  -0.004514  -0.004514  0.007288
In  13.16449  4.41742  13.16449  -0.004514  0.007288  -0.004514
In  7.33718  16.07464  7.33718  -0.005217  0.001846  -0.005217
In  7.33718  7.33718  16.07464  -0.005217  -0.005217  0.001846
In  4.41742  13.16449  13.16449  0.007288  -0.004514  -0.004514
In  10.23934  7.33064  1.46502  -0.003229  -0.003912  -0.001121
In  7.33064  10.23934  1.46502  -0.003912  -0.003229  -0.001121
In  10.23934  1.46502  7.33064  -0.003229  -0.001121  -0.003912
In  7.33064  1.46502  10.23934  -0.003912  -0.001121  -0.003229
In  1.46502  10.23934  7.33064  -0.001121  -0.003229  -0.003912
In  1.46502  7.33064  10.23934  -0.001121  -0.003912  -0.003229
In  4.38213  4.38213  4.38213  -0.002895  -0.002895  -0.002895
In  16.07637  13.15894  7.32882  -0.010023  -0.005612  0.001059
In  13.15894  16.07637  7.32882  -0.005612  -0.010023  0.001059