216
Lattice="17.561274918 0.0 0.0 0.0 17.561274918 0.0 0.0 0.0 17.561274918" Properties=species:S:1:pos:R:3:forces:R:3 energy=-1042.70785622 stress="-9.00411 -0.05772 -0.05772 -0.05772 -9.00411 -0.05772 -0.05772 -0.05772 -9.00411" pbc="T T T"
In  8.84114  8.84114  8.84114  0.337392  0.337392  0.337392
In  10.31178  7.32211  7.32211  0.29298  -0.324516  -0.324516
In  7.32211  10.31178  7.32211  -0.324516  0.29298  -0.324516
In  7.32211  7.32211  10.31178  -0.324516  -0.324516  0.29298
In  13.11495  10.17928  7.34499  -0.009026  0.025546  0.003185
In  13.11495  7.34499  10.17928  -0.009026  0.003185  0.025546
In  10.17928  13.11495  7.34499  0.025546  -0.009026  0.003185
In  10.17928  7.34499  13.11495  0.025546  0.003185  -0.009026
In  7.34499  13.11495  10.17928  0.003185  -0.009026  0.025546
In  7.34499  10.17928  13.11495  0.003185  0.025546  -0.009026
In  10.24382  10.24382  4.39164  0.000235  0.000235  -0.002275
In  10.24382  4.39164  10.24382  0.000235  -0.002275  0.000235
In  4.39164  10.24382  10.24382  -0.002275  0.000235  0.000235
In  7.32203  7.32203  4.41989  -0.002665  -0.002665  -0.005731
In  7.32203  4.41989  7.32203  -0.002665  -0.005731  -0.002665
In  4.41989  7.32203  7.32203  -0.005731  -0.002665  -0.002665
In  13.17039  13.17039  10.29351  -0.00103  -0.00103  -0.009085
In  13.17039  10.29351  13.17039  -0.00103  -0.009085  -0.00103
In  10.29351  13.17039  13.17039  -0.009085  -0.00103  -0.00103
In  13.21075  7.31525  4.34891  0.004191  -0.018223  -0.00562
In  13.21075  4.34891  7.31525  0.004191  -0.00562  -0.018223
In  7.31525  13.21075  4.34891  -0.018223  0.004191  -0.00562
In  4.34891  13.21075  7.31525  -0.00562  0.004191  -0.018223
In  7.31525  4.34891  13.21075  -0.018223  -0.00562  0.004191
In  4.34891  7.31525  13.21075  -0.00562  -0.018223  0.004191
In  10.2349  4.38711  4.38711  0.010843  -0.002832  -0.002832
In  4.38711  10.2349  4.38711  -0.002832  0.010843  -0.002832
In  4.38711  4.38711  10.2349  -0.002832  -0.002832  0.010843
In  16.11326  10.24442  10.24442  0.000243  0.002095  0.002095
In  10.24442  16.11326  10.24442  0.002095  0.000243  0.002095
In  10.24442  10.24442  16.11326  0.002095  0.002095  0.000243
In  16.10257  7.30604  7.30604  -0.002049  0.002256  0.002256
In  13.16275  13.16275  4.39696  0.001098  0.001098  0.003276
In  13.16275  4.39696  13.16275  0.001098  0.003276  0.001098
In  7.30604  16.10257  7.30604  0.002256  -0.002049  0.002256
In  7.30604  7.30604  16.10257  0.002256  0.002256  -0.002049
In  4.39696  13.16275  13.16275  0.003276  0.001098  0.001098
In  10.24226  7.31667  1.47192  0.001894  -0.002465  -0.001253
In  7.31667  10.24226  1.47192  -0.002465  0.001894  -0.001253
In  10.24226  1.47192  7.31667  0.001894  -0.001253  -0.002465
In  7.31667  1.47192  10.24226  -0.002465  -0.001253  0.001894
In  1.47192  10.24226  7.31667  -0.001253  0.001894  -0.002465
In  1.47192  7.31667  10.24226  -0.001253  -0.002465  0.001894
In  4.39328  4.39328  4.39328  0.004013  0.004013  0.004013
In  16.09335  13.16487  7.3193  -0.000627  0.000171  -0.002973
In  13.16487  16.09335  7.3193  0.000171  -0.000627  -0.002973
In  16.09335  7.3193  13.16487  -0.000627  -0.002973  0.000171
In  13.16487  7.3193  16.09335  0.000171  -0.002973  -0.000627
In  7.3193  16.09335  13.16487  -0.002973  -0.000627  0.000171
In  7.3193  13.16487  16.09335  -0.002973  0.000171  -0.000627
In  16.07367  10.24558  4.41526  -0.001794  0.011263  0.002974
In  16.07367  4.41526  10.24558  -0.001794  0.002974  0.011263
In  10.24558  16.07367  4.41526  0.011263  -0.001794  0.002974
In  10.24558  4.41526  16.07367  0.011263  0.002974  -0.001794
In  4.41526  16.07367  10.24558  0.002974  -0.001794  0.011263
In  4.41526  10.24558  16.07367  0.002974  0.011263  -0.001794
In  13.17234  10.24707  1.46228  -0.000573  -0.003119  0.000223
In  10.24707  13.17234  1.46228  -0.003119  -0.000573  0.000223
In  13.17234  1.46228  10.24707  -0.000573  0.000223  -0.003119
In  10.24707  1.46228  13.17234  -0.003119  0.000223  -0.000573
In  1.46228  13.17234  10.24707  0.000223  -0.000573  -0.003119
In  1.46228  10.24707  13.17234  0.000223  -0.003119  -0.000573
In  7.31579  4.38984  1.46656  0.001961  0.001714  -0.001381
In  7.31579  1.46656  4.38984  0.001961  -0.001381  0.001714
In  4.38984  7.31579  1.46656  0.001714  0.001961  -0.001381
In  4.38984  1.46656  7.31579  0.001714  -0.001381  0.001961
In  1.46656  7.31579  4.38984  -0.001381  0.001961  0.001714
In  1.46656  4.38984  7.31579  -0.001381  0.001714  0.001961
In  16.1125  13.18324  13.18324  0.002116  0.002789  0.002789
In  13.18324  16.1125  13.18324  0.002789  0.002116  0.002789
In  13.18324  13.18324  16.1125  0.002789  0.002789  0.002116
In  16.10406  4.38615  4.38615  -0.004789  -0.002893  -0.002893
In  4.38615  16.10406  4.38615  -0.002893  -0.004789  -0.002893
In  4.38615  4.38615  16.10406  -0.002893  -0.002893  -0.004789
In  13.16878  4.3885  1.45929  0.00442  0.000328  -0.000632
In  13.16878  1.45929  4.3885  0.00442  -0.000632  0.000328
In  4.3885  13.16878  1.45929  0.000328  0.00442  -0.000632
In  1.45929  13.16878  4.3885  -0.000632  0.00442  0.000328
In  4.3885  1.45929  13.16878  0.000328  -0.000632  0.00442
In  1.45929  4.3885  13.16878  -0.000632  0.000328  0.00442
In  16.08098  16.08098  10.2467  -0.000961  -0.000961  -0.002984
In  16.08098  10.2467  16.08098  -0.000961  -0.002984  -0.000961
In  10.2467  16.08098  16.08098  -0.002984  -0.000961  -0.000961
In  16.1105  7.31601  1.45063  -0.005808  -0.009154  -0.002702
In  16.1105  1.45063  7.31601  -0.005808  -0.002702  -0.009154
In  7.31601  16.1105  1.45063  -0.009154  -0.005808  -0.002702
In  1.45063  16.1105  7.31601  -0.002702  -0.005808  -0.009154
In  7.31601  1.45063  16.1105  -0.009154  -0.002702  -0.005808
In  1.45063  7.31601  16.1105  -0.002702  -0.009154  -0.005808
In  10.24549  1.45371  1.45371  0.009721  -0.000922  -0.000922
In  1.45371  10.24549  1.45371  -0.000922  0.009721  -0.000922
In  1.45371  1.45371  10.24549  -0.000922  -0.000922  0.009721
In  16.09598  16.09598  4.38917  -0.001729  -0.001729  0.000581
In  16.09598  4.38917  16.09598  -0.001729  0.000581  -0.001729
In  16.09785  13.16949  1.46695  0.001007  0.004742  0.002798
In  4.38917  16.09598  16.09598  0.000581  -0.001729  -0.001729
In  13.16949  16.09785  1.46695  0.004742  0.001007  0.002798
In  16.09785  1.46695  13.16949  0.001007  0.002798  0.004742
In  13.16949  1.46695  16.09785  0.004742  0.002798  0.001007
In  1.46695  16.09785  13.16949  0.002798  0.001007  0.004742
In  1.46695  13.16949  16.09785  0.002798  0.004742  0.001007
In  4.38783  1.46521  1.46521  -0.000381  -0.003367  -0.003367
In  1.46521  4.38783  1.46521  -0.003367  -0.000381  -0.003367
In  1.46521  1.46521  4.38783  -0.003367  -0.003367  -0.000381
In  16.10087  16.10087  16.10087  0.004024  0.004024  0.004024
In  16.09854  1.46407  1.46407  -0.001716  -0.001171  -0.001171
In  1.46407  16.09854  1.46407  -0.001171  -0.001716  -0.001171
In  1.46407  1.46407  16.09854  -0.001171  -0.001171  -0.001716
P  10.30211  10.30211  10.30211  0.036048  0.036048  0.036048
P  11.60621  11.60621  8.9722  -0.041317  -0.041317  0.024709
P  11.60621  8.9722  11.60621  -0.041317  0.024709  -0.041317
P  8.9722  11.60621  11.60621  0.024709  -0.041317  -0.041317
P  11.74232  8.7541  5.79074  -0.012968  0.004424  0.010889
P  11.74232  5.79074  8.7541  -0.012968  0.010889  0.004424
P  8.7541  11.74232  5.79074  0.004424  -0.012968  0.010889
P  8.7541  5.79074  11.74232  0.004424  0.010889  -0.012968
P  5.79074  11.74232  8.7541  0.010889  -0.012968  0.004424
P  5.79074  8.7541  11.74232  0.010889  0.004424  -0.012968
P  8.80947  5.85693  5.85693  0.003368  0.009155  0.009155
P  5.85693  8.80947  5.85693  0.009155  0.003368  0.009155
P  5.85693  5.85693  8.80947  0.009155  0.009155  0.003368
P  14.64601  8.78261  8.78261  0.006137  -0.004617  -0.004617
P  8.78261  14.64601  8.78261  -0.004617  0.006137  -0.004617
P  8.78261  8.78261  14.64601  -0.004617  -0.004617  0.006137
P  8.77819  8.77819  2.93196  -0.000282  -0.000282  0.000321
P  8.77819  2.93196  8.77819  -0.000282  0.000321  -0.000282
P  2.93196  8.77819  8.77819  0.000321  -0.000282  -0.000282
P  14.6608  11.71455  11.71455  0.010123  0.003895  0.003895
P  11.71455  14.6608  11.71455  0.003895  0.010123  0.003895
P  11.71455  11.71455  14.6608  0.003895  0.003895  0.010123
P  14.58396  11.6988  5.9049  0.001127  -0.017104  -0.005157
P  11.6988  14.58396  5.9049  -0.017104  0.001127  -0.005157
P  14.58396  5.9049  11.6988  0.001127  -0.005157  -0.017104
P  11.6988  5.9049  14.58396  -0.017104  -0.005157  0.001127
P  5.9049  14.58396  11.6988  -0.005157  0.001127  -0.017104
P  5.9049  11.6988  14.58396  -0.005157  -0.017104  0.001127
P  14.63936  5.84544  5.84544  -0.003371  0.000547  0.000547
P  11.70709  11.70709  2.92285  -0.000921  -0.000921  -0.002128
P  11.70709  2.92285  11.70709  -0.000921  -0.002128  -0.000921
P  5.84544  14.63936  5.84544  0.000547  -0.003371  0.000547
P  5.84544  5.84544  14.63936  0.000547  0.000547  -0.003371
P  2.92285  11.70709  11.70709  -0.002128  -0.000921  -0.000921
P  11.71043  5.84818  2.92413  9.1e-5  0.002471  0.001404
P  11.71043  2.92413  5.84818  9.1e-5  0.001404  0.002471
P  5.84818  11.71043  2.92413  0.002471  9.1e-5  0.001404
P  2.92413  11.71043  5.84818  0.001404  9.1e-5  0.002471
P  5.84818  2.92413  11.71043  0.002471  0.001404  9.1e-5
P  2.92413  5.84818  11.71043  0.001404  0.002471  9.1e-5
P  5.86089  5.86089  2.93389  0.001528  0.001528  -0.002143
P  5.86089  2.93389  5.86089  0.001528  -0.002143  0.001528
P  2.93389  5.86089  5.86089  -0.002143  0.001528  0.001528
P  14.60952  14.60952  8.78263  0.0023  0.0023  0.010615
P  14.60952  8.78263  14.60952  0.0023  0.010615  0.0023
P  8.78263  14.60952  14.60952  0.010615  0.0023  0.0023
P  14.66056  8.78831  2.90108  -0.00659  0.002331  0.004103
P  14.66056  2.90108  8.78831  -0.00659  0.004103  0.002331
P  8.78831  14.66056  2.90108  0.002331  -0.00659  0.004103
P  8.78831  2.90108  14.66056  0.002331  0.004103  -0.00659
P  2.90108  14.66056  8.78831  0.004103  -0.00659  0.002331
P  2.90108  8.78831  14.66056  0.004103  0.002331  -0.00659
P  8.78304  2.915  2.915  0.003083  0.00428  0.00428
P  2.915  8.78304  2.915  0.00428  0.003083  0.00428
P  2.915  2.915  8.78304  0.00428  0.00428  0.003083
P  0.00361  11.70841  8.77803  0.006543  -0.001476  0.001642
P  0.00361  8.77803  11.70841  0.006543  0.001642  -0.001476
P  11.70841  0.00361  8.77803  -0.001476  0.006543  0.001642
P  8.77803  0.00361  11.70841  0.001642  0.006543  -0.001476
P  11.70841  8.77803  0.00361  -0.001476  0.001642  0.006543
P  8.77803  11.70841  0.00361  0.001642  -0.001476  0.006543
P  17.56053  8.78312  5.85483  0.003317  -0.000339  0.001665
P  17.56053  5.85483  8.78312  0.003317  0.001665  -0.000339
P  8.78312  17.56053  5.85483  -0.000339  0.003317  0.001665
P  5.85483  17.56053  8.78312  0.001665  0.003317  -0.000339
P  8.78312  5.85483  17.56053  -0.000339  0.001665  0.003317
P  5.85483  8.78312  17.56053  0.001665  -0.000339  0.003317
P  14.63746  14.63746  14.63746  0.00339  0.00339  0.00339
P  14.62868  14.62868  2.9329  -0.005599  -0.005599  0.002461
P  14.62868  2.9329  14.62868  -0.005599  0.002461  -0.005599
P  2.9329  14.62868  14.62868  0.002461  -0.005599  -0.005599
P  14.63349  2.92498  2.92498  -0.006163  0.00115  0.00115
P  2.92498  14.63349  2.92498  0.00115  -0.006163  0.00115
P  2.92498  2.92498  14.63349  0.00115  0.00115  -0.006163
P  2.92835  2.92835  2.92835  0.003589  0.003589  0.003589
P  17.56052  14.63661  11.70818  0.005338  0.002388  0.000172
P  17.56052  11.70818  14.63661  0.005338  0.000172  0.002388
P  14.63661  17.56052  11.70818  0.002388  0.005338  0.000172
P  14.63661  11.70818  17.56052  0.002388  0.000172  0.005338
P  11.70818  17.56052  14.63661  0.000172  0.005338  0.002388
P  11.70818  14.63661  17.56052  0.000172  0.002388  0.005338
P  17.55481  14.63166  5.8552  -0.001166  -0.003867  0.005094
P  14.63166  17.55481  5.8552  -0.003867  -0.001166  0.005094
P  17.55481  5.8552  14.63166  -0.001166  0.005094  -0.003867
P  14.63166  5.8552  17.55481  -0.003867  0.005094  -0.001166
P  17.5476  11.70378  2.93761  0.000417  -0.008218  0.000412
P  5.8552  17.55481  14.63166  0.005094  -0.001166  -0.003867
P  5.8552  14.63166  17.55481  0.005094  -0.003867  -0.001166
P  11.70378  17.5476  2.93761  -0.008218  0.000417  0.000412
P  17.5476  2.93761  11.70378  0.000417  0.000412  -0.008218
P  11.70378  2.93761  17.5476  -0.008218  0.000412  0.000417
P  0.00233  5.85227  2.92362  -0.002652  0.006107  -4.0e-6
P  2.93761  17.5476  11.70378  0.000412  0.000417  -0.008218
P  0.00233  2.92362  5.85227  -0.002652  -4.0e-6  0.006107
P  2.93761  11.70378  17.5476  0.000412  -0.008218  0.000417
P  5.85227  0.00233  2.92362  0.006107  -0.002652  -4.0e-6
P  2.92362  0.00233  5.85227  -4.0e-6  -0.002652  0.006107
P  5.85227  2.92362  0.00233  0.006107  -4.0e-6  -0.002652
P  2.92362  5.85227  0.00233  -4.0e-6  0.006107  -0.002652
P  17.54682  17.54682  8.78865  0.001291  0.001291  0.005822
P  17.54682  8.78865  17.54682  0.001291  0.005822  0.001291
P  8.78865  17.54682  17.54682  0.005822  0.001291  0.001291
P  0.00114  0.00114  14.63333  -0.000648  -0.000648  -0.006313
P  0.00114  14.63333  0.00114  -0.000648  -0.006313  -0.000648
P  14.63333  0.00114  0.00114  -0.006313  -0.000648  -0.000648
P  17.56063  17.56063  2.92715  -0.002225  -0.002225  0.001497
P  17.56063  2.92715  17.56063  -0.002225  0.001497  -0.002225
P  2.92715  17.56063  17.56063  0.001497  -0.002225  -0.002225
216
Lattice="17.561274918 0.0 0.0 0.0 17.561274918 0.0 0.0 0.0 17.561274918" Properties=species:S:1:pos:R:3:forces:R:3 energy=-1042.75318385 stress="-9.01823 0.08426 0.08426 0.08426 -9.01823 0.08426 0.08426 0.08426 -9.01823" pbc="T T T"
In  8.8672  8.8672  8.8672  -0.000193  -0.000193  -0.000193
In  10.33312  7.29449  7.29449  -0.001976  0.000466  0.000466
In  7.29449  10.33312  7.29449  0.000466  -0.001976  0.000466
In  7.29449  7.29449  10.33312  0.000466  0.000466  -0.001976
In  13.11251  10.18305  7.34903  -0.002496  -0.00266  -0.000436
In  13.11251  7.34903  10.18305  -0.002496  -0.000436  -0.00266
In  10.18305  13.11251  7.34903  -0.00266  -0.002496  -0.000436
In  10.18305  7.34903  13.11251  -0.00266  -0.000436  -0.002496
In  7.34903  13.11251  10.18305  -0.000436  -0.002496  -0.00266
In  7.34903  10.18305  13.11251  -0.000436  -0.00266  -0.002496
In  10.24335  10.24335  4.38801  -0.000394  -0.000394  0.003565
In  10.24335  4.38801  10.24335  -0.000394  0.003565  -0.000394
In  4.38801  10.24335  10.24335  0.003565  -0.000394  -0.000394
In  7.32184  7.32184  4.41474  -0.000281  -0.000281  0.00262
In  7.32184  4.41474  7.32184  -0.000281  0.00262  -0.000281
In  4.41474  7.32184  7.32184  0.00262  -0.000281  -0.000281
In  13.17377  13.17377  10.29424  0.000712  0.000712  0.001017
In  13.17377  10.29424  13.17377  0.000712  0.001017  0.000712
In  10.29424  13.17377  13.17377  0.001017  0.000712  0.000712
In  13.21489  7.31289  4.34487  -0.000127  0.001339  0.001286
In  13.21489  4.34487  7.31289  -0.000127  0.001286  0.001339
In  7.31289  13.21489  4.34487  0.001339  -0.000127  0.001286
In  4.34487  13.21489  7.31289  0.001286  -0.000127  0.001339
In  7.31289  4.34487  13.21489  0.001339  0.001286  -0.000127
In  4.34487  7.31289  13.21489  0.001286  0.001339  -0.000127
In  10.23798  4.38264  4.38264  -0.000792  0.000213  0.000213
In  4.38264  10.23798  4.38264  0.000213  -0.000792  0.000213
In  4.38264  4.38264  10.23798  0.000213  0.000213  -0.000792
In  16.11292  10.24553  10.24553  0.000572  0.000192  0.000192
In  10.24553  16.11292  10.24553  0.000192  0.000572  0.000192
In  10.24553  10.24553  16.11292  0.000192  0.000192  0.000572
In  16.10172  7.30672  7.30672  -0.000737  0.00052  0.00052
In  13.16158  13.16158  4.39888  0.00021  0.00021  -7.3e-5
In  13.16158  4.39888  13.16158  0.00021  -7.3e-5  0.00021
In  7.30672  16.10172  7.30672  0.00052  -0.000737  0.00052
In  7.30672  7.30672  16.10172  0.00052  0.00052  -0.000737
In  4.39888  13.16158  13.16158  -7.3e-5  0.00021  0.00021
In  10.24303  7.31586  1.47093  0.000554  0.000464  -0.00147
In  7.31586  10.24303  1.47093  0.000464  0.000554  -0.00147
In  10.24303  1.47093  7.31586  0.000554  -0.00147  0.000464
In  7.31586  1.47093  10.24303  0.000464  -0.00147  0.000554
In  1.47093  10.24303  7.31586  -0.00147  0.000554  0.000464
In  1.47093  7.31586  10.24303  -0.00147  0.000464  0.000554
In  4.39443  4.39443  4.39443  -0.002102  -0.002102  -0.002102
In  16.09188  13.16356  7.31989  -0.000429  -0.00064  0.000242
In  13.16356  16.09188  7.31989  -0.00064  -0.000429  0.000242
In  16.09188  7.31989  13.16356  -0.000429  0.000242  -0.00064
In  13.16356  7.31989  16.09188  -0.00064  0.000242  -0.000429
In  7.31989  16.09188  13.16356  0.000242  -0.000429  -0.00064
In  7.31989  13.16356  16.09188  0.000242  -0.00064  -0.000429
In  16.0735  10.24613  4.41569  -0.000482  -0.000178  -0.000467
In  16.0735  4.41569  10.24613  -0.000482  -0.000467  -0.000178
In  10.24613  16.0735  4.41569  -0.000178  -0.000482  -0.000467
In  10.24613  4.41569  16.0735  -0.000178  -0.000467  -0.000482
In  4.41569  16.0735  10.24613  -0.000467  -0.000482  -0.000178
In  4.41569  10.24613  16.0735  -0.000467  -0.000178  -0.000482
In  13.17267  10.2466  1.46242  0.000678  0.000706  -0.000687
In  10.2466  13.17267  1.46242  0.000706  0.000678  -0.000687
In  13.17267  1.46242  10.2466  0.000678  -0.000687  0.000706
In  10.2466  1.46242  13.17267  0.000706  -0.000687  0.000678
In  1.46242  13.17267  10.2466  -0.000687  0.000678  0.000706
In  1.46242  10.2466  13.17267  -0.000687  0.000706  0.000678
In  7.31667  4.38934  1.46555  -0.000183  -0.001137  -0.002541
In  7.31667  1.46555  4.38934  -0.000183  -0.002541  -0.001137
In  4.38934  7.31667  1.46555  -0.001137  -0.000183  -0.002541
In  4.38934  1.46555  7.31667  -0.001137  -0.002541  -0.000183
In  1.46555  7.31667  4.38934  -0.002541  -0.000183  -0.001137
In  1.46555  4.38934  7.31667  -0.002541  -0.001137  -0.000183
In  16.11468  13.18489  13.18489  0.002625  0.004142  0.004142
In  13.18489  16.11468  13.18489  0.004142  0.002625  0.004142
In  13.18489  13.18489  16.11468  0.004142  0.004142  0.002625
In  16.10384  4.38526  4.38526  0.000455  -0.001091  -0.001091
In  4.38526  16.10384  4.38526  -0.001091  0.000455  -0.001091
In  4.38526  4.38526  16.10384  -0.001091  -0.001091  0.000455
In  13.16945  4.38873  1.45813  0.002013  -0.001144  -0.000989
In  13.16945  1.45813  4.38873  0.002013  -0.000989  -0.001144
In  4.38873  13.16945  1.45813  -0.001144  0.002013  -0.000989
In  1.45813  13.16945  4.38873  -0.000989  0.002013  -0.001144
In  4.38873  1.45813  13.16945  -0.001144  -0.000989  0.002013
In  1.45813  4.38873  13.16945  -0.000989  -0.001144  0.002013
In  16.08224  16.08224  10.24717  0.000497  0.000497  0.0031
In  16.08224  10.24717  16.08224  0.000497  0.0031  0.000497
In  10.24717  16.08224  16.08224  0.0031  0.000497  0.000497
In  16.10965  7.31546  1.44869  -0.001546  -0.000908  -1.8e-5
In  16.10965  1.44869  7.31546  -0.001546  -1.8e-5  -0.000908
In  7.31546  16.10965  1.44869  -0.000908  -0.001546  -1.8e-5
In  1.44869  16.10965  7.31546  -1.8e-5  -0.001546  -0.000908
In  7.31546  1.44869  16.10965  -0.000908  -1.8e-5  -0.001546
In  1.44869  7.31546  16.10965  -1.8e-5  -0.000908  -0.001546
In  10.24661  1.45271  1.45271  0.001465  -0.000228  -0.000228
In  1.45271  10.24661  1.45271  -0.000228  0.001465  -0.000228
In  1.45271  1.45271  10.24661  -0.000228  -0.000228  0.001465
In  16.09486  16.09486  4.39003  -0.000679  -0.000679  -0.001071
In  16.09486  4.39003  16.09486  -0.000679  -0.001071  -0.000679
In  16.09801  13.16993  1.46877  -0.001084  0.000839  0.000766
In  4.39003  16.09486  16.09486  -0.001071  -0.000679  -0.000679
In  13.16993  16.09801  1.46877  0.000839  -0.001084  0.000766
In  16.09801  1.46877  13.16993  -0.001084  0.000766  0.000839
In  13.16993  1.46877  16.09801  0.000839  0.000766  -0.001084
In  1.46877  16.09801  13.16993  0.000766  -0.001084  0.000839
In  1.46877  13.16993  16.09801  0.000766  0.000839  -0.001084
In  4.38835  1.4647  1.4647  -0.001803  0.000494  0.000494
In  1.4647  4.38835  1.4647  0.000494  -0.001803  0.000494
In  1.4647  1.4647  4.38835  0.000494  0.000494  -0.001803
In  16.10272  16.10272  16.10272  -0.000158  -0.000158  -0.000158
In  16.09792  1.4638  1.4638  0.000541  0.000784  0.000784
In  1.4638  16.09792  1.4638  0.000784  0.000541  0.000784
In  1.4638  1.4638  16.09792  0.000784  0.000784  0.000541
P  10.31601  10.31601  10.31601  -0.001826  -0.001826  -0.001826
P  11.60895  11.60895  8.97842  0.000976  0.000976  0.003348
P  11.60895  8.97842  11.60895  0.000976  0.003348  0.000976
P  8.97842  11.60895  11.60895  0.003348  0.000976  0.000976
P  11.74835  8.75748  5.78476  -0.004564  -0.000697  0.001938
P  11.74835  5.78476  8.75748  -0.004564  0.001938  -0.000697
P  8.75748  11.74835  5.78476  -0.000697  -0.004564  0.001938
P  8.75748  5.78476  11.74835  -0.000697  0.001938  -0.004564
P  5.78476  11.74835  8.75748  0.001938  -0.004564  -0.000697
P  5.78476  8.75748  11.74835  0.001938  -0.000697  -0.004564
P  8.80574  5.84956  5.84956  -0.002005  0.000733  0.000733
P  5.84956  8.80574  5.84956  0.000733  -0.002005  0.000733
P  5.84956  5.84956  8.80574  0.000733  0.000733  -0.002005
P  14.64548  8.78311  8.78311  -0.002157  0.00101  0.00101
P  8.78311  14.64548  8.78311  0.00101  -0.002157  0.00101
P  8.78311  8.78311  14.64548  0.00101  0.00101  -0.002157
P  8.77811  8.77811  2.9293  -0.000345  -0.000345  0.002345
P  8.77811  2.9293  8.77811  -0.000345  0.002345  -0.000345
P  2.9293  8.77811  8.77811  0.002345  -0.000345  -0.000345
P  14.66278  11.71668  11.71668  0.005359  0.001984  0.001984
P  11.71668  14.66278  11.71668  0.001984  0.005359  0.001984
P  11.71668  11.71668  14.66278  0.001984  0.001984  0.005359
P  14.58305  11.6965  5.90522  -0.000992  -0.000749  0.001671
P  11.6965  14.58305  5.90522  -0.000749  -0.000992  0.001671
P  14.58305  5.90522  11.6965  -0.000992  0.001671  -0.000749
P  11.6965  5.90522  14.58305  -0.000749  0.001671  -0.000992
P  5.90522  14.58305  11.6965  0.001671  -0.000992  -0.000749
P  5.90522  11.6965  14.58305  0.001671  -0.000749  -0.000992
P  14.64015  5.84512  5.84512  -0.000233  -0.000314  -0.000314
P  11.70746  11.70746  2.92167  -0.00171  -0.00171  0.000652
P  11.70746  2.92167  11.70746  -0.00171  0.000652  -0.00171
P  5.84512  14.64015  5.84512  -0.000314  -0.000233  -0.000314
P  5.84512  5.84512  14.64015  -0.000314  -0.000314  -0.000233
P  2.92167  11.70746  11.70746  0.000652  -0.00171  -0.00171
P  11.71111  5.84803  2.92313  0.000751  0.000234  0.000619
P  11.71111  2.92313  5.84803  0.000751  0.000619  0.000234
P  5.84803  11.71111  2.92313  0.000234  0.000751  0.000619
P  2.92313  11.71111  5.84803  0.000619  0.000751  0.000234
P  5.84803  2.92313  11.71111  0.000234  0.000619  0.000751
P  2.92313  5.84803  11.71111  0.000619  0.000234  0.000751
P  5.86024  5.86024  2.93153  0.000189  0.000189  -0.000791
P  5.86024  2.93153  5.86024  0.000189  -0.000791  0.000189
P  2.93153  5.86024  5.86024  -0.000791  0.000189  0.000189
P  14.61141  14.61141  8.78375  0.001823  0.001823  0.000242
P  14.61141  8.78375  14.61141  0.001823  0.000242  0.001823
P  8.78375  14.61141  14.61141  0.000242  0.001823  0.001823
P  14.66215  8.789  2.89968  0.000804  -0.001189  0.000165
P  14.66215  2.89968  8.789  0.000804  0.000165  -0.001189
P  8.789  14.66215  2.89968  -0.001189  0.000804  0.000165
P  8.789  2.89968  14.66215  -0.001189  0.000165  0.000804
P  2.89968  14.66215  8.789  0.000165  0.000804  -0.001189
P  2.89968  8.789  14.66215  0.000165  -0.001189  0.000804
P  8.78335  2.91328  2.91328  0.001057  -0.000787  -0.000787
P  2.91328  8.78335  2.91328  -0.000787  0.001057  -0.000787
P  2.91328  2.91328  8.78335  -0.000787  -0.000787  0.001057
P  0.00415  11.70835  8.77837  -0.000775  -0.000284  0.000294
P  0.00415  8.77837  11.70835  -0.000775  0.000294  -0.000284
P  11.70835  0.00415  8.77837  -0.000284  -0.000775  0.000294
P  8.77837  0.00415  11.70835  0.000294  -0.000775  -0.000284
P  11.70835  8.77837  0.00415  -0.000284  0.000294  -0.000775
P  8.77837  11.70835  0.00415  0.000294  -0.000284  -0.000775
P  17.56023  8.78328  5.85522  -0.001128  -0.000238  -0.000173
P  17.56023  5.85522  8.78328  -0.001128  -0.000173  -0.000238
P  8.78328  17.56023  5.85522  -0.000238  -0.001128  -0.000173
P  5.85522  17.56023  8.78328  -0.000173  -0.001128  -0.000238
P  8.78328  5.85522  17.56023  -0.000238  -0.000173  -0.001128
P  5.85522  8.78328  17.56023  -0.000173  -0.000238  -0.001128
P  14.63925  14.63925  14.63925  0.001401  0.001401  0.001401
P  14.62715  14.62715  2.9347  0.000223  0.000223  0.000253
P  14.62715  2.9347  14.62715  0.000223  0.000253  0.000223
P  2.9347  14.62715  14.62715  0.000253  0.000223  0.000223
P  14.63221  2.92483  2.92483  0.000435  -0.000498  -0.000498
P  2.92483  14.63221  2.92483  -0.000498  0.000435  -0.000498
P  2.92483  2.92483  14.63221  -0.000498  -0.000498  0.000435
P  2.9291  2.9291  2.9291  -0.001532  -0.001532  -0.001532
P  0.00093  14.63753  11.70826  0.000185  0.002057  0.001575
P  0.00093  11.70826  14.63753  0.000185  0.001575  0.002057
P  14.63753  0.00093  11.70826  0.002057  0.000185  0.001575
P  14.63753  11.70826  0.00093  0.002057  0.001575  0.000185
P  11.70826  0.00093  14.63753  0.001575  0.000185  0.002057
P  11.70826  14.63753  0.00093  0.001575  0.002057  0.000185
P  17.55321  14.63018  5.85621  -0.000703  -7.0e-6  -0.000512
P  14.63018  17.55321  5.85621  -7.0e-6  -0.000703  -0.000512
P  17.55321  5.85621  14.63018  -0.000703  -0.000512  -7.0e-6
P  14.63018  5.85621  17.55321  -7.0e-6  -0.000512  -0.000703
P  17.54765  11.70309  2.93832  -0.000177  5.0e-6  -1.7e-5
P  5.85621  17.55321  14.63018  -0.000512  -0.000703  -7.0e-6
P  5.85621  14.63018  17.55321  -0.000512  -7.0e-6  -0.000703
P  11.70309  17.54765  2.93832  5.0e-6  -0.000177  -1.7e-5
P  17.54765  2.93832  11.70309  -0.000177  -1.7e-5  5.0e-6
P  11.70309  2.93832  17.54765  5.0e-6  -1.7e-5  -0.000177
P  0.00117  5.85327  2.92321  -0.000269  -0.001774  -0.002195
P  2.93832  17.54765  11.70309  -1.7e-5  -0.000177  5.0e-6
P  0.00117  2.92321  5.85327  -0.000269  -0.002195  -0.001774
P  2.93832  11.70309  17.54765  -1.7e-5  5.0e-6  -0.000177
P  5.85327  0.00117  2.92321  -0.001774  -0.000269  -0.002195
P  2.92321  0.00117  5.85327  -0.002195  -0.000269  -0.001774
P  5.85327  2.92321  0.00117  -0.001774  -0.002195  -0.000269
P  2.92321  5.85327  0.00117  -0.002195  -0.001774  -0.000269
P  17.54699  17.54699  8.78885  4.9e-5  4.9e-5  0.000474
P  17.54699  8.78885  17.54699  4.9e-5  0.000474  4.9e-5
P  8.78885  17.54699  17.54699  0.000474  4.9e-5  4.9e-5
P  0.0014  0.0014  14.63202  0.000787  0.000787  -0.000134
P  0.0014  14.63202  0.0014  0.000787  -0.000134  0.000787
P  14.63202  0.0014  0.0014  -0.000134  0.000787  0.000787
P  17.55966  17.55966  2.92754  -1.4e-5  -1.4e-5  0.0005
P  17.55966  2.92754  17.55966  -1.4e-5  0.0005  -1.4e-5
P  2.92754  17.55966  17.55966  0.0005  -1.4e-5  -1.4e-5
216
Lattice="17.561274918 0.0 0.0 0.0 17.561274918 0.0 0.0 0.0 17.561274918" Properties=species:S:1:pos:R:3:forces:R:3 energy=-1042.74478215 stress="-9.00935 0.04202 0.04202 0.04202 -9.00935 0.04202 0.04202 0.04202 -9.00935" pbc="T T T"
In  8.85742  8.85742  8.85742  0.093868  0.093868  0.093868
In  10.32592  7.30646  7.30646  0.077105  -0.104644  -0.104644
In  7.30646  10.32592  7.30646  -0.104644  0.077105  -0.104644
In  7.30646  7.30646  10.32592  -0.104644  -0.104644  0.077105
In  13.11451  10.18051  7.34514  -0.009315  0.014582  0.015391
In  13.11451  7.34514  10.18051  -0.009315  0.015391  0.014582
In  10.18051  13.11451  7.34514  0.014582  -0.009315  0.015391
In  10.18051  7.34514  13.11451  0.014582  0.015391  -0.009315
In  7.34514  13.11451  10.18051  0.015391  -0.009315  0.014582
In  7.34514  10.18051  13.11451  0.015391  0.014582  -0.009315
In  10.24383  10.24383  4.39154  -0.004542  -0.004542  -0.006162
In  10.24383  4.39154  10.24383  -0.004542  -0.006162  -0.004542
In  4.39154  10.24383  10.24383  -0.006162  -0.004542  -0.004542
In  7.3219  7.3219  4.41962  0.00419  0.00419  -0.007508
In  7.3219  4.41962  7.3219  0.00419  -0.007508  0.00419
In  4.41962  7.3219  7.3219  -0.007508  0.00419  0.00419
In  13.17034  13.17034  10.29307  -0.007143  -0.007143  -0.010943
In  13.17034  10.29307  13.17034  -0.007143  -0.010943  -0.007143
In  10.29307  13.17034  13.17034  -0.010943  -0.007143  -0.007143
In  13.21095  7.31437  4.34864  0.002752  -0.002782  -0.004792
In  13.21095  4.34864  7.31437  0.002752  -0.004792  -0.002782
In  7.31437  13.21095  4.34864  -0.002782  0.002752  -0.004792
In  4.34864  13.21095  7.31437  -0.004792  0.002752  -0.002782
In  7.31437  4.34864  13.21095  -0.002782  -0.004792  0.002752
In  4.34864  7.31437  13.21095  -0.004792  -0.002782  0.002752
In  10.23542  4.38698  4.38698  0.004412  -0.004636  -0.004636
In  4.38698  10.23542  4.38698  -0.004636  0.004412  -0.004636
In  4.38698  4.38698  10.23542  -0.004636  -0.004636  0.004412
In  16.11327  10.24452  10.24452  -0.000352  0.001377  0.001377
In  10.24452  16.11327  10.24452  0.001377  -0.000352  0.001377
In  10.24452  10.24452  16.11327  0.001377  0.001377  -0.000352
In  16.10247  7.30615  7.30615  -0.000396  0.001436  0.001436
In  13.16281  13.16281  4.39711  -0.00071  -0.00071  0.003563
In  13.16281  4.39711  13.16281  -0.00071  0.003563  -0.00071
In  7.30615  16.10247  7.30615  0.001436  -0.000396  0.001436
In  7.30615  7.30615  16.10247  0.001436  0.001436  -0.000396
In  4.39711  13.16281  13.16281  0.003563  -0.00071  -0.00071
In  10.24235  7.31655  1.47186  0.000979  -0.001087  -0.000858
In  7.31655  10.24235  1.47186  -0.001087  0.000979  -0.000858
In  10.24235  1.47186  7.31655  0.000979  -0.000858  -0.001087
In  7.31655  1.47186  10.24235  -0.001087  -0.000858  0.000979
In  1.47186  10.24235  7.31655  -0.000858  0.000979  -0.001087