4
Lattice="4.1299634 0.0 0.0 2.0649817 3.5766533 0.0 0.0 0.0 6.7867689" Properties=species:S:1:pos:R:3:forces:R:3 energy=-19.33946215 stress="-8.93749 0.0 0.0 0.0 -8.93749 0.0 0.0 0.0 -9.48052" pbc="T T T"
In  2.06498  1.19222  2.54117  -0.0  0.0  -0.002348
In  4.12996  2.38444  5.93455  0.0  0.0  -0.002348
P  2.06498  1.19222  0.0  -0.0  -0.0  0.002348
P  4.12996  2.38444  3.39338  0.0  -0.0  0.002348
4
Lattice="3.9456512 0.0 0.0 1.9728256 3.4170342 0.0 0.0 0.0 6.5111923" Properties=species:S:1:pos:R:3:forces:R:3 energy=-18.99216114 stress="111.79665 0.0 0.0 0.0 111.79665 0.0 0.0 0.0 111.28015" pbc="T T T"
In  1.97283  1.13901  2.42809  0.0  -0.0  -0.007548
In  3.94565  2.27802  5.68368  -0.0  0.0  -0.007548
P  1.97283  1.13901  0.0  0.0  0.0  0.007548
P  3.94565  2.27802  3.2556  -0.0  -0.0  0.007548
4
Lattice="3.900777 0.0 0.0 1.9503884 3.3781719 0.0 0.0 0.0 6.4481793" Properties=species:S:1:pos:R:3:forces:R:3 energy=-18.75980296 stress="153.1609 -0.0 0.0 -0.0 153.1609 0.0 0.0 0.0 152.47909" pbc="T T T"
In  1.95039  1.12606  2.40124  0.0  0.0  -0.013208
In  3.90078  2.25211  5.62533  0.0  -0.0  -0.013208
P  1.95039  1.12606  0.0  -0.0  0.0  0.013208
P  3.90078  2.25211  3.22409  -0.0  -0.0  0.013208
4
Lattice="3.8604536 0.0 0.0 1.9302268 3.3432508 0.0 0.0 0.0 6.3937988" Properties=species:S:1:pos:R:3:forces:R:3 energy=-18.49408247 stress="194.86735 0.0 0.0 0.0 194.86734 0.0 0.0 0.0 194.23006" pbc="T T T"
In  1.93023  1.11442  2.37721  0.0  -0.0  -0.018457
In  3.86045  2.22883  5.57411  0.0  0.0  -0.018457
P  1.93023  1.11442  0.0  -0.0  0.0  0.018457
P  3.86045  2.22883  3.1969  -0.0  0.0  0.018457
4
Lattice="3.8239403 0.0 0.0 1.9119702 3.3116295 0.0 0.0 0.0 6.3452935" Properties=species:S:1:pos:R:3:forces:R:3 energy=-18.20222587 stress="237.04347 0.0 0.0 0.0 237.04348 -0.0 0.0 -0.0 236.41326" pbc="T T T"
In  1.91197  1.10388  2.35569  -0.0  -0.0  -0.027867
In  3.82394  2.20775  5.52834  0.0  0.0  -0.027867
P  1.91197  1.10388  0.0  -0.0  -0.0  0.027867
P  3.82394  2.20775  3.17265  0.0  -0.0  0.027867
4
Lattice="3.7888561 0.0 0.0 1.894428 3.2812455 0.0 0.0 0.0 6.3068915" Properties=species:S:1:pos:R:3:forces:R:3 energy=-17.88899513 stress="279.55873 -0.0 0.0 -0.0 279.55871 0.0 0.0 0.0 278.83394" pbc="T T T"
In  1.89443  1.09375  2.3355  -0.0  0.0  -0.031726
In  3.78886  2.1875  5.48895  -0.0  0.0  -0.031726
P  1.89443  1.09375  0.0  -0.0  -0.0  0.031726
P  3.78886  2.1875  3.15345  0.0  -0.0  0.031726
4
Lattice="3.7561 0.0 0.0 1.87805 3.252878 0.0 0.0 0.0 6.2727242" Properties=species:S:1:pos:R:3:forces:R:3 energy=-17.55730043 stress="322.55419 0.0 0.0 0.0 322.55419 0.0 0.0 0.0 321.74427" pbc="T T T"
In  1.87805  1.08429  2.31696  0.0  0.0  -0.040167
In  3.7561  2.16859  5.45332  -0.0  -0.0  -0.040167
P  1.87805  1.08429  0.0  -0.0  -0.0  0.040167
P  3.7561  2.16859  3.13636  0.0  -0.0  0.040167
4
Lattice="3.7254076 0.0 0.0 1.8627038 3.2262976 0.0 0.0 0.0 6.2437458" Properties=species:S:1:pos:R:3:forces:R:3 energy=-17.2153404 stress="365.05668 -0.0 0.0 -0.0 365.05668 0.0 0.0 0.0 364.98465" pbc="T T T"
In  1.8627  1.07543  2.29945  0.0  -0.0  -0.043673
In  3.72541  2.15087  5.42132  -0.0  -0.0  -0.043673
P  1.8627  1.07543  0.0  -0.0  -0.0  0.043673
P  3.72541  2.15087  3.12187  0.0  0.0  0.043673
4
Lattice="3.6943448 0.0 0.0 1.8471724 3.1993964 0.0 0.0 0.0 6.2222371" Properties=species:S:1:pos:R:3:forces:R:3 energy=-16.85354169 stress="408.87277 -0.0 0.0 -0.0 408.87276 0.0 0.0 0.0 408.92829" pbc="T T T"
In  1.84717  1.06647  2.28275  -0.0  0.0  -0.052141
In  3.69434  2.13293  5.39387  0.0  0.0  -0.052141
P  1.84717  1.06647  0.0  -0.0  -0.0  0.052141
P  3.69434  2.13293  3.11112  -0.0  -0.0  0.052141
4
Lattice="4.0565138 0.0 0.0 2.0282569 3.5130439 0.0 0.0 0.0 6.6737356" Properties=species:S:1:pos:R:3:forces:R:3 energy=-19.30657301 stress="30.92871 -0.0 0.0 -0.0 30.9287 0.0 0.0 0.0 30.38672" pbc="T T T"
In  2.02826  1.17101  2.49564  0.0  -0.0  -0.003688
In  4.05651  2.34203  5.83251  -0.0  -0.0  -0.003688
P  2.02826  1.17101  0.0  -0.0  0.0  0.003688
P  4.05651  2.34203  3.33687  0.0  0.0  0.003688
4
Lattice="3.9967168 0.0 0.0 1.9983584 3.4612582 0.0 0.0 0.0 6.5847507" Properties=species:S:1:pos:R:3:forces:R:3 energy=-19.18005062 stress="71.0339 -0.0 0.0 -0.0 71.0339 0.0 0.0 0.0 70.64943" pbc="T T T"
In  1.99836  1.15375  2.45894  -0.0  -0.0  -0.004521
In  3.99672  2.30751  5.75132  0.0  0.0  -0.004521
P  1.99836  1.15375  0.0  -0.0  0.0  0.004521
P  3.99672  2.30751  3.29238  0.0  0.0  0.004521
4
Lattice="4.5464258 0.0 0.0 2.2732129 3.9373206 0.0 0.0 0.0 7.4607306" Properties=species:S:1:pos:R:3:forces:R:3 energy=-17.83772988 stress="-104.37577 0.0 0.0 0.0 -104.37579 0.0 0.0 0.0 -103.9978" pbc="T T T"
In  2.27321  1.31244  2.80591  0.0  0.0  0.00492
In  4.54643  2.62488  6.53627  -0.0  0.0  0.00492
P  2.27321  1.31244  0.0  -0.0  -0.0  -0.00492
P  4.54643  2.62488  3.73037  0.0  -0.0  -0.00492
4
Lattice="4.1745205 0.0 0.0 2.0872602 3.6152406 0.0 0.0 0.0 6.8556476" Properties=species:S:1:pos:R:3:forces:R:3 energy=-19.30159325 stress="-28.61775 0.0 0.0 0.0 -28.61775 0.0 0.0 0.0 -29.00323" pbc="T T T"
In  2.08726  1.20508  2.56881  0.0  -0.0  -0.002378
In  4.17452  2.41016  5.99664  0.0  0.0  -0.002378
P  2.08726  1.20508  0.0  -0.0  0.0  0.002378
P  4.17452  2.41016  3.42782  -0.0  -0.0  0.002378
4
Lattice="4.2269616 0.0 0.0 2.1134808 3.6606562 0.0 0.0 0.0 6.9389806" Properties=species:S:1:pos:R:3:forces:R:3 energy=-19.20780056 stress="-48.06392 -0.0 0.0 -0.0 -48.06392 0.0 0.0 0.0 -48.30701" pbc="T T T"
In  2.11348  1.22022  2.60142  -0.0  -0.0  0.000257
In  4.22696  2.44044  6.07091  0.0  -0.0  0.000257
In  2.11348  1.22022  0.0  -0.0  0.0  -0.000257
In  4.22696  2.44044  3.46949  0.0  -0.0  -0.000257
4
Lattice="4.2926326 0.0 0.0 2.1463163 3.7175288 0.0 0.0 0.0 7.0431371" Properties=species:S:1:pos:R:3:forces:R:3 energy=-19.02621709 stress="-67.2844 0.0 0.0 0.0 -67.2844 0.0 0.0 0.0 -67.41716" pbc="T T T"
In  2.14632  1.23918  2.64266  0.0  0.0  -0.000245
In  4.29263  2.47835  6.16422  -0.0  -0.0  -0.000245
P  2.14632  1.23918  0.0  0.0  -0.0  0.000245
P  4.29263  2.47835  3.52157  -0.0  -0.0  0.000245
4
Lattice="4.3820634 0.0 0.0 2.1910317 3.7949784 0.0 0.0 0.0 7.1863213" Properties=species:S:1:pos:R:3:forces:R:3 energy=-18.68388388 stress="-86.04369 0.0 0.0 0.0 -86.04369 -0.0 0.0 -0.0 -85.98526" pbc="T T T"
In  2.19103  1.26499  2.69846  -0.0  0.0  0.002734
In  4.38206  2.52999  6.29162  0.0  -0.0  0.002734
P  2.19103  1.26499  0.0  -0.0  0.0  -0.002734
P  4.38206  2.52999  3.59316  -0.0  0.0  -0.002734
8
Lattice="5.0 0.0 0.0 0.0 5.0 0.0 0.0 0.0 5.0" Properties=species:S:1:pos:R:3:forces:R:3 energy=-24.90732287 stress="914.78938 0.0 0.0 0.0 914.78938 -0.0 0.0 -0.0 914.78938" pbc="T T T"
In  0.0  0.0  0.0  0.0  -0.0  0.0
In  2.5  0.0  2.5  0.0  -0.0  0.0
In  0.0  2.5  2.5  0.0  -0.0  0.0
In  2.5  2.5  0.0  0.0  0.0  0.0
P  1.25  1.25  3.75  -0.0  0.0  -0.0
P  3.75  1.25  1.25  -0.0  0.0  -0.0
P  1.25  3.75  1.25  -0.0  0.0  -0.0
P  3.75  3.75  3.75  -0.0  0.0  -0.0
8
Lattice="5.01 0.0 0.0 0.0 5.01 0.0 0.0 0.0 5.01" Properties=species:S:1:pos:R:3:forces:R:3 energy=-25.33111609 stress="891.06299 -0.0 -0.0 -0.0 891.06299 -0.0 -0.0 -0.0 891.06299" pbc="T T T"
In  0.0  0.0  0.0  0.0  -0.0  0.0
In  2.505  0.0  2.505  0.0  -0.0  0.0
In  0.0  2.505  2.505  0.0  -0.0  0.0
In  2.505  2.505  0.0  0.0  -0.0  0.0
P  1.2525  1.2525  3.7575  -0.0  0.0  -0.0
P  3.7575  1.2525  1.2525  -0.0  0.0  -0.0
P  1.2525  3.7575  1.2525  -0.0  0.0  -0.0
P  3.7575  3.7575  3.7575  -0.0  0.0  -0.0
8
Lattice="5.0 0.0 0.0 0.0 5.0 0.0 0.0 0.0 5.0" Properties=species:S:1:pos:R:3:forces:R:3 energy=-34.11351114 stress="380.35913 -0.0 0.0 -0.0 380.35913 -0.0 0.0 -0.0 380.35913" pbc="T T T"
In  0.0  0.0  0.0  0.0  0.0  0.0
In  2.5  0.0  2.5  -0.0  0.0  -0.0
In  0.0  2.5  2.5  -0.0  -0.0  -0.0
In  2.5  2.5  0.0  0.0  -0.0  0.0
P  2.5  2.5  2.5  0.0  0.0  0.0
P  2.5  0.0  0.0  0.0  0.0  0.0
P  0.0  2.5  0.0  0.0  0.0  0.0
P  0.0  0.0  2.5  0.0  0.0  0.0
8
Lattice="5.02 0.0 0.0 0.0 5.02 0.0 0.0 0.0 5.02" Properties=species:S:1:pos:R:3:forces:R:3 energy=-25.74566406 stress="872.39603 0.0 0.0 0.0 872.39603 0.0 0.0 0.0 872.39603" pbc="T T T"
In  0.0  0.0  0.0  0.0  0.0  0.0
In  2.51  0.0  2.51  -0.0  0.0  0.0
In  0.0  2.51  2.51  -0.0  0.0  0.0
In  2.51  2.51  0.0  0.0  0.0  0.0
P  1.255  1.255  3.765  -0.0  -0.0  -0.0
P  3.765  1.255  1.255  -0.0  -0.0  -0.0
P  1.255  3.765  1.255  -0.0  -0.0  -0.0
P  3.765  3.765  3.765  -0.0  -0.0  -0.0
8
Lattice="5.03 0.0 0.0 0.0 5.03 0.0 0.0 0.0 5.03" Properties=species:S:1:pos:R:3:forces:R:3 energy=-26.1510292 stress="845.74903 0.0 -0.0 0.0 845.74903 0.0 -0.0 0.0 845.74903" pbc="T T T"
In  0.0  0.0  0.0  -0.0  0.0  -0.0
In  2.515  0.0  2.515  -0.0  0.0  -0.0
In  0.0  2.515  2.515  -0.0  -0.0  -0.0
In  2.515  2.515  0.0  -0.0  0.0  -0.0
P  1.2575  1.2575  3.7725  0.0  0.0  0.0
P  3.7725  1.2575  1.2575  0.0  -0.0  0.0
P  1.2575  3.7725  1.2575  0.0  -0.0  0.0
P  3.7725  3.7725  3.7725  0.0  0.0  0.0
8
Lattice="5.04 0.0 0.0 0.0 5.04 0.0 0.0 0.0 5.04" Properties=species:S:1:pos:R:3:forces:R:3 energy=-26.54747446 stress="823.47505 0.0 0.0 0.0 823.47505 -0.0 0.0 -0.0 823.47505" pbc="T T T"
In  0.0  0.0  0.0  0.0  -0.0  0.0
In  2.52  0.0  2.52  0.0  -0.0  0.0
In  0.0  2.52  2.52  -0.0  0.0  -0.0
In  2.52  2.52  0.0  -0.0  -0.0  -0.0
P  1.26  1.26  3.78  0.0  0.0  0.0
P  3.78  1.26  1.26  0.0  0.0  0.0
P  1.26  3.78  1.26  0.0  0.0  0.0
P  3.78  3.78  3.78  0.0  0.0  0.0
8
Lattice="5.05 0.0 0.0 0.0 5.05 0.0 0.0 0.0 5.05" Properties=species:S:1:pos:R:3:forces:R:3 energy=-26.93512423 stress="802.19744 0.0 0.0 0.0 802.19744 0.0 0.0 0.0 802.19744" pbc="T T T"
In  0.0  0.0  0.0  0.0  -0.0  0.0
In  2.525  0.0  2.525  0.0  0.0  0.0
In  0.0  2.525  2.525  0.0  -0.0  -0.0
In  2.525  2.525  0.0  0.0  -0.0  -0.0
P  1.2625  1.2625  3.7875  -0.0  0.0  -0.0
P  3.7875  1.2625  1.2625  -0.0  0.0  -0.0
P  1.2625  3.7875  1.2625  -0.0  0.0  -0.0
P  3.7875  3.7875  3.7875  -0.0  0.0  -0.0
8
Lattice="5.06 0.0 0.0 0.0 5.06 0.0 0.0 0.0 5.06" Properties=species:S:1:pos:R:3:forces:R:3 energy=-27.3140736 stress="780.74228 0.0 -0.0 0.0 780.74228 0.0 -0.0 0.0 780.74228" pbc="T T T"
In  0.0  0.0  0.0  -0.0  0.0  -0.0
In  2.53  0.0  2.53  0.0  -0.0  -0.0
In  0.0  2.53  2.53  0.0  0.0  -0.0
In  2.53  2.53  0.0  -0.0  0.0  0.0
P  1.265  1.265  3.795  0.0  0.0  0.0
P  3.795  1.265  1.265  -0.0  0.0  0.0
P  1.265  3.795  1.265  -0.0  0.0  0.0
P  3.795  3.795  3.795  0.0  0.0  0.0
8
Lattice="5.07 0.0 0.0 0.0 5.07 0.0 0.0 0.0 5.07" Properties=species:S:1:pos:R:3:forces:R:3 energy=-27.68445805 stress="763.16104 -0.0 -0.0 -0.0 763.16104 -0.0 -0.0 -0.0 763.16104" pbc="T T T"
In  0.0  0.0  0.0  -0.0  -0.0  -0.0
In  2.535  0.0  2.535  -0.0  0.0  0.0
In  0.0  2.535  2.535  -0.0  0.0  -0.0
In  2.535  2.535  0.0  0.0  -0.0  -0.0
P  1.2675  1.2675  3.8025  0.0  -0.0  0.0
P  3.8025  1.2675  1.2675  0.0  -0.0  0.0
P  1.2675  3.8025  1.2675  0.0  0.0  0.0
P  3.8025  3.8025  3.8025  0.0  -0.0  0.0
8
Lattice="5.08 0.0 0.0 0.0 5.08 0.0 0.0 0.0 5.08" Properties=species:S:1:pos:R:3:forces:R:3 energy=-28.04644254 stress="740.3765 -0.0 -0.0 -0.0 740.3765 -0.0 -0.0 -0.0 740.3765" pbc="T T T"
In  0.0  0.0  0.0  -0.0  -0.0  0.0
In  2.54  0.0  2.54  0.0  -0.0  0.0
In  0.0  2.54  2.54  0.0  0.0  -0.0
In  2.54  2.54  0.0  0.0  -0.0  -0.0
P  1.27  1.27  3.81  -0.0  0.0  -0.0
P  3.81  1.27  1.27  0.0  0.0  0.0
P  1.27  3.81  1.27  0.0  0.0  0.0
P  3.81  3.81  3.81  -0.0  0.0  0.0
8
Lattice="5.09 0.0 0.0 0.0 5.09 0.0 0.0 0.0 5.09" Properties=species:S:1:pos:R:3:forces:R:3 energy=-28.400158 stress="720.69849 0.0 0.0 0.0 720.69849 -0.0 0.0 -0.0 720.69849" pbc="T T T"
In  0.0  0.0  0.0  0.0  -0.0  -0.0
In  2.545  0.0  2.545  0.0  -0.0  0.0
In  0.0  2.545  2.545  -0.0  0.0  0.0
In  2.545  2.545  0.0  -0.0  -0.0  -0.0
P  1.2725  1.2725  3.8175  -0.0  0.0  -0.0
P  3.8175  1.2725  1.2725  -0.0  0.0  -0.0
P  1.2725  3.8175  1.2725  -0.0  0.0  -0.0
P  3.8175  3.8175  3.8175  0.0  0.0  -0.0
8
Lattice="5.1 0.0 0.0 0.0 5.1 0.0 0.0 0.0 5.1" Properties=species:S:1:pos:R:3:forces:R:3 energy=-28.74572124 stress="700.33258 0.0 0.0 0.0 700.33258 -0.0 0.0 -0.0 700.33258" pbc="T T T"
In  0.0  0.0  0.0  0.0  0.0  0.0
In  2.55  0.0  2.55  0.0  0.0  0.0
In  0.0  2.55  2.55  -0.0  0.0  0.0
In  2.55  2.55  0.0  0.0  -0.0  0.0
P  1.275  1.275  3.825  -0.0  -0.0  -0.0
P  3.825  1.275  1.275  -0.0  -0.0  -0.0
P  1.275  3.825  1.275  -0.0  -0.0  -0.0
P  3.825  3.825  3.825  -0.0  -0.0  -0.0
8
Lattice="5.11 0.0 0.0 0.0 5.11 0.0 0.0 0.0 5.11" Properties=species:S:1:pos:R:3:forces:R:3 energy=-29.0832711 stress="681.91445 0.0 0.0 0.0 681.91445 0.0 0.0 0.0 681.91445" pbc="T T T"
In  0.0  0.0  0.0  0.0  0.0  0.0
In  2.555  0.0  2.555  -0.0  -0.0  -0.0
In  0.0  2.555  2.555  0.0  -0.0  -0.0
In  2.555  2.555  0.0  0.0  -0.0  0.0
P  1.2775  1.2775  3.8325  -0.0  0.0  -0.0
P  3.8325  1.2775  1.2775  -0.0  0.0  -0.0
P  1.2775  3.8325  1.2775  -0.0  0.0  -0.0
P  3.8325  3.8325  3.8325  -0.0  0.0  -0.0
8
Lattice="5.1 0.0 0.0 0.0 5.1 0.0 0.0 0.0 5.1" Properties=species:S:1:pos:R:3:forces:R:3 energy=-35.60415475 stress="249.70515 -0.0 0.0 -0.0 249.70515 -0.0 0.0 -0.0 249.70515" pbc="T T T"
In  0.0  0.0  0.0  0.0  0.0  -0.0
In  2.55  0.0  2.55  0.0  -0.0  -0.0
In  0.0  2.55  2.55  -0.0  -0.0  -0.0
In  2.55  2.55  0.0  -0.0  0.0  0.0
P  2.55  2.55  2.55  -0.0  0.0  -0.0
P  2.55  0.0  0.0  0.0  0.0  -0.0
P  0.0  2.55  0.0  -0.0  0.0  -0.0
P  0.0  0.0  2.55  -0.0  0.0  -0.0
8
Lattice="5.12 0.0 0.0 0.0 5.12 0.0 0.0 0.0 5.12" Properties=species:S:1:pos:R:3:forces:R:3 energy=-29.41294262 stress="663.30798 0.0 0.0 0.0 663.30798 -0.0 0.0 -0.0 663.30798" pbc="T T T"
In  0.0  0.0  0.0  -0.0  0.0  0.0
In  2.56  0.0  2.56  0.0  0.0  0.0
In  0.0  2.56  2.56  -0.0  -0.0  0.0
In  2.56  2.56  0.0  0.0  0.0  0.0
P  1.28  1.28  3.84  -0.0  -0.0  -0.0
P  3.84  1.28  1.28  -0.0  -0.0  -0.0
P  1.28  3.84  1.28  -0.0  -0.0  -0.0
P  3.84  3.84  3.84  -0.0  -0.0  -0.0
8
Lattice="5.13 0.0 0.0 0.0 5.13 0.0 0.0 0.0 5.13" Properties=species:S:1:pos:R:3:forces:R:3 energy=-29.73481243 stress="644.55319 0.0 0.0 0.0 644.55319 0.0 0.0 0.0 644.55319" pbc="T T T"
In  0.0  0.0  0.0  0.0  -0.0  -0.0
In  2.565  0.0  2.565  -0.0  0.0  -0.0
In  0.0  2.565  2.565  -0.0  0.0  -0.0
In  2.565  2.565  0.0  -0.0  -0.0  -0.0
P  1.2825  1.2825  3.8475  0.0  0.0  0.0
P  3.8475  1.2825  1.2825  0.0  0.0  0.0
P  1.2825  3.8475  1.2825  0.0  0.0  0.0
P  3.8475  3.8475  3.8475  -0.0  0.0  0.0
8
Lattice="5.14 0.0 0.0 0.0 5.14 0.0 0.0 0.0 5.14" Properties=species:S:1:pos:R:3:forces:R:3 energy=-30.04902687 stress="627.4439 0.0 -0.0 0.0 627.4439 0.0 -0.0 0.0 627.4439" pbc="T T T"
In  0.0  0.0  0.0  -0.0  0.0  -0.0
In  2.57  0.0  2.57  -0.0  -0.0  -0.0
In  0.0  2.57  2.57  -0.0  0.0  -0.0
In  2.57  2.57  0.0  -0.0  0.0  -0.0
P  1.285  1.285  3.855  0.0  -0.0  0.0
P  3.855  1.285  1.285  0.0  -0.0  0.0
P  1.285  3.855  1.285  0.0  -0.0  0.0
P  3.855  3.855  3.855  0.0  -0.0  0.0
8
Lattice="5.15 0.0 0.0 0.0 5.15 0.0 0.0 0.0 5.15" Properties=species:S:1:pos:R:3:forces:R:3 energy=-30.35573414 stress="609.95298 0.0 -0.0 0.0 609.95298 0.0 -0.0 0.0 609.95298" pbc="T T T"
In  0.0  0.0  0.0  0.0  -0.0  -0.0
In  2.575  0.0  2.575  0.0  -0.0  -0.0
In  0.0  2.575  2.575  0.0  -0.0  -0.0
In  2.575  2.575  0.0  0.0  -0.0  -0.0
P  1.2875  1.2875  3.8625  -0.0  0.0  0.0
P  3.8625  1.2875  1.2875  -0.0  0.0  0.0
P  1.2875  3.8625  1.2875  -0.0  0.0  0.0
P  3.8625  3.8625  3.8625  0.0  0.0  0.0
8
Lattice="5.16 0.0 0.0 0.0 5.16 0.0 0.0 0.0 5.16" Properties=species:S:1:pos:R:3:forces:R:3 energy=-30.65504269 stress="592.37849 -0.0 -0.0 -0.0 592.37849 -0.0 -0.0 -0.0 592.37849" pbc="T T T"
In  0.0  0.0  0.0  0.0  -0.0  0.0
In  2.58  0.0  2.58  0.0  -0.0  0.0
In  0.0  2.58  2.58  -0.0  0.0  0.0
In  2.58  2.58  0.0  0.0  -0.0  0.0
P  1.29  1.29  3.87  -0.0  0.0  -0.0
P  3.87  1.29  1.29  -0.0  0.0  -0.0
P  1.29  3.87  1.29  -0.0  0.0  -0.0
P  3.87  3.87  3.87  -0.0  0.0  -0.0
8
Lattice="5.17 0.0 0.0 0.0 5.17 0.0 0.0 0.0 5.17" Properties=species:S:1:pos:R:3:forces:R:3 energy=-30.94704781 stress="576.14456 -0.0 0.0 -0.0 576.14456 -0.0 0.0 -0.0 576.14456" pbc="T T T"
In  0.0  0.0  0.0  0.0  0.0  0.0
In  2.585  0.0  2.585  -0.0  0.0  0.0
In  0.0  2.585  2.585  0.0  0.0  0.0
In  2.585  2.585  0.0  -0.0  0.0  0.0
P  1.2925  1.2925  3.8775  0.0  -0.0  -0.0
P  3.8775  1.2925  1.2925  -0.0  -0.0  -0.0
P  1.2925  3.8775  1.2925  0.0  -0.0  -0.0
P  3.8775  3.8775  3.8775  0.0  -0.0  -0.0
8
Lattice="5.18 0.0 0.0 0.0 5.18 0.0 0.0 0.0 5.18" Properties=species:S:1:pos:R:3:forces:R:3 energy=-31.23186179 stress="559.75288 0.0 0.0 0.0 559.75288 0.0 0.0 0.0 559.75288" pbc="T T T"
In  0.0  0.0  0.0  0.0  0.0  0.0
In  2.59  0.0  2.59  -0.0  0.0  0.0
In  0.0  2.59  2.59  -0.0  0.0  0.0
In  2.59  2.59  0.0  0.0  0.0  0.0
P  1.295  1.295  3.885  -0.0  -0.0  -0.0
P  3.885  1.295  1.295  -0.0  -0.0  -0.0
P  1.295  3.885  1.295  -0.0  -0.0  -0.0
P  3.885  3.885  3.885  -0.0  -0.0  -0.0
8
Lattice="5.19 0.0 0.0 0.0 5.19 0.0 0.0 0.0 5.19" Properties=species:S:1:pos:R:3:forces:R:3 energy=-31.50962505 stress="543.87421 0.0 -0.0 0.0 543.87421 0.0 -0.0 0.0 543.87421" pbc="T T T"
In  0.0  0.0  0.0  0.0  -0.0  -0.0
In  2.595  0.0  2.595  -0.0  -0.0  -0.0
In  0.0  2.595  2.595  -0.0  0.0  0.0
In  2.595  2.595  0.0  0.0  -0.0  0.0
P  1.2975  1.2975  3.8925  0.0  0.0  -0.0
P  3.8925  1.2975  1.2975  0.0  0.0  -0.0
P  1.2975  3.8925  1.2975  0.0  0.0  -0.0
P  3.8925  3.8925  3.8925  0.0  0.0  -0.0
8
Lattice="5.2 0.0 0.0 0.0 5.2 0.0 0.0 0.0 5.2" Properties=species:S:1:pos:R:3:forces:R:3 energy=-31.78044211 stress="527.46643 -0.0 -0.0 -0.0 527.46643 -0.0 -0.0 -0.0 527.46643" pbc="T T T"
In  0.0  0.0  0.0  0.0  -0.0  0.0
In  2.6  0.0  2.6  0.0  0.0  0.0
In  0.0  2.6  2.6  0.0  0.0  0.0
In  2.6  2.6  0.0  0.0  0.0  0.0
P  1.3  1.3  3.9  -0.0  -0.0  -0.0
P  3.9  1.3  1.3  -0.0  -0.0  -0.0
P  1.3  3.9  1.3  -0.0  -0.0  -0.0
P  3.9  3.9  3.9  -0.0  -0.0  -0.0
8
Lattice="5.21 0.0 0.0 0.0 5.21 0.0 0.0 0.0 5.21" Properties=species:S:1:pos:R:3:forces:R:3 energy=-32.04448224 stress="512.64732 -0.0 -0.0 -0.0 512.64732 0.0 -0.0 0.0 512.64732" pbc="T T T"
In  0.0  0.0  0.0  0.0  -0.0  0.0
In  2.605  0.0  2.605  0.0  0.0  0.0
In  0.0  2.605  2.605  0.0  0.0  0.0
In  2.605  2.605  0.0  0.0  -0.0  0.0
P  1.3025  1.3025  3.9075  -0.0  -0.0  -0.0
P  3.9075  1.3025  1.3025  -0.0  -0.0  -0.0
P  1.3025  3.9075  1.3025  -0.0  -0.0  -0.0
P  3.9075  3.9075  3.9075  -0.0  -0.0  -0.0
8
Lattice="5.2 0.0 0.0 0.0 5.2 0.0 0.0 0.0 5.2" Properties=species:S:1:pos:R:3:forces:R:3 energy=-36.57876366 stress="147.72612 -0.0 -0.0 -0.0 147.72612 0.0 -0.0 0.0 147.72612" pbc="T T T"
In  0.0  0.0  0.0  0.0  0.0  0.0
In  2.6  0.0  2.6  -0.0  -0.0  0.0
In  0.0  2.6  2.6  -0.0  -0.0  -0.0
In  2.6  2.6  0.0  -0.0  0.0  0.0
P  2.6  2.6  2.6  0.0  -0.0  -0.0
P  2.6  0.0  0.0  0.0  0.0  -0.0
P  0.0  2.6  0.0  0.0  0.0  -0.0
P  0.0  0.0  2.6  0.0  -0.0  -0.0
8
Lattice="5.22 0.0 0.0 0.0 5.22 0.0 0.0 0.0 5.22" Properties=species:S:1:pos:R:3:forces:R:3 energy=-32.30180778 stress="497.58062 -0.0 0.0 -0.0 497.58062 0.0 0.0 0.0 497.58062" pbc="T T T"
In  0.0  0.0  0.0  -0.0  -0.0  0.0
In  2.61  0.0  2.61  0.0  -0.0  -0.0
In  0.0  2.61  2.61  0.0  0.0  0.0
In  2.61  2.61  0.0  0.0  0.0  -0.0
P  1.305  1.305  3.915  -0.0  0.0  -0.0
P  3.915  1.305  1.305  -0.0  0.0  -0.0
P  1.305  3.915  1.305  -0.0  0.0  -0.0
P  3.915  3.915  3.915  -0.0  -0.0  0.0
8
Lattice="5.23 0.0 0.0 0.0 5.23 0.0 0.0 0.0 5.23" Properties=species:S:1:pos:R:3:forces:R:3 energy=-32.55240718 stress="482.97363 -0.0 -0.0 -0.0 482.97363 -0.0 -0.0 -0.0 482.97363" pbc="T T T"
In  0.0  0.0  0.0  0.0  -0.0  0.0
In  2.615  0.0  2.615  0.0  0.0  -0.0
In  0.0  2.615  2.615  -0.0  -0.0  0.0
In  2.615  2.615  0.0  -0.0  -0.0  -0.0
P  1.3075  1.3075  3.9225  0.0  -0.0  -0.0
P  3.9225  1.3075  1.3075  0.0  -0.0  0.0
P  1.3075  3.9225  1.3075  0.0  -0.0  0.0
P  3.9225  3.9225  3.9225  -0.0  -0.0  -0.0
8
Lattice="5.24 0.0 0.0 0.0 5.24 0.0 0.0 0.0 5.24" Properties=species:S:1:pos:R:3:forces:R:3 energy=-32.79646907 stress="468.09455 -0.0 -0.0 -0.0 468.09455 0.0 -0.0 0.0 468.09455" pbc="T T T"
In  0.0  0.0  0.0  -0.0  0.0  -0.0
In  2.62  0.0  2.62  0.0  -0.0  -0.0
In  0.0  2.62  2.62  0.0  0.0  -0.0
In  2.62  2.62  0.0  -0.0  0.0  -0.0
P  1.31  1.31  3.93  0.0  -0.0  0.0
P  3.93  1.31  1.31  0.0  -0.0  0.0
P  1.31  3.93  1.31  0.0  -0.0  0.0
P  3.93  3.93  3.93  0.0  -0.0  0.0
8
Lattice="5.25 0.0 0.0 0.0 5.25 0.0 0.0 0.0 5.25" Properties=species:S:1:pos:R:3:forces:R:3 energy=-33.0341342 stress="453.81469 0.0 0.0 0.0 453.81469 -0.0 0.0 -0.0 453.81469" pbc="T T T"
In  0.0  0.0  0.0  -0.0  -0.0  -0.0
In  2.625  0.0  2.625  -0.0  -0.0  -0.0
In  0.0  2.625  2.625  0.0  0.0  -0.0
In  2.625  2.625  0.0  -0.0  0.0  0.0
P  1.3125  1.3125  3.9375  0.0  0.0  0.0
P  3.9375  1.3125  1.3125  0.0  0.0  0.0
P  1.3125  3.9375  1.3125  0.0  0.0  0.0
P  3.9375  3.9375  3.9375  0.0  0.0  0.0
8
Lattice="5.26 0.0 0.0 0.0 5.26 0.0 0.0 0.0 5.26" Properties=species:S:1:pos:R:3:forces:R:3 energy=-33.26546078 stress="440.0758 0.0 -0.0 0.0 440.0758 0.0 -0.0 0.0 440.0758" pbc="T T T"
In  0.0  0.0  0.0  -0.0  0.0  -0.0
In  2.63  0.0  2.63  0.0  0.0  0.0
In  0.0  2.63  2.63  -0.0  0.0  0.0
In  2.63  2.63  0.0  -0.0  0.0  0.0
P  1.315  1.315  3.945  0.0  -0.0  -0.0
P  3.945  1.315  1.315  0.0  -0.0  -0.0
P  1.315  3.945  1.315  0.0  -0.0  -0.0
P  3.945  3.945  3.945  0.0  -0.0  -0.0
8
Lattice="5.27 0.0 0.0 0.0 5.27 0.0 0.0 0.0 5.27" Properties=species:S:1:pos:R:3:forces:R:3 energy=-33.4905808 stress="426.75613 -0.0 -0.0 -0.0 426.75613 -0.0 -0.0 -0.0 426.75613" pbc="T T T"
In  0.0  0.0  0.0  0.0  -0.0  0.0
In  2.635  0.0  2.635  0.0  -0.0  0.0
In  0.0  2.635  2.635  -0.0  -0.0  -0.0
In  2.635  2.635  0.0  -0.0  0.0  0.0
P  1.3175  1.3175  3.9525  -0.0  0.0  -0.0
P  3.9525  1.3175  1.3175  -0.0  0.0  -0.0
P  1.3175  3.9525  1.3175  -0.0  0.0  -0.0
P  3.9525  3.9525  3.9525  -0.0  0.0  -0.0
8
Lattice="5.28 0.0 0.0 0.0 5.28 0.0 0.0 0.0 5.28" Properties=species:S:1:pos:R:3:forces:R:3 energy=-33.70959217 stress="413.03441 0.0 0.0 0.0 413.03441 -0.0 0.0 -0.0 413.03441" pbc="T T T"
In  0.0  0.0  0.0  0.0  0.0  -0.0
In  2.64  0.0  2.64  -0.0  -0.0  0.0
In  0.0  2.64  2.64  0.0  0.0  0.0
In  2.64  2.64  0.0  -0.0  0.0  0.0
P  1.32  1.32  3.96  0.0  -0.0  -0.0
P  3.96  1.32  1.32  0.0  -0.0  -0.0
P  1.32  3.96  1.32  -0.0  -0.0  -0.0
P  3.96  3.96  3.96  0.0  -0.0  -0.0
8
Lattice="5.29 0.0 0.0 0.0 5.29 0.0 0.0 0.0 5.29" Properties=species:S:1:pos:R:3:forces:R:3 energy=-33.92253789 stress="400.12209 0.0 -0.0 0.0 400.12209 0.0 -0.0 0.0 400.12209" pbc="T T T"
In  0.0  0.0  0.0  0.0  0.0  -0.0
In  2.645  0.0  2.645  0.0  0.0  0.0
In  0.0  2.645  2.645  0.0  -0.0  -0.0
In  2.645  2.645  0.0  -0.0  -0.0  -0.0
P  1.3225  1.3225  3.9675  0.0  -0.0  0.0
P  3.9675  1.3225  1.3225  -0.0  -0.0  -0.0
P  1.3225  3.9675  1.3225  -0.0  0.0  -0.0
P  3.9675  3.9675  3.9675  -0.0  0.0  -0.0
8
Lattice="5.3 0.0 0.0 0.0 5.3 0.0 0.0 0.0 5.3" Properties=species:S:1:pos:R:3:forces:R:3 energy=-34.12960189 stress="387.65632 -0.0 -0.0 -0.0 387.65632 -0.0 -0.0 -0.0 387.65632" pbc="T T T"
In  0.0  0.0  0.0  -0.0  0.0  0.0
In  2.65  0.0  2.65  0.0  0.0  0.0
In  0.0  2.65  2.65  -0.0  -0.0  0.0
In  2.65  2.65  0.0  -0.0  0.0  -0.0
P  1.325  1.325  3.975  0.0  -0.0  0.0
P  3.975  1.325  1.325  0.0  -0.0  -0.0
P  1.325  3.975  1.325  0.0  -0.0  -0.0
P  3.975  3.975  3.975  -0.0  -0.0  -0.0
8
Lattice="5.31 0.0 0.0 0.0 5.31 0.0 0.0 0.0 5.31" Properties=species:S:1:pos:R:3:forces:R:3 energy=-34.3308093 stress="376.27404 -0.0 -0.0 -0.0 376.27404 0.0 -0.0 0.0 376.27404" pbc="T T T"
In  0.0  0.0  0.0  -0.0  0.0  0.0
In  2.655  0.0  2.655  0.0  -0.0  -0.0
In  0.0  2.655  2.655  0.0  -0.0  0.0
In  2.655  2.655  0.0  0.0  -0.0  0.0
P  1.3275  1.3275  3.9825  -0.0  0.0  -0.0
P  3.9825  1.3275  1.3275  -0.0  0.0  -0.0
P  1.3275  3.9825  1.3275  -0.0  0.0  -0.0
P  3.9825  3.9825  3.9825  -0.0  0.0  -0.0
8
Lattice="5.3 0.0 0.0 0.0 5.3 0.0 0.0 0.0 5.3" Properties=species:S:1:pos:R:3:forces:R:3 energy=-37.12608044 stress="68.64294 0.0 0.0 0.0 68.64294 -0.0 0.0 -0.0 68.64294" pbc="T T T"
In  0.0  0.0  0.0  -0.0  0.0  0.0
In  2.65  0.0  2.65  -0.0  0.0  0.0
In  0.0  2.65  2.65  -0.0  0.0  -0.0
In  2.65  2.65  0.0  0.0  0.0  0.0
P  2.65  2.65  2.65  0.0  -0.0  0.0
P  2.65  0.0  0.0  0.0  -0.0  -0.0
P  0.0  2.65  0.0  0.0  -0.0  -0.0
P  0.0  0.0  2.65  0.0  -0.0  0.0
8
Lattice="5.32 0.0 0.0 0.0 5.32 0.0 0.0 0.0 5.32" Properties=species:S:1:pos:R:3:forces:R:3 energy=-34.52629014 stress="362.68403 -0.0 -0.0 -0.0 362.68403 0.0 -0.0 0.0 362.68403" pbc="T T T"
In  0.0  0.0  0.0  0.0  -0.0  -0.0
In  2.66  0.0  2.66  0.0  0.0  0.0
In  0.0  2.66  2.66  -0.0  0.0  0.0
In  2.66  2.66  0.0  0.0  -0.0  -0.0
P  1.33  1.33  3.99  -0.0  0.0  -0.0
P  3.99  1.33  1.33  -0.0  -0.0  0.0
P  1.33  3.99  1.33  -0.0  0.0  -0.0
P  3.99  3.99  3.99  0.0  0.0  0.0
8
Lattice="5.33 0.0 0.0 0.0 5.33 0.0 0.0 0.0 5.33" Properties=species:S:1:pos:R:3:forces:R:3 energy=-34.71610965 stress="350.82292 0.0 -0.0 0.0 350.82292 0.0 -0.0 0.0 350.82292" pbc="T T T"
In  0.0  0.0  0.0  -0.0  -0.0  0.0
In  2.665  0.0  2.665  0.0  -0.0  0.0
In  0.0  2.665  2.665  0.0  -0.0  -0.0
In  2.665  2.665  0.0  -0.0  0.0  0.0
P  1.3325  1.3325  3.9975  -0.0  -0.0  -0.0
P  3.9975  1.3325  1.3325  -0.0  0.0  -0.0
P  1.3325  3.9975  1.3325  -0.0  0.0  -0.0
P  3.9975  3.9975  3.9975  -0.0  0.0  -0.0
8
Lattice="5.34 0.0 0.0 0.0 5.34 0.0 0.0 0.0 5.34" Properties=species:S:1:pos:R:3:forces:R:3 energy=-34.90038699 stress="339.50314 -0.0 -0.0 -0.0 339.50314 0.0 -0.0 0.0 339.50314" pbc="T T T"
In  0.0  0.0  0.0  0.0  -0.0  0.0
In  2.67  0.0  2.67  -0.0  -0.0  0.0
In  0.0  2.67  2.67  -0.0  0.0  -0.0
In  2.67  2.67  0.0  -0.0  0.0  0.0
P  1.335  1.335  4.005  0.0  -0.0  -0.0
P  4.005  1.335  1.335  0.0  -0.0  -0.0
P  1.335  4.005  1.335  0.0  -0.0  -0.0
P  4.005  4.005  4.005  0.0  -0.0  -0.0
8
Lattice="5.35 0.0 0.0 0.0 5.35 0.0 0.0 0.0 5.35" Properties=species:S:1:pos:R:3:forces:R:3 energy=-35.07920914 stress="328.14504 0.0 0.0 0.0 328.14504 -0.0 0.0 -0.0 328.14504" pbc="T T T"
In  0.0  0.0  0.0  -0.0  0.0  0.0
In  2.675  0.0  2.675  0.0  -0.0  0.0
In  0.0  2.675  2.675  0.0  -0.0  0.0
In  2.675  2.675  0.0  0.0  0.0  -0.0
P  1.3375  1.3375  4.0125  -0.0  -0.0  -0.0
P  4.0125  1.3375  1.3375  0.0  -0.0  -0.0
P  1.3375  4.0125  1.3375  -0.0  -0.0  -0.0
P  4.0125  4.0125  4.0125  -0.0  0.0  0.0
8
Lattice="5.36 0.0 0.0 0.0 5.36 0.0 0.0 0.0 5.36" Properties=species:S:1:pos:R:3:forces:R:3 energy=-35.25266839 stress="316.72112 0.0 -0.0 0.0 316.72112 0.0 -0.0 0.0 316.72112" pbc="T T T"
In  0.0  0.0  0.0  -0.0  -0.0  0.0
In  2.68  0.0  2.68  -0.0  0.0  -0.0
In  0.0  2.68  2.68  0.0  0.0  -0.0
In  2.68  2.68  0.0  -0.0  -0.0  -0.0
P  1.34  1.34  4.02  0.0  0.0  0.0
P  4.02  1.34  1.34  0.0  0.0  0.0
P  1.34  4.02  1.34  0.0  0.0  0.0
P  4.02  4.02  4.02  -0.0  0.0  0.0
8
Lattice="5.37 0.0 0.0 0.0 5.37 0.0 0.0 0.0 5.37" Properties=species:S:1:pos:R:3:forces:R:3 energy=-35.42083938 stress="306.20171 -0.0 -0.0 -0.0 306.20171 -0.0 -0.0 -0.0 306.20171" pbc="T T T"
In  0.0  0.0  0.0  0.0  0.0  0.0
In  2.685  0.0  2.685  0.0  -0.0  0.0
In  0.0  2.685  2.685  -0.0  0.0  0.0
In  2.685  2.685  0.0  -0.0  0.0  0.0
P  1.3425  1.3425  4.0275  -0.0  -0.0  -0.0
P  4.0275  1.3425  1.3425  0.0  0.0  -0.0
P  1.3425  4.0275  1.3425  -0.0  -0.0  -0.0
P  4.0275  4.0275  4.0275  0.0  0.0  -0.0
8
Lattice="5.38 0.0 0.0 0.0 5.38 0.0 0.0 0.0 5.38" Properties=species:S:1:pos:R:3:forces:R:3 energy=-35.58377308 stress="295.55637 0.0 -0.0 0.0 295.55637 0.0 -0.0 0.0 295.55637" pbc="T T T"
In  0.0  0.0  0.0  -0.0  -0.0  0.0
In  2.69  0.0  2.69  -0.0  0.0  -0.0
In  0.0  2.69  2.69  0.0  0.0  -0.0
In  2.69  2.69  0.0  0.0  -0.0  0.0
P  1.345  1.345  4.035  -0.0  -0.0  -0.0
P  4.035  1.345  1.345  -0.0  -0.0  -0.0
P  1.345  4.035  1.345  -0.0  0.0  -0.0
P  4.035  4.035  4.035  0.0  0.0  -0.0
8
Lattice="5.39 0.0 0.0 0.0 5.39 0.0 0.0 0.0 5.39" Properties=species:S:1:pos:R:3:forces:R:3 energy=-35.74165769 stress="285.13743 0.0 0.0 0.0 285.13743 0.0 0.0 0.0 285.13743" pbc="T T T"
In  0.0  0.0  0.0  -0.0  -0.0  0.0
In  2.695  0.0  2.695  -0.0  -0.0  -0.0
In  0.0  2.695  2.695  0.0  0.0  -0.0
In  2.695  2.695  0.0  -0.0  0.0  0.0
P  1.3475  1.3475  4.0425  0.0  -0.0  0.0
P  4.0425  1.3475  1.3475  0.0  -0.0  -0.0
P  1.3475  4.0425  1.3475  0.0  0.0  -0.0
P  4.0425  4.0425  4.0425  0.0  -0.0  0.0
8
Lattice="5.4 0.0 0.0 0.0 5.4 0.0 0.0 0.0 5.4" Properties=species:S:1:pos:R:3:forces:R:3 energy=-35.89454795 stress="274.67167 -0.0 0.0 -0.0 274.67167 -0.0 0.0 -0.0 274.67167" pbc="T T T"
In  0.0  0.0  0.0  0.0  -0.0  0.0
In  2.7  0.0  2.7  0.0  -0.0  0.0
In  0.0  2.7  2.7  0.0  0.0  0.0
In  2.7  2.7  0.0  -0.0  -0.0  -0.0
P  1.35  1.35  4.05  -0.0  0.0  -0.0
P  4.05  1.35  1.35  -0.0  0.0  -0.0
P  1.35  4.05  1.35  -0.0  -0.0  -0.0
P  4.05  4.05  4.05  -0.0  -0.0  -0.0
8
Lattice="5.41 0.0 0.0 0.0 5.41 0.0 0.0 0.0 5.41" Properties=species:S:1:pos:R:3:forces:R:3 energy=-36.04247856 stress="265.10588 -0.0 0.0 -0.0 265.10588 -0.0 0.0 -0.0 265.10588" pbc="T T T"
In  0.0  0.0  0.0  0.0  0.0  0.0
In  2.705  0.0  2.705  -0.0  0.0  -0.0
In  0.0  2.705  2.705  -0.0  -0.0  -0.0
In  2.705  2.705  0.0  0.0  -0.0  -0.0
P  1.3525  1.3525  4.0575  -0.0  0.0  0.0
P  4.0575  1.3525  1.3525  -0.0  0.0  0.0
P  1.3525  4.0575  1.3525  0.0  0.0  0.0
P  4.0575  4.0575  4.0575  -0.0  0.0  0.0
8
Lattice="5.4 0.0 0.0 0.0 5.4 0.0 0.0 0.0 5.4" Properties=species:S:1:pos:R:3:forces:R:3 energy=-37.32262953 stress="8.26695 0.0 0.0 0.0 8.26695 -0.0 0.0 -0.0 8.26695" pbc="T T T"
In  0.0  0.0  0.0  -0.0  0.0  -0.0
In  2.7  0.0  2.7  0.0  0.0  -0.0
In  0.0  2.7  2.7  0.0  -0.0  -0.0
In  2.7  2.7  0.0  0.0  -0.0  0.0
P  2.7  2.7  2.7  0.0  -0.0  0.0
P  2.7  0.0  0.0  -0.0  -0.0  0.0
P  0.0  2.7  0.0  0.0  -0.0  -0.0
P  0.0  0.0  2.7  0.0  -0.0  0.0
8
Lattice="5.42 0.0 0.0 0.0 5.42 0.0 0.0 0.0 5.42" Properties=species:S:1:pos:R:3:forces:R:3 energy=-36.18557035 stress="255.37037 0.0 0.0 0.0 255.37037 -0.0 0.0 -0.0 255.37037" pbc="T T T"
In  0.0  0.0  0.0  0.0  0.0  -0.0
In  2.71  0.0  2.71  0.0  0.0  0.0