64
Lattice="11.70751661 0.0 0.0 0.0 11.70751661 0.0 0.0 0.0 11.70751661" Properties=species:S:1:pos:R:3:forces:R:3 energy=-304.11837333 stress="-2.65866 8.52457 1.06957 8.52457 -2.65866 1.06957 1.06957 1.06957 0.10185" pbc="T T T"
In  8.78064  8.78064  8.93868  0.005701  0.005701  -0.688256
In  10.32711  10.32711  10.30479  0.434781  0.434781  0.449786
In  10.21432  7.34695  7.06001  0.071688  -0.082499  0.053605
In  7.34695  10.21432  7.06001  -0.082499  0.071688  0.053605
In  7.23416  7.23416  10.30479  -0.440334  -0.440334  0.438125
In  1.47047  10.27595  7.34102  -0.000661  -0.037101  -0.033677
In  1.42895  7.35862  10.25156  0.006525  -0.047337  -0.031616
In  10.27595  1.47047  7.34102  -0.037101  -0.000661  -0.033677
In  10.23622  7.32506  1.45972  0.010948  -0.014861  -0.023087
In  7.35862  1.42895  10.25156  -0.047337  0.006525  -0.031616
In  7.32506  10.23622  1.45972  -0.014861  0.010948  -0.023087
In  10.27219  10.27219  4.328  -0.182298  -0.182298  0.276073
In  10.20266  4.42481  10.25156  0.174714  -0.086332  0.100009
In  4.42481  10.20266  10.25156  -0.086332  0.174714  0.100009
In  7.28909  7.28909  4.328  0.183634  0.183634  0.267614
In  7.28533  4.38329  7.34102  0.123976  0.007538  0.0525
In  4.38329  7.28533  7.34102  0.007538  0.123976  0.0525
In  1.51728  1.51728  10.26018  0.024994  0.024994  0.038546
In  1.50489  10.25989  1.51402  0.00883  0.030523  -0.079162
In  10.25989  1.50489  1.51402  0.030523  0.00883  -0.079162
In  1.49747  7.31886  4.3511  -0.158014  -0.125619  0.199457
In  1.4068  4.44696  7.33078  0.106754  -0.051646  0.124741
In  7.31886  1.49747  4.3511  -0.125619  -0.158014  0.199457
In  4.44696  1.4068  7.33078  -0.051646  0.106754  0.124741
In  7.30138  4.34887  1.51402  -0.169777  0.09229  -0.222328
In  4.34887  7.30138  1.51402  0.09229  -0.169777  -0.222328
In  10.24242  4.35628  4.3511  0.278623  0.279647  0.343256
In  4.35628  10.24242  4.3511  0.279647  0.278623  0.343256
In  4.33648  4.33648  10.26018  0.285819  0.285819  0.339922
In  1.47335  1.47335  4.39081  0.114123  0.114123  0.117424
In  1.45411  4.39964  1.46027  0.11164  0.070428  0.054523
In  4.39964  1.45411  1.46027  0.070428  0.11164  0.054523
In  4.38041  4.38041  4.39081  -0.024136  -0.024136  0.329612
P  0.06954  0.06954  8.81414  -0.070453  -0.070453  -0.02401
P  0.04228  8.81699  0.07112  -0.052148  0.003402  -0.020303
P  8.81699  0.04228  0.07112  0.003402  -0.052148  -0.020303
P  0.06023  8.83624  5.78206  -0.000439  -0.014721  0.018941
P  11.59534  5.96594  8.76514  0.094851  -0.098198  -0.03985
P  8.83624  0.06023  5.78206  -0.014721  -0.000439  0.018941
P  8.74428  5.81148  0.07112  0.004349  0.070821  -0.037415
P  5.96594  11.59534  8.76514  -0.098198  0.094851  -0.03985
P  5.81148  8.74428  0.07112  0.070821  0.004349  -0.037415
P  8.72504  5.79353  5.78206  0.032626  0.012944  0.035606
P  5.79353  8.72504  5.78206  0.012944  0.032626  0.035606
P  5.78422  5.78422  8.81414  0.116787  0.116787  -0.023097
P  2.92366  8.78965  8.78693  0.029721  -0.067315  -0.055315
P  8.78965  2.92366  8.78693  -0.067315  0.029721  -0.055315
P  8.78064  8.78064  2.93732  0.001727  0.001727  -0.074018
P  2.94126  0.01279  0.01609  0.074473  -0.205775  -0.215996
P  0.01279  2.94126  0.01609  -0.205775  0.074473  -0.215996
P  0.0172  0.0172  2.95154  0.188992  0.188992  -0.352808
P  2.93476  0.00831  5.85347  0.069965  -0.050235  0.015948
P  0.00831  2.93476  5.85347  -0.050235  0.069965  0.015948
P  2.90383  5.86629  11.69213  0.011672  -0.024043  0.093329
P  11.70269  5.85858  2.9285  0.009219  0.026041  0.005641
P  5.86629  2.90383  11.69213  -0.024043  0.011672  0.093329
P  5.85858  11.70269  2.9285  0.026041  0.009219  0.005641
P  2.91391  5.86579  5.8644  -0.027028  -0.126599  -0.096376
P  5.86579  2.91391  5.8644  -0.126599  -0.027028  -0.096376
P  5.83656  5.83656  2.95154  -0.196601  -0.196601  -0.384411
P  2.96114  2.96114  8.77807  -0.399524  -0.399524  -0.494958
P  2.95577  8.77942  2.95732  -0.322577  -0.003149  -0.290412
P  8.77942  2.95577  2.95732  -0.003149  -0.322577  -0.290412
P  2.9381  2.9381  2.9261  -0.091345  -0.091345  -0.119583
64
Lattice="11.70751661 0.0 0.0 0.0 11.70751661 0.0 0.0 0.0 11.70751661" Properties=species:S:1:pos:R:3:forces:R:3 energy=-304.33361511 stress="-2.60391 1.23113 0.03484 1.23113 -2.60391 0.03484 0.03484 0.03484 -0.97963" pbc="T T T"
In  8.78576  8.78576  8.84817  -0.008533  -0.008533  -0.02684
In  10.34772  10.34772  10.36783  -0.011153  -0.011153  0.015535
In  10.27829  7.28529  7.15254  0.021873  -0.026922  -0.015121
In  7.28529  10.27829  7.15254  -0.026922  0.021873  -0.015121
In  7.22001  7.22001  10.365  0.005545  0.005545  0.017993
In  1.47215  10.25701  7.32907  -0.014673  -0.037692  -0.008398
In  1.44371  7.32712  10.23477  0.004092  0.019293  0.001845
In  10.25701  1.47215  7.32907  -0.037692  -0.014673  -0.008398
In  10.24151  7.32349  1.46889  -0.001746  -0.008365  -0.01283
In  7.32712  1.44371  10.23477  0.019293  0.004092  0.001845
In  7.32349  10.24151  1.46889  -0.008365  -0.001746  -0.01283
In  10.2726  10.2726  4.34671  -0.018283  -0.018283  0.030616
In  10.23653  4.41268  10.23351  -0.023263  0.000963  0.005704
In  4.41268  10.23653  10.23351  0.000963  -0.023263  0.005704
In  7.2907  7.2907  4.34678  0.016245  0.016245  0.02306
In  7.31092  4.38527  7.33141  0.012798  0.007382  -0.020779
In  4.38527  7.31092  7.33141  0.007382  0.012798  -0.020779
In  1.48913  1.48913  10.25435  0.01004  0.01004  0.009617
In  1.51141  10.27092  1.47556  -0.013493  -0.013084  0.011722
In  10.27092  1.51141  1.47556  -0.013084  -0.013493  0.011722
In  1.48318  7.31216  4.37648  0.004651  0.00514  0.014575
In  1.45661  4.39869  7.34219  0.012921  0.008228  -0.032607
In  7.31216  1.48318  4.37648  0.00514  0.004651  0.014575
In  4.39869  1.45661  7.34219  0.008228  0.012921  -0.032607
In  7.29575  4.34096  1.47674  0.015428  0.042791  0.017085
In  4.34096  7.29575  1.47674  0.042791  0.015428  0.017085
In  10.25401  4.37344  4.37696  -0.010283  0.011937  0.004185
In  4.37344  10.25401  4.37696  0.011937  -0.010283  0.004185
In  4.36669  4.36669  10.25308  0.002838  0.002838  0.006277
In  1.48242  1.48242  4.42201  -0.017979  -0.017979  -0.049967
In  1.45917  4.40033  1.46941  0.01028  -0.028597  0.000457
In  4.40033  1.45917  1.46941  -0.028597  0.01028  0.000457
In  4.37489  4.37489  4.4222  0.017923  0.017923  -0.049782
P  0.03929  0.03929  8.79464  -0.01571  -0.01571  -0.025013
P  0.04981  8.78991  0.05493  -0.013544  -0.014584  0.015215
P  8.78991  0.04981  0.05493  -0.014584  -0.013544  0.015215
P  0.04566  8.81361  5.80131  -0.009867  0.009972  0.005914
P  11.68075  5.88479  8.75623  0.018643  -0.034198  0.01766
P  8.81361  0.04566  5.80131  0.009972  -0.009867  0.005914
P  8.77372  5.80748  0.05541  0.02127  0.009318  0.007528
P  5.88479  11.68075  8.75623  -0.034198  0.018643  0.01766
P  5.80748  8.77372  0.05541  0.009318  0.02127  0.007528
P  8.75001  5.81043  5.79984  0.005063  0.012463  0.014224
P  5.81043  8.75001  5.79984  0.012463  0.005063  0.014224
P  5.81819  5.81819  8.79426  0.020258  0.020258  -0.015077
P  2.92666  8.78174  8.78627  0.005664  0.011947  -0.013432
P  8.78174  2.92666  8.78627  0.011947  0.005664  -0.013432
P  8.78154  8.78154  2.93499  0.003942  0.003942  -0.014436
P  2.95343  0.00776  -0.01888  -0.008399  -0.000685  0.043804
P  0.00776  2.95343  -0.01888  -0.000685  -0.008399  0.043804
P  0.04055  0.04055  2.91225  -0.031201  -0.031201  0.016583
P  2.94407  0.00553  5.8682  -0.037512  -0.003631  -0.00963
P  0.00553  2.94407  5.8682  -0.003631  -0.037512  -0.00963
P  2.90496  5.84957  11.68873  0.002835  0.001301  0.033906
P  11.70692  5.85858  2.93606  0.003527  -0.005972  -0.031018
P  5.84957  2.90496  11.68873  0.001301  0.002835  0.033906
P  5.85858  11.70692  2.93606  -0.005972  0.003527  -0.031018
P  2.91376  5.85199  5.86948  0.027833  0.009245  -0.0122
P  5.85199  2.91376  5.86948  0.009245  0.027833  -0.0122
P  5.81654  5.81654  2.91065  0.023357  0.023357  0.010629
P  2.92798  2.92798  8.7743  -0.002218  -0.002218  0.004702
P  2.92757  8.78518  2.93379  -0.003061  -0.010893  -0.011324
P  8.78518  2.92757  2.93379  -0.010893  -0.003061  -0.011324
P  2.92785  2.92785  2.92715  0.008537  0.008537  -0.006866
64
Lattice="11.70751661 0.0 0.0 0.0 11.70751661 0.0 0.0 0.0 11.70751661" Properties=species:S:1:pos:R:3:forces:R:3 energy=-304.33593847 stress="-2.5053 1.00567 0.17919 1.00567 -2.5053 0.17919 0.17919 0.17919 -1.01385" pbc="T T T"
In  8.78546  8.78546  8.83939  -0.003013  -0.003013  -0.03702
In  10.34252  10.34252  10.3708  0.004087  0.004087  0.003111
In  10.28515  7.27666  7.16466  0.059324  -0.023977  0.010772
In  7.27666  10.28515  7.16466  -0.023977  0.059324  0.010772
In  7.22486  7.22486  10.36654  -0.00435  -0.00435  0.030729
In  1.46741  10.25325  7.32545  0.008839  -0.030319  0.013241
In  1.45014  7.3239  10.23751  -0.014578  0.027233  -0.023045
In  10.25325  1.46741  7.32545  -0.030319  0.008839  0.013241
In  10.24194  7.32268  1.47147  0.007266  -0.003345  -0.018411
In  7.3239  1.45014  10.23751  0.027233  -0.014578  -0.023045
In  7.32268  10.24194  1.47147  -0.003345  0.007266  -0.018411
In  10.27261  10.27261  4.34975  -0.017677  -0.017677  0.020376
In  10.23615  4.40996  10.23296  0.003511  -0.009124  0.004441
In  4.40996  10.23615  10.23296  -0.009124  0.003511  0.004441
In  7.28993  7.28993  4.349  0.035509  0.035509  0.026707
In  7.31217  4.39149  7.32767  0.029014  -0.025455  -0.005558
In  4.39149  7.31217  7.32767  -0.025455  0.029014  -0.005558
In  1.4821  1.4821  10.25305  0.007772  0.007772  0.011189
In  1.51065  10.27058  1.47396  -0.019853  -0.012393  0.019374
In  10.27058  1.51065  1.47396  -0.012393  -0.019853  0.019374
In  1.48248  7.31347  4.38014  0.007149  0.008476  -0.020761
In  1.46526  4.39096  7.33271  0.017755  -0.012386  0.000219
In  7.31347  1.48248  4.38014  0.008476  0.007149  -0.020761
In  4.39096  1.46526  7.33271  -0.012386  0.017755  0.000219
In  7.29528  4.34148  1.47533  0.037639  0.04588  0.024641
In  4.34148  7.29528  1.47533  0.04588  0.037639  0.024641
In  10.25025  4.37356  4.37756  0.019468  0.009185  -0.001126
In  4.37356  10.25025  4.37756  0.009185  0.019468  -0.001126
In  4.37149  4.37149  10.24989  0.025657  0.025657  0.023712
In  1.47898  1.47898  4.4213  -0.010355  -0.010355  -0.073419
In  1.46168  4.3988  1.46901  0.000602  -0.03136  0.018452
In  4.3988  1.46168  1.46901  -0.03136  0.000602  0.018452
In  4.37851  4.37851  4.41799  0.002386  0.002386  -0.054182
P  0.03186  0.03186  8.7897  -0.00288  -0.00288  0.00908
P  0.0494  8.78892  0.0533  -0.006219  -0.038894  0.018343
P  8.78892  0.0494  0.0533  -0.038894  -0.006219  0.018343
P  0.04279  8.81107  5.80442  -0.025771  -0.010776  -0.007047
P  11.69664  5.86968  8.75731  -0.015826  0.005777  0.017883
P  8.81107  0.04279  5.80442  -0.010776  -0.025771  -0.007047
P  8.77561  5.80821  0.05445  0.021737  0.005844  0.007434
P  5.86968  11.69664  8.75731  0.005777  -0.015826  0.017883
P  5.80821  8.77561  0.05445  0.005844  0.021737  0.007434
P  8.75575  5.81447  5.80417  -0.016823  0.007561  -0.020811
P  5.81447  8.75575  5.80417  0.007561  -0.016823  -0.020811
P  5.8259  5.8259  8.79051  -0.004267  -0.004267  0.019206
P  2.92686  8.78148  8.78212  0.008105  -0.00089  0.000224
P  8.78148  2.92686  8.78212  -0.00089  0.008105  0.000224
P  8.78252  8.78252  2.93598  -0.008136  -0.008136  -0.007732
P  2.95077  0.00989  -0.01537  0.00451  -0.023955  0.011078
P  0.00989  2.95077  -0.01537  -0.023955  0.00451  0.011078
P  0.03947  0.03947  2.9104  -0.046473  -0.046473  0.025113
P  2.93774  0.00334  5.86585  -0.002703  -0.002973  -0.003834
P  0.00334  2.93774  5.86585  -0.002973  -0.002703  -0.003834
P  2.90839  5.84749  11.69211  0.009225  0.004027  0.014788
P  0.00088  5.85707  2.93615  0.005408  -0.005351  -0.016269
P  5.84749  2.90839  11.69211  0.004027  0.009225  0.014788
P  5.85707  0.00088  2.93615  -0.005351  0.005408  -0.016269
P  2.91865  5.85427  5.86684  0.028103  -0.004935  -0.007719
P  5.85427  2.91865  5.86684  -0.004935  0.028103  -0.007719
P  5.81835  5.81835  2.9074  0.034121  0.034121  0.025428
P  2.92879  2.92879  8.78851  -0.02118  -0.02118  -0.102837
P  2.92752  8.78624  2.93159  -0.011709  -0.036968  0.00253
P  8.78624  2.92752  2.93159  -0.036968  -0.011709  0.00253
P  2.92703  2.92703  2.9292  0.013741  0.013741  0.002859
64
Lattice="11.70751661 0.0 0.0 0.0 11.70751661 0.0 0.0 0.0 11.70751661" Properties=species:S:1:pos:R:3:forces:R:3 energy=-304.34103578 stress="-2.44319 0.775 0.00706 0.775 -2.44319 0.00706 0.00706 0.00706 -1.07159" pbc="T T T"
In  8.78496  8.78496  8.82997  -0.007537  -0.007537  -0.036533
In  10.33961  10.33961  10.37302  0.001678  0.001678  0.008026
In  10.29562  7.26868  7.17353  0.029157  -0.026737  0.01461
In  7.26868  10.29562  7.17353  -0.026737  0.029157  0.01461
In  7.22751  7.22751  10.37067  0.000416  0.000416  0.013865
In  1.46528  10.24773  7.32449  0.006845  -5.5e-5  0.005939
In  1.45277  7.32464  10.2369  -0.004492  -0.002616  -0.0084
In  10.24773  1.46528  7.32449  -5.5e-5  0.006845  0.005939
In  10.24295  7.32181  1.47124  0.004729  -0.006875  0.006294
In  7.32464  1.45277  10.2369  -0.002616  -0.004492  -0.0084
In  7.32181  10.24295  1.47124  -0.006875  0.004729  0.006294
In  10.27081  10.27081  4.35378  -0.034265  -0.034265  0.012535
In  10.23627  4.40728  10.23307  0.013432  -0.005046  0.005879
In  4.40728  10.23627  10.23307  -0.005046  0.013432  0.005879
In  7.29307  7.29307  4.35316  0.03244  0.03244  0.015512
In  7.31594  4.39287  7.32471  0.005341  -0.006603  0.006066
In  4.39287  7.31594  7.32471  -0.006603  0.005341  0.006066
In  1.47839  1.47839  10.25336  0.011386  0.011386  -0.001186
In  1.50814  10.26909  1.47493  -0.017616  -0.021901  0.017757
In  10.26909  1.50814  1.47493  -0.021901  -0.017616  0.017757
In  1.48277  7.31517  4.38036  -0.003609  -0.016481  -0.013165
In  1.47262  4.38474  7.32666  -0.012431  0.009887  -0.002936
In  7.31517  1.48277  4.38036  -0.016481  -0.003609  -0.013165
In  4.38474  1.47262  7.32666  0.009887  -0.012431  -0.002936
In  7.29884  4.3465  1.47695  0.015211  0.025687  0.008929
In  4.3465  7.29884  1.47695  0.025687  0.015211  0.008929
In  10.24983  4.37458  4.37783  0.015128  -0.005111  -0.011586
In  4.37458  10.24983  4.37783  -0.005111  0.015128  -0.011586
In  4.37719  4.37719  10.25027  -0.012513  -0.012513  -0.001973
In  1.47572  1.47572  4.41334  -0.006719  -0.006719  -0.030803
In  1.46335  4.39461  1.47064  -0.001354  -0.000987  0.002313
In  4.39461  1.46335  1.47064  -0.000987  -0.001354  0.002313
In  4.38107  4.38107  4.40976  0.011765  0.011765  -0.018485
P  0.0268  0.0268  8.78747  0.008684  0.008684  0.022038
P  0.04851  8.78431  0.05413  0.000362  -0.008492  -0.002669
P  8.78431  0.04851  0.05413  -0.008492  0.000362  -0.002669
P  0.03831  8.80835  5.80569  0.00334  -0.023376  -0.011996
P  11.7052  5.86059  8.75984  -0.00176  -8.2e-5  0.00506
P  8.80835  0.03831  5.80569  -0.023376  0.00334  -0.011996
P  8.77905  5.80928  0.05459  0.015267  0.000103  -0.006145
P  5.86059  11.7052  8.75984  -8.2e-5  -0.00176  0.00506
P  5.80928  8.77905  0.05459  0.000103  0.015267  -0.006145
P  8.75771  5.81784  5.80481  0.01039  0.001772  -0.009914
P  5.81784  8.75771  5.80481  0.001772  0.01039  -0.009914
P  5.83039  5.83039  8.79007  -0.003378  -0.003378  0.002783
P  2.92782  8.78121  8.77948  0.004137  -0.001153  0.018901
P  8.78121  2.92782  8.77948  -0.001153  0.004137  0.018901
P  8.78231  8.78231  2.93582  -0.00104  -0.00104  -0.017404
P  2.94952  0.0088  -0.01198  -0.011075  -0.021643  -0.006283
P  0.0088  2.94952  -0.01198  -0.021643  -0.011075  -0.006283
P  0.03402  0.03402  2.91178  -0.036452  -0.036452  0.003936
P  2.93342  0.00163  5.86395  0.004787  0.003826  -0.006708
P  0.00163  2.93342  5.86395  0.003826  0.004787  -0.006708
P  2.91153  5.84656  11.69579  -4.8e-5  0.02456  0.00616
P  0.00238  5.85555  2.93455  0.005122  -0.001016  0.001137
P  5.84656  2.91153  11.69579  0.02456  -4.8e-5  0.00616
P  5.85555  0.00238  2.93455  -0.001016  0.005122  0.001137
P  2.92466  5.85523  5.86436  -0.000609  -0.010642  -0.014087
P  5.85523  2.92466  5.86436  -0.010642  -0.000609  -0.014087
P  5.823  5.823  2.90793  0.038867  0.038867  0.024127
P  2.92715  2.92715  8.78708  0.003611  0.003611  -0.03498
P  2.92629  8.78313  2.93045  0.005374  0.00196  0.0142
P  8.78313  2.92629  2.93045  0.00196  0.005374  0.0142
P  2.92791  2.92791  2.9308  -0.001548  -0.001548  -0.000174
64
Lattice="11.70751661 0.0 0.0 0.0 11.70751661 0.0 0.0 0.0 11.70751661" Properties=species:S:1:pos:R:3:forces:R:3 energy=-304.3415103 stress="-2.40387 0.63106 -0.10014 0.63106 -2.40387 -0.10014 -0.10014 -0.10014 -1.10629" pbc="T T T"
In  8.78464  8.78464  8.82404  -0.010422  -0.010422  -0.036866
In  10.33777  10.33777  10.37442  0.000355  0.000355  0.011034
In  10.30221  7.26366  7.17911  0.009259  -0.027689  0.016751
In  7.26366  10.30221  7.17911  -0.027689  0.009259  0.016751
In  7.22919  7.22919  10.37328  0.003339  0.003339  0.003143
In  1.46394  10.24425  7.32388  0.005533  0.019002  0.001326
In  1.45442  7.3251  10.23652  0.001693  -0.021344  0.000736
In  10.24425  1.46394  7.32388  0.019002  0.005533  0.001326
In  10.2436  7.32127  1.47109  0.003118  -0.00919  0.022017
In  7.3251  1.45442  10.23652  -0.021344  0.001693  0.000736
In  7.32127  10.2436  1.47109  -0.00919  0.003118  0.022017
In  10.26968  10.26968  4.35632  -0.044761  -0.044761  0.007619
In  10.23634  4.40559  10.23313  0.019697  -0.002414  0.006761
In  4.40559  10.23634  10.23313  -0.002414  0.019697  0.006761
In  7.29505  7.29505  4.35578  0.030574  0.030574  0.008449
In  7.31831  4.39374  7.32284  -0.009467  0.005253  0.013283
In  4.39374  7.31831  7.32284  0.005253  -0.009467  0.013283
In  1.47605  1.47605  10.25355  0.013565  0.013565  -0.008868
In  1.50655  10.26816  1.47553  -0.016268  -0.027945  0.016756
In  10.26816  1.50655  1.47553  -0.027945  -0.016268  0.016756
In  1.48295  7.31624  4.3805  -0.010433  -0.032138  -0.00828
In  1.47726  4.38082  7.32285  -0.031302  0.023866  -0.005152
In  7.31624  1.48295  4.3805  -0.032138  -0.010433  -0.00828
In  4.38082  1.47726  7.32285  0.023866  -0.031302  -0.005152
In  7.30108  4.34967  1.47796  0.001243  0.013173  -0.000881
In  4.34967  7.30108  1.47796  0.013173  0.001243  -0.000881
In  10.24957  4.37522  4.378  0.012504  -0.01405  -0.018079
In  4.37522  10.24957  4.378  -0.01405  0.012504  -0.018079
In  4.38078  4.38078  10.25051  -0.035956  -0.035956  -0.017263
In  1.47366  1.47366  4.40831  -0.004298  -0.004298  -0.003776
In  1.4644  4.39196  1.47167  -0.002693  0.018172  -0.007889
In  4.39196  1.4644  1.47167  0.018172  -0.002693  -0.007889
In  4.38269  4.38269  4.40456  0.017795  0.017795  0.004185
P  0.02361  0.02361  8.78606  0.015841  0.015841  0.030192
P  0.04794  8.7814  0.05465  0.004676  0.01075  -0.016032
P  8.7814  0.04794  0.05465  0.01075  0.004676  -0.016032
P  0.03548  8.80663  5.80649  0.021515  -0.031587  -0.014993
P  0.00307  5.85487  8.76143  0.007142  -0.003779  -0.002629
P  8.80663  0.03548  5.80649  -0.031587  0.021515  -0.014993
P  8.78121  5.80995  0.05468  0.011138  -0.003603  -0.014786
P  5.85487  0.00307  8.76143  -0.003779  0.007142  -0.002629
P  5.80995  8.78121  0.05468  -0.003603  0.011138  -0.014786
P  8.75895  5.81996  5.80521  0.027718  -0.001902  -0.002891
P  5.81996  8.75895  5.80521  -0.001902  0.027718  -0.002891
P  5.83323  5.83323  8.78979  -0.002788  -0.002788  -0.007436
P  2.92843  8.78105  8.77782  0.001645  -0.001301  0.030687
P  8.78105  2.92843  8.77782  -0.001301  0.001645  0.030687
P  8.78219  8.78219  2.93572  0.003425  0.003425  -0.02349
P  2.94874  0.00811  -0.00984  -0.020874  -0.02022  -0.017215
P  0.00811  2.94874  -0.00984  -0.02022  -0.020874  -0.017215
P  0.03058  0.03058  2.91265  -0.030134  -0.030134  -0.009532
P  2.93069  0.00056  5.86275  0.009575  0.008145  -0.008552
P  0.00056  2.93069  5.86275  0.008145  0.009575  -0.008552
P  2.91351  5.84598  11.69811  -0.005758  0.03737  0.000684
P  0.00333  5.85459  2.93353  0.004914  0.001682  0.01205
P  5.84598  2.91351  11.69811  0.03737  -0.005758  0.000684
P  5.85459  0.00333  2.93353  0.001682  0.004914  0.01205
P  2.92845  5.85583  5.8628  -0.018667  -0.014332  -0.018093
P  5.85583  2.92845  5.8628  -0.014332  -0.018667  -0.018093
P  5.82593  5.82593  2.90826  0.041884  0.041884  0.023352
P  2.92611  2.92611  8.78618  0.018622  0.018622  0.007323
P  2.92551  8.78117  2.92973  0.016058  0.026386  0.021312
P  8.78117  2.92551  2.92973  0.026386  0.016058  0.021312
P  2.92846  2.92846  2.93181  -0.011313  -0.011313  -0.001846
64
Lattice="11.70751661 0.0 0.0 0.0 11.70751661 0.0 0.0 0.0 11.70751661" Properties=species:S:1:pos:R:3:forces:R:3 energy=-304.34533956 stress="-2.33532 0.29339 -0.03624 0.29339 -2.33532 -0.03624 -0.03624 -0.03624 -1.17742" pbc="T T T"
In  8.78309  8.78309  8.81318  0.000693  0.000693  -0.022895
In  10.33577  10.33577  10.37725  -0.009131  -0.009131  -0.010691
In  10.31064  7.25486  7.18728  -0.004205  -0.004836  0.00562
In  7.25486  10.31064  7.18728  -0.004836  -0.004205  0.00562
In  7.23145  7.23145  10.37654  0.003133  0.003133  -0.01487
In  1.46309  10.24257  7.32335  0.001433  0.017007  -0.001804
In  1.45646  7.32315  10.23617  -0.002185  -0.01347  0.005343
In  10.24257  1.46309  7.32335  0.017007  0.001433  -0.001804
In  10.24467  7.3196  1.47347  0.012408  -0.005215  0.003045
In  7.32315  1.45646  10.23617  -0.01347  -0.002185  0.005343
In  7.3196  10.24467  1.47347  -0.005215  0.012408  0.003045
In  10.26325  10.26325  4.36003  -0.026408  -0.026408  0.019376
In  10.23869  4.40344  10.23399  0.016466  -0.00112  -0.000918
In  4.40344  10.23869  10.23399  -0.00112  0.016466  -0.000918
In  7.30078  7.30078  4.35968  0.03044  0.03044  0.024011
In  7.31987  4.39531  7.32229  -0.010167  -0.001115  -0.003201
In  4.39531  7.31987  7.32229  -0.001115  -0.010167  -0.003201
In  1.47501  1.47501  10.25275  0.022526  0.022526  -0.004304
In  1.50291  10.26389  1.47814  -0.002492  -0.014047  0.002867
In  10.26389  1.50291  1.47814  -0.014047  -0.002492  0.002867
In  1.48195  7.31373  4.3797  0.012681  -0.017371  -0.009106
In  1.47882  4.3792  7.318  -0.01658  0.011155  -0.000858
In  7.31373  1.48195  4.3797  -0.017371  0.012681  -0.009106
In  4.3792  1.47882  7.318  0.011155  -0.01658  -0.000858
In  7.30372  4.35472  1.479  0.004228  -0.001857  0.002757
In  4.35472  7.30372  1.479  -0.001857  0.004228  0.002757
In  10.25072  4.37432  4.3761  0.012037  -0.005006  0.001786
In  4.37432  10.25072  4.3761  -0.005006  0.012037  0.001786
In  4.38064  4.38064  10.24879  -0.018337  -0.018337  0.007448
In  1.47087  1.47087  4.40228  -0.01555  -0.01555  0.013656
In  1.46526  4.39111  1.47191  -0.009522  0.011927  -0.031772
In  4.39111  1.46526  1.47191  0.011927  -0.009522  -0.031772
In  4.38654  4.38654  4.39925  0.009805  0.009805  0.005004
P  0.02188  0.02188  8.78797  0.007035  0.007035  0.006055
P  0.04785  8.77939  0.05339  -0.005237  -0.005221  -0.014922
P  8.77939  0.04785  0.05339  -0.005221  -0.005237  -0.014922
P  0.03482  8.80107  5.80566  0.019025  -0.014636  0.008562
P  0.00991  5.84805  8.7629  0.01209  -0.010636  0.007667
P  8.80107  0.03482  5.80566  -0.014636  0.019025  0.008562
P  8.78492  5.81029  0.05308  0.007147  0.003719  -0.009691
P  5.84805  0.00991  8.7629  -0.010636  0.01209  0.007667
P  5.81029  8.78492  0.05308  0.003719  0.007147  -0.009691
P  8.76352  5.8221  5.80533  0.024583  -0.018567  0.004836
P  5.8221  8.76352  5.80533  -0.018567  0.024583  0.004836
P  5.83607  5.83607  8.78863  -0.008168  -0.008168  0.010919
P  2.92929  8.78072  8.77951  -0.002003  0.00146  0.010737
P  8.78072  2.92929  8.77951  0.00146  -0.002003  0.010737
P  8.78244  8.78244  2.9329  -0.003051  -0.003051  -0.023753
P  2.94546  0.00501  -0.00945  -0.020604  0.003993  0.009686
P  0.00501  2.94546  -0.00945  0.003993  -0.020604  0.009686
P  0.02328  0.02328  2.91253  -0.013499  -0.013499  0.007416
P  2.92875  0.00029  5.86042  0.002164  0.009342  -0.004963
P  0.00029  2.92875  5.86042  0.009342  0.002164  -0.004963
P  2.91505  5.84963  11.70078  0.010739  0.005005  -0.002336
P  0.00495  5.85372  2.93379  -0.003093  -0.006319  0.002342
P  5.84963  2.91505  11.70078  0.005005  0.010739  -0.002336
P  5.85372  0.00495  2.93379  -0.006319  -0.003093  0.002342
P  2.93052  5.85486  5.85897  -0.012401  -0.001328  0.00246
P  5.85486  2.93052  5.85897  -0.001328  -0.012401  0.00246
P  5.83403  5.83403  2.91132  0.018422  0.018422  0.006581
P  2.9271  2.9271  8.78601  0.002782  0.002782  -0.004927
P  2.9265  8.78202  2.93138  0.007287  0.001519  0.008291
P  8.78202  2.9265  2.93138  0.001519  0.007287  0.008291
P  2.92777  2.92777  2.93273  0.001126  0.001126  -0.011884
64
Lattice="11.70751661 0.0 0.0 0.0 11.70751661 0.0 0.0 0.0 11.70751661" Properties=species:S:1:pos:R:3:forces:R:3 energy=-304.34587897 stress="-2.28436 0.03748 0.01371 0.03748 -2.28436 0.01371 0.01371 0.01371 -1.23201" pbc="T T T"
In  8.7819  8.7819  8.80486  0.008742  0.008742  -0.012549
In  10.33423  10.33423  10.37942  -0.015889  -0.015889  -0.027123
In  10.31708  7.24812  7.19352  -0.015135  0.013311  -0.002573
In  7.24812  10.31708  7.19352  0.013311  -0.015135  -0.002573
In  7.23317  7.23317  10.37904  0.00303  0.00303  -0.028795
In  1.46243  10.24127  7.32295  -0.0017  0.015458  -0.004214
In  1.45802  7.32166  10.23591  -0.005151  -0.00745  0.008821
In  10.24127  1.46243  7.32295  0.015458  -0.0017  -0.004214
In  10.24549  7.31833  1.47529  0.019487  -0.002257  -0.011365
In  7.32166  1.45802  10.23591  -0.00745  -0.005151  0.008821
In  7.31833  10.24549  1.47529  -0.002257  0.019487  -0.011365
In  10.25833  10.25833  4.36287  -0.012309  -0.012309  0.028601
In  10.24049  4.40178  10.23464  0.0139  -4.5e-5  -0.006853
In  4.40178  10.24049  10.23464  -4.5e-5  0.0139  -0.006853
In  7.30517  7.30517  4.36266  0.030216  0.030216  0.03601
In  7.32107  4.39652  7.32187  -0.010613  -0.005827  -0.015734
In  4.39652  7.32107  7.32187  -0.005827  -0.010613  -0.015734
In  1.47421  1.47421  10.25213  0.029351  0.029351  -0.000835
In  1.50012  10.26062  1.48014  0.007946  -0.003562  -0.007685
In  10.26062  1.50012  1.48014  -0.003562  0.007946  -0.007685
In  1.48118  7.31181  4.37909  0.030459  -0.006087  -0.009694
In  1.48001  4.37796  7.31429  -0.005161  0.001315  0.002062
In  7.31181  1.48118  4.37909  -0.006087  0.030459  -0.009694
In  4.37796  1.48001  7.31429  0.001315  -0.005161  0.002062
In  7.30574  4.35859  1.47979  0.006568  -0.013347  0.005502
In  4.35859  7.30574  1.47979  -0.013347  0.006568  0.005502
In  10.2516  4.37362  4.37465  0.011788  0.001996  0.016961
In  4.37362  10.2516  4.37465  0.001996  0.011788  0.016961
In  4.38054  4.38054  10.24747  -0.004845  -0.004845  0.026177
In  1.46874  1.46874  4.39766  -0.02408  -0.02408  0.027359
In  1.46592  4.39046  1.47209  -0.014638  0.007253  -0.049881
In  4.39046  1.46592  1.47209  0.007253  -0.014638  -0.049881
In  4.38949  4.38949  4.39519  0.003679  0.003679  0.005889
P  0.02056  0.02056  8.78943  0.000326  0.000326  -0.012337
P  0.04778  8.77786  0.05242  -0.012757  -0.017405  -0.014113
P  8.77786  0.04778  0.05242  -0.017405  -0.012757  -0.014113
P  0.0343  8.79682  5.80502  0.016908  -0.001733  0.026641
P  0.01514  5.84283  8.76402  0.016039  -0.016041  0.016068
P  8.79682  0.0343  5.80502  -0.001733  0.016908  0.026641
P  8.78775  5.81055  0.05186  0.004076  0.009325  -0.005823
P  5.84283  0.01514  8.76402  -0.016041  0.016039  0.016068
P  5.81055  8.78775  0.05186  0.009325  0.004076  -0.005823
P  8.76702  5.82374  5.80542  0.022357  -0.031162  0.010784
P  5.82374  8.76702  5.80542  -0.031162  0.022357  0.010784
P  5.83824  5.83824  8.78773  -0.012224  -0.012224  0.024814
P  2.92995  8.78046  8.7808  -0.004766  0.00356  -0.004568
P  8.78046  2.92995  8.7808  0.00356  -0.004766  -0.004568
P  8.78263  8.78263  2.93074  -0.008055  -0.008055  -0.024274
P  2.94295  0.00264  -0.00915  -0.020536  0.022498  0.030085
P  0.00264  2.94295  -0.00915  0.022498  -0.020536  0.030085
P  0.01769  0.01769  2.91243  -0.000724  -0.000724  0.020286
P  2.92727  9.0e-5  5.85865  -0.00348  0.010258  -0.002257
P  9.0e-5  2.92727  5.85865  0.010258  -0.00348  -0.002257
P  2.91624  5.85243  11.70282  0.023198  -0.01964  -0.00459
P  0.00619  5.85305  2.93399  -0.009271  -0.012535  -0.00524
P  5.85243  2.91624  11.70282  -0.01964  0.023198  -0.00459
P  5.85305  0.00619  2.93399  -0.012535  -0.009271  -0.00524
P  2.93211  5.85411  5.85604  -0.007726  0.008535  0.018051
P  5.85411  2.93211  5.85604  0.008535  -0.007726  0.018051
P  5.84023  5.84023  2.91366  0.000319  0.000319  -0.006375
P  2.92786  2.92786  8.78589  -0.009355  -0.009355  -0.014422
P  2.92726  8.78268  2.93264  0.000482  -0.017546  -0.001818
P  8.78268  2.92726  2.93264  -0.017546  0.000482  -0.001818
P  2.92725  2.92725  2.93343  0.010672  0.010672  -0.019564
64
Lattice="11.70751661 0.0 0.0 0.0 11.70751661 0.0 0.0 0.0 11.70751661" Properties=species:S:1:pos:R:3:forces:R:3 energy=-304.34868914 stress="-2.23848 -0.08711 -0.01863 -0.08711 -2.23848 -0.01863 -0.01863 -0.01863 -1.29296" pbc="T T T"
In  8.78169  8.78169  8.79363  0.007688  0.007688  0.000306
In  10.33036  10.33036  10.3783  -0.006332  -0.006332  -0.031345
In  10.32248  7.24215  7.20036  0.001866  0.003473  0.008028
In  7.24215  10.32248  7.20036  0.003473  0.001866  0.008028
In  7.23556  7.23556  10.37809  0.000525  0.000525  -0.020266
In  1.46145  10.24184  7.32193  0.00828  0.004673  0.006722
In  1.45913  7.31896  10.23679  0.018123  -0.001192  0.00341
In  10.24184  1.46145  7.32193  0.004673  0.00828  0.006722
In  10.24903  7.31656  1.47587  0.004912  -0.005919  -0.013087
In  7.31896  1.45913  10.23679  -0.001192  0.018123  0.00341
In  7.31656  10.24903  1.47587  -0.005919  0.004912  -0.013087
In  10.25104  10.25104  4.36993  0.004141  0.004141  0.021077
In  10.24441  4.39988  10.23448  0.003732  -0.020496  0.010219
In  4.39988  10.24441  10.23448  -0.020496  0.003732  0.010219