65
Lattice="11.70751661 0.0 0.0 0.0 11.70751661 0.0 0.0 0.0 11.70751661" Properties=species:S:1:pos:R:3:forces:R:3 energy=-307.9990581 stress="5.18264 3.58043 0.93526 3.58043 5.18264 0.93526 0.93526 0.93526 16.73682" pbc="T T T"
In  8.78064  8.78064  10.0225  0.005372  0.005372  1.085821
In  8.78064  8.78064  7.53878  0.003084  0.003084  -1.043895
In  11.6652  11.6652  8.78513  -0.047373  -0.047373  0.069893
In  0.15904  8.74181  0.19719  -0.046548  0.055278  -0.023013
In  8.74181  0.15904  0.19719  0.055278  -0.046548  -0.023013
In  0.15904  8.81947  5.65657  -0.074814  -0.03471  0.111229
In  11.6652  5.89607  8.77614  -0.040482  0.043006  -0.015984
In  8.81947  0.15904  5.65657  -0.03471  -0.074814  0.111229
In  8.81947  5.69472  0.19719  -0.025712  0.094171  -0.056813
In  5.89607  11.6652  8.77614  0.043006  -0.040482  -0.015984
In  5.69472  8.81947  0.19719  0.094171  -0.025712  -0.056813
In  8.74181  5.69472  5.65657  0.044702  0.110765  0.151999
In  5.69472  8.74181  5.65657  0.110765  0.044702  0.151999
In  5.89607  5.89607  8.78513  0.0526  0.0526  0.065899
In  2.93137  8.78064  8.78064  -0.04317  0.00418  0.025876
In  8.78064  2.93137  8.78064  0.00418  -0.04317  0.025876
In  8.78064  8.78064  2.96119  0.008171  0.008171  -0.360227
In  2.93319  0.0066  11.70414  -0.028346  -0.011611  -0.024782
In  0.0066  2.93319  11.70414  -0.011611  -0.028346  -0.024782
In  0.01249  0.01249  2.96107  0.153331  0.153331  -0.474962
In  2.92273  0.00956  5.86179  -0.077183  0.026079  0.078636
In  0.00956  2.92273  5.86179  0.026079  -0.077183  0.078636
In  2.92273  5.8442  11.69949  -0.061648  0.013078  -0.013772
In  0.02833  5.82543  2.97596  -0.022415  0.067557  -0.424022
In  5.8442  2.92273  11.69949  0.013078  -0.061648  -0.013772
In  5.82543  0.02833  2.97596  0.067557  -0.022415  -0.424022
In  2.93319  5.84715  5.85714  -0.00247  -0.027497  0.10459
In  5.84715  2.93319  5.85714  -0.027497  -0.00247  0.10459
In  5.84127  5.84127  2.96107  -0.140825  -0.140825  -0.447761
In  2.91892  2.91892  8.78875  0.042056  0.042056  -0.045732
In  2.99523  8.76644  2.9888  -0.751487  0.044682  -0.759721
In  8.76644  2.99523  2.9888  0.044682  -0.751487  -0.759721
In  2.93644  2.93644  2.91958  -0.086445  -0.086445  -0.014089
P  10.46166  10.46166  10.70554  -0.030298  -0.030298  -0.041001
P  10.46166  7.09961  6.85574  -0.035624  0.031802  -0.010003
P  7.09961  10.46166  6.85574  0.031802  -0.035624  -0.010003
P  7.09961  7.09961  10.70554  0.018861  0.018861  -0.037834
P  1.44832  10.2287  7.31336  0.050952  0.015751  -0.041496
P  1.44832  7.33257  10.24791  0.049317  -0.030693  0.005342
P  10.2287  1.44832  7.31336  0.015751  0.050952  -0.041496
P  10.2639  7.29737  1.52804  0.015986  -0.034234  0.031112
P  7.33257  1.44832  10.24791  -0.030693  0.049317  0.005342
P  7.29737  10.2639  1.52804  -0.034234  0.015986  0.031112
P  10.2639  10.2639  4.32572  -0.09965  -0.09965  0.382663
P  10.2287  4.40544  10.24791  0.038405  -0.022397  0.022959
P  4.40544  10.2287  10.24791  -0.022397  0.038405  0.022959
P  7.29737  7.29737  4.32572  0.091159  0.091159  0.372236
P  7.33257  4.40544  7.31336  -0.036381  -0.025945  -0.059949
P  4.40544  7.33257  7.31336  -0.025945  -0.036381  -0.059949
P  1.4414  1.4414  10.23353  0.043289  0.043289  -0.01592
P  1.56632  10.27411  1.57428  -0.039636  -0.018905  -0.118201
P  10.27411  1.56632  1.57428  -0.018905  -0.039636  -0.118201
P  1.56632  7.28717  4.27948  -0.220242  -0.210599  0.66809
P  1.4414  4.41236  7.32774  0.085504  -0.055926  0.046347
P  7.28717  1.56632  4.27948  -0.210599  -0.220242  0.66809
P  4.41236  1.4414  7.32774  -0.055926  0.085504  0.046347
P  7.28717  4.28744  1.57428  -0.399715  0.437481  -0.500975
P  4.28744  7.28717  1.57428  0.437481  -0.399715  -0.500975
P  10.27411  4.28744  4.27948  0.575424  0.529532  0.973906
P  4.28744  10.27411  4.27948  0.529532  0.575424  0.973906
P  4.41236  4.41236  10.23353  -0.075757  -0.075757  -0.073467
P  1.46631  1.46631  4.38832  0.157348  0.157348  0.183222
P  1.46631  4.38745  1.46544  0.018876  0.007791  -0.08857
P  4.38745  1.46631  1.46544  0.007791  0.018876  -0.08857
P  4.38745  4.38745  4.38832  -0.07685  -0.07685  0.22958
65
Lattice="11.70751661 0.0 0.0 0.0 11.70751661 0.0 0.0 0.0 11.70751661" Properties=species:S:1:pos:R:3:forces:R:3 energy=-308.41440589 stress="4.57424 -0.01217 -0.00084 -0.01217 4.57424 -0.00084 -0.00084 -0.00084 14.11931" pbc="T T T"
In  8.78184  8.78184  10.0662  0.00368  0.00368  0.003917
In  8.78326  8.78326  7.50249  0.003443  0.003443  -0.002444
In  11.66118  11.66118  8.79531  -0.001952  -0.001952  -0.014921
In  0.14388  8.73764  0.16973  -0.004955  -0.011761  0.000508
In  8.73764  0.14388  0.16973  -0.011761  -0.004955  0.000508
In  0.1434  8.82677  5.69426  0.000523  0.005984  0.006156
In  11.6633  5.89916  8.77897  -0.001936  0.002306  -7.0e-5
In  8.82677  0.1434  5.69426  0.005984  0.000523  0.006156
In  8.82695  5.71505  0.16537  0.005068  -0.000346  0.002833
In  5.89916  11.6633  8.77897  0.002306  -0.001936  -7.0e-5
In  5.71505  8.82695  0.16537  -0.000346  0.005068  0.002833
In  8.73702  5.71459  5.69918  -0.006528  0.004146  -0.000774
In  5.71459  8.73702  5.69918  0.004146  -0.006528  -0.000774
In  5.89889  5.89889  8.79267  0.002848  0.002848  -0.009764
In  2.92777  8.78098  8.78475  -0.00056  0.001104  -0.006318
In  8.78098  2.92777  8.78475  0.001104  -0.00056  -0.006318
In  8.78189  8.78189  2.93044  -0.003266  -0.003266  0.001439
In  2.93339  0.018  11.67726  0.009047  0.004711  0.004149
In  0.018  2.93339  11.67726  0.004711  0.009047  0.004149
In  0.03116  0.03116  2.91872  0.005686  0.005686  -0.015908
In  2.91561  0.02549  5.89474  0.001958  -0.0043  0.001092
In  0.02549  2.91561  5.89474  -0.0043  0.001958  0.001092
In  2.91697  5.83245  11.67261  0.000889  0.001835  0.009703
In  0.03476  5.82543  2.94492  0.003173  -0.006048  0.020416
In  5.83245  2.91697  11.67261  0.001835  0.000889  0.009703
In  5.82543  0.03476  2.94492  -0.006048  0.003173  0.020416
In  2.93663  5.82939  5.89519  0.001904  0.001747  0.001401
In  5.82939  2.93663  5.89519  0.001747  0.001904  0.001401
In  5.82409  5.82409  2.92025  -0.002003  -0.002003  -0.018835
In  2.92472  2.92472  8.78912  0.002892  0.002892  -0.007156
In  2.93782  8.78059  2.93506  -0.009273  -0.002627  -0.003334
In  8.78059  2.93782  2.93506  -0.002627  -0.009273  -0.003334
In  2.92858  2.92858  2.92478  -0.001043  -0.001043  0.006629
P  10.46543  10.46543  10.69673  -0.000992  -0.000992  0.006148
P  10.46759  7.09871  6.87866  -0.001417  -0.002009  -0.00787
P  7.09871  10.46759  6.87866  -0.002009  -0.001417  -0.00787
P  7.09743  7.09743  10.69062  0.000482  0.000482  0.010601
P  1.45019  10.23651  7.32869  0.003342  -0.001239  -0.005438
P  1.44942  7.32884  10.24185  0.009258  -0.001658  0.005521
P  10.23651  1.45019  7.32869  -0.001239  0.003342  -0.005438
P  10.26647  7.29723  1.5148  0.007869  -0.01002  0.007299
P  7.32884  1.44942  10.24185  -0.001658  0.009258  0.005521
P  7.29723  10.26647  1.5148  -0.01002  0.007869  0.007299
P  10.26516  10.26516  4.34822  0.010598  0.010598  -0.004662
P  10.23539  4.40382  10.24192  -0.002008  -0.005513  0.005728
P  4.40382  10.23539  10.24192  -0.005513  -0.002008  0.005728
P  7.29868  7.29868  4.34996  -0.01427  -0.01427  -0.010122
P  7.32533  4.40385  7.32793  0.004564  -0.004458  -0.003291
P  4.40385  7.32533  7.32793  -0.004458  0.004564  -0.003291
P  1.44819  1.44819  10.21622  -0.000166  -0.000166  0.007622
P  1.54792  10.2856  1.51921  0.000921  0.002382  -0.018616
P  10.2856  1.54792  1.51921  0.002382  0.000921  -0.018616
P  1.55004  7.27433  4.35139  -0.004041  0.004095  0.003434
P  1.45109  4.40236  7.35935  -0.003201  0.003473  -0.008366
P  7.27433  1.55004  4.35139  0.004095  -0.004041  0.003434
P  4.40236  1.45109  7.35935  0.003473  -0.003201  -0.008366
P  7.27158  4.3123  1.50949  0.010954  -0.008878  -0.002155
P  4.3123  7.27158  1.50949  -0.008878  0.010954  -0.002155
P  10.2932  4.31326  4.35489  -0.009407  -0.001737  -0.000802
P  4.31326  10.2932  4.35489  -0.001737  -0.009407  -0.000802
P  4.40341  4.40341  10.21156  0.001751  0.001751  0.014451
P  1.47767  1.47767  4.41001  -0.007794  -0.007794  0.007944
P  1.47399  4.37934  1.4451  -0.005274  0.007875  0.002008
P  4.37934  1.47399  1.4451  0.007875  -0.005274  0.002008
P  4.3777  4.3777  4.41275  0.01017  0.01017  -0.001368
65
Lattice="11.70751661 0.0 0.0 0.0 11.70751661 0.0 0.0 0.0 11.70751661" Properties=species:S:1:pos:R:3:forces:R:3 energy=-308.41463824 stress="4.56232 -0.05627 0.01878 -0.05627 4.56232 0.01878 0.01878 0.01878 14.09855" pbc="T T T"
In  8.7819  8.7819  10.06702  0.004907  0.004907  -0.010966
In  8.78355  8.78355  7.50217  0.002894  0.002894  0.010335
In  11.66123  11.66123  8.79522  -0.003484  -0.003484  -0.016588
In  0.14405  8.73723  0.16834  -0.011632  -0.014958  0.011362
In  8.73723  0.14405  0.16834  -0.014958  -0.011632  0.011362
In  0.14366  8.82739  5.69485  -0.002597  0.00272  0.004842
In  11.66337  5.89925  8.77934  -0.00254  0.001314  0.002921
In  8.82739  0.14366  5.69485  0.00272  -0.002597  0.004842
In  8.82718  5.71452  0.16446  0.005306  0.005812  0.011225
In  5.89925  11.66337  8.77934  0.001314  -0.00254  0.002921
In  5.71452  8.82718  0.16446  0.005812  0.005306  0.011225
In  8.73637  5.71413  5.69959  -0.000702  0.011942  -0.003677
In  5.71413  8.73637  5.69959  0.011942  -0.000702  -0.003677
In  5.89915  5.89915  8.79244  0.000499  0.000499  -0.009534
In  2.92763  8.78093  8.78475  4.4e-5  0.003202  -0.006264
In  8.78093  2.92763  8.78475  0.003202  4.4e-5  -0.006264
In  8.78187  8.78187  2.93026  -0.003986  -0.003986  0.006421
In  2.93329  0.01812  11.67637  0.016482  0.011064  0.009108
In  0.01812  2.93329  11.67637  0.011064  0.016482  0.009108
In  0.03166  0.03166  2.91595  0.005068  0.005068  0.002466
In  2.91672  0.0245  5.89518  -0.006251  0.002935  -0.003256
In  0.0245  2.91672  5.89518  0.002935  -0.006251  -0.003256
In  2.91754  5.83315  11.6724  -0.004535  -0.006627  0.014553
In  0.03513  5.82507  2.94697  0.000481  -0.008941  0.014563
In  5.83315  2.91754  11.6724  -0.006627  -0.004535  0.014553
In  5.82507  0.03513  2.94697  -0.008941  0.000481  0.014563
In  2.93591  5.83021  5.89587  0.010397  -0.00848  -0.002381
In  5.83021  2.93591  5.89587  -0.00848  0.010397  -0.002381
In  5.82373  5.82373  2.91677  -0.001436  -0.001436  -0.000288
In  2.92511  2.92511  8.78891  -0.002707  -0.002707  -0.002164
In  2.93729  8.78086  2.93546  -0.01866  -0.002336  -0.017229
In  8.78086  2.93729  2.93546  -0.002336  -0.01866  -0.017229
In  2.92827  2.92827  2.92541  0.001549  0.001549  0.002819
P  10.46542  10.46542  10.69622  -6.2e-5  -6.2e-5  0.008673
P  10.46773  7.09879  6.87968  -0.00341  -0.004901  -0.018487
P  7.09879  10.46773  6.87968  -0.004901  -0.00341  -0.018487
P  7.09773  7.09773  10.68997  -0.002698  -0.002698  0.017142
P  1.45046  10.23695  7.329  0.003293  -0.004325  -0.004021
P  1.45017  7.32855  10.2419  0.005636  -0.001657  0.000332
P  10.23695  1.45046  7.329  -0.004325  0.003293  -0.004021
P  10.26717  7.29599  1.51608  0.00613  -0.00261  -0.003182
P  7.32855  1.45017  10.2419  -0.001657  0.005636  0.000332
P  7.29599  10.26717  1.51608  -0.00261  0.00613  -0.003182
P  10.2657  10.2657  4.34838  0.011613  0.011613  -0.013092
P  10.23538  4.40346  10.242  -0.000315  -0.004326  -0.000502
P  4.40346  10.23538  10.242  -0.004326  -0.000315  -0.000502
P  7.29775  7.29775  4.34964  -0.012033  -0.012033  -0.014548
P  7.32565  4.40375  7.32816  0.000919  -0.005897  0.000144
P  4.40375  7.32565  7.32816  -0.005897  0.000919  0.000144
P  1.44755  1.44755  10.21618  0.00921  0.00921  0.00134
P  1.5478  10.2864  1.51704  0.006055  -0.013225  -0.007059
P  10.2864  1.5478  1.51704  -0.013225  0.006055  -0.007059
P  1.55013  7.27439  4.35198  -0.007038  0.009375  0.004552
P  1.45061  4.40229  7.35981  -0.000146  0.006858  -0.010225
P  7.27439  1.55013  4.35198  0.009375  -0.007038  0.004552
P  4.40229  1.45061  7.35981  0.006858  -0.000146  -0.010225
P  7.27207  4.31157  1.50901  0.01669  -0.00724  -0.002745
P  4.31157  7.27207  1.50901  -0.00724  0.01669  -0.002745
P  10.292  4.31229  4.35482  -0.003138  0.008691  0.005168
P  4.31229  10.292  4.35482  0.008691  -0.003138  0.005168
P  4.40352  4.40352  10.21187  0.003436  0.003436  0.010981
P  1.47759  1.47759  4.41097  -0.012139  -0.012139  0.005357
P  1.47349  4.38017  1.44528  -0.000189  0.001199  -0.000182
P  4.38017  1.47349  1.44528  0.001199  -0.000189  -0.000182
P  4.37824  4.37824  4.41265  0.009501  0.009501  0.002526
65
Lattice="11.70751661 0.0 0.0 0.0 11.70751661 0.0 0.0 0.0 11.70751661" Properties=species:S:1:pos:R:3:forces:R:3 energy=-308.41540125 stress="4.55578 -0.02547 0.01198 -0.02547 4.55578 0.01198 0.01198 0.01198 14.11824" pbc="T T T"
In  8.78237  8.78237  10.06675  -0.002294  -0.002294  -0.000295
In  8.78402  8.78402  7.50281  0.002529  0.002529  -0.000515
In  11.66098  11.66098  8.79372  -0.001101  -0.001101  -0.002162
In  0.1432  8.73561  0.16819  -0.007599  -0.010472  0.007144
In  8.73561  0.1432  0.16819  -0.010472  -0.007599  0.007144
In  0.14364  8.82812  5.69574  -0.009235  0.004248  -0.000101
In  11.66321  5.89942  8.77989  -0.00288  0.001629  0.000896
In  8.82812  0.14364  5.69574  0.004248  -0.009235  -0.000101
In  8.82782  5.71459  0.16468  0.007969  0.00657  0.007643
In  5.89942  11.66321  8.77989  0.001629  -0.00288  0.000896
In  5.71459  8.82782  0.16468  0.00657  0.007969  0.007643
In  8.73578  5.71478  5.6996  -0.005895  0.009169  -0.00462
In  5.71478  8.73578  5.6996  0.009169  -0.005895  -0.00462
In  5.8994  5.8994  8.79144  -0.00042  -0.00042  0.001879
In  2.92752  8.78117  8.78421  -0.000399  0.002338  0.000291
In  8.78117  2.92752  8.78421  0.002338  -0.000399  0.000291
In  8.78152  8.78152  2.93066  -0.000837  -0.000837  0.00449
In  2.93462  0.01917  11.67642  0.010019  0.008042  0.00399
In  0.01917  2.93462  11.67642  0.008042  0.010019  0.00399
In  0.0325  0.0325  2.91393  0.002769  0.002769  -0.00264
In  2.91709  0.02396  5.89526  -0.003916  0.00352  -0.00506
In  0.02396  2.91709  5.89526  0.00352  -0.003916  -0.00506
In  2.9176  5.83315  11.67347  -0.002831  -0.005847  0.008412
In  0.03547  5.824  2.94987  -0.001294  -0.003828  0.005135
In  5.83315  2.9176  11.67347  -0.005847  -0.002831  0.008412
In  5.824  0.03547  2.94987  -0.003828  -0.001294  0.005135
In  2.93621  5.83014  5.89621  0.008225  -0.004788  -0.00696
In  5.83014  2.93621  5.89621  -0.004788  0.008225  -0.00696
In  5.82332  5.82332  2.91394  -0.002999  -0.002999  -0.004013
In  2.9252  2.9252  8.78855  0.00076  0.00076  -0.000381
In  2.93526  8.78088  2.93431  -0.012518  0.004009  -0.005613
In  8.78088  2.93526  2.93431  0.004009  -0.012518  -0.005613
In  2.92815  2.92815  2.92616  0.000745  0.000745  0.004887
P  10.46541  10.46541  10.69655  0.003894  0.003894  0.007573
P  10.46756  7.09843  6.87892  -0.001749  -0.001297  -0.012401
P  7.09843  10.46756  6.87892  -0.001297  -0.001749  -0.012401
P  7.09774  7.09774  10.69091  0.0005  0.0005  0.009797
P  1.45096  10.23694  7.3289  0.001458  -0.003065  -0.001945
P  1.45125  7.32818  10.24197  -0.000955  -0.000685  -0.002039
P  10.23694  1.45096  7.3289  -0.003065  0.001458  -0.001945
P  10.26825  7.29477  1.51684  -0.000464  -0.000502  0.005058
P  7.32818  1.45125  10.24197  -0.000685  -0.000955  -0.002039
P  7.29477  10.26825  1.51684  -0.000502  -0.000464  0.005058
P  10.26713  10.26713  4.34739  0.003352  0.003352  -0.011793
P  10.23534  4.40279  10.24203  0.000183  0.001949  -0.003326
P  4.40279  10.23534  10.24203  0.001949  0.000183  -0.003326
P  7.29596  7.29596  4.34815  -0.002604  -0.002604  -0.011613
P  7.32599  4.40317  7.32836  -0.000163  0.000348  -0.002237
P  4.40317  7.32599  7.32836  0.000348  -0.000163  -0.002237
P  1.44782  1.44782  10.21627  0.005606  0.005606  -0.002447
P  1.54823  10.28592  1.51468  -0.001855  -0.005522  -0.002792
P  10.28592  1.54823  1.51468  -0.005522  -0.001855  -0.002792
P  1.5496  7.27523  4.35284  -0.001128  0.004233  0.005807
P  1.45021  4.40282  7.35932  0.00228  0.003008  -0.005669
P  7.27523  1.5496  4.35284  0.004233  -0.001128  0.005807
P  4.40282  1.45021  7.35932  0.003008  0.00228  -0.005669
P  7.2739  4.31036  1.50839  0.004524  0.000982  0.000196
P  4.31036  7.2739  1.50839  0.000982  0.004524  0.000196
P  10.29076  4.31224  4.35521  -0.006388  -0.002074  0.002387
P  4.31224  10.29076  4.35521  -0.002074  -0.006388  0.002387
P  4.4039  4.4039  10.21306  0.001787  0.001787  0.001772
P  1.47648  1.47648  4.4122  -0.003027  -0.003027  -0.004468
P  1.47306  4.38095  1.4454  0.005482  -0.002668  0.012379
P  4.38095  1.47306  1.4454  -0.002668  0.005482  0.012379
P  4.37949  4.37949  4.41279  0.001174  0.001174  -0.003224
65
Lattice="11.70751661 0.0 0.0 0.0 11.70751661 0.0 0.0 0.0 11.70751661" Properties=species:S:1:pos:R:3:forces:R:3 energy=-308.41561797 stress="4.55039 -0.00077 0.00684 -0.00077 4.55039 0.00684 0.00684 0.00684 14.13372" pbc="T T T"
In  8.78274  8.78274  10.06653  -0.008236  -0.008236  0.008319
In  8.78441  8.78441  7.50331  0.002054  0.002054  -0.009264
In  11.66077  11.66077  8.79252  0.000843  0.000843  0.009837
In  0.14251  8.73432  0.16807  -0.004144  -0.006374  0.004059
In  8.73432  0.14251  0.16807  -0.006374  -0.004144  0.004059
In  0.14363  8.8287  5.69645  -0.014629  0.005243  -0.004325
In  11.66308  5.89957  8.78033  -0.0031  0.001783  -0.001078
In  8.8287  0.14363  5.69645  0.005243  -0.014629  -0.004325
In  8.82833  5.71464  0.16485  0.009814  0.007239  0.004772
In  5.89957  11.66308  8.78033  0.001783  -0.0031  -0.001078
In  5.71464  8.82833  0.16485  0.007239  0.009814  0.004772
In  8.73531  5.7153  5.6996  -0.009789  0.006839  -0.005452
In  5.7153  8.73531  5.6996  0.006839  -0.009789  -0.005452
In  5.89961  5.89961  8.79064  -0.001273  -0.001273  0.011325
In  2.92743  8.78135  8.78378  -0.000652  0.001574  0.005777
In  8.78135  2.92743  8.78378  0.001574  -0.000652  0.005777
In  8.78123  8.78123  2.93099  0.001866  0.001866  0.002832
In  2.93568  0.02001  11.67647  0.004514  0.005313  5.2e-5
In  0.02001  2.93568  11.67647  0.005313  0.004514  5.2e-5
In  0.03317  0.03317  2.91231  0.000676  0.000676  -0.005959
In  2.91738  0.02352  5.89532  -0.002293  0.004328  -0.006591
In  0.02352  2.91738  5.89532  0.004328  -0.002293  -0.006591
In  2.91765  5.83314  11.67433  -0.00156  -0.0053  0.003189
In  0.03575  5.82315  2.9522  -0.002749  0.000436  -0.003022
In  5.83314  2.91765  11.67433  -0.0053  -0.00156  0.003189
In  5.82315  0.03575  2.9522  0.000436  -0.002749  -0.003022
In  2.93646  5.83009  5.89649  0.006437  -0.001889  -0.01085
In  5.83009  2.93646  5.89649  -0.001889  0.006437  -0.01085
In  5.82298  5.82298  2.91167  -0.004112  -0.004112  -0.006181
In  2.92528  2.92528  8.78827  0.003407  0.003407  0.001229
In  2.93363  8.7809  2.93338  -0.007275  0.009021  0.00379
In  8.7809  2.93363  2.93338  0.009021  -0.007275  0.00379
In  2.92805  2.92805  2.92676  0.000206  0.000206  0.006258
P  10.4654  10.4654  10.69681  0.007113  0.007113  0.006713
P  10.46741  7.09815  6.87831  -0.000399  0.001614  -0.007531
P  7.09815  10.46741  6.87831  0.001614  -0.000399  -0.007531
P  7.09775  7.09775  10.69167  0.003074  0.003074  0.003925
P  1.45136  10.23693  7.32883  -3.0e-6  -0.002021  -0.000257
P  1.45212  7.32789  10.24203  -0.006219  0.000104  -0.003965
P  10.23693  1.45136  7.32883  -0.002021  -3.0e-6  -0.000257
P  10.26913  7.29379  1.51745  -0.005723  0.001181  0.011675
P  7.32789  1.45212  10.24203  0.000104  -0.006219  -0.003965
P  7.29379  10.26913  1.51745  0.001181  -0.005723  0.011675
P  10.26828  10.26828  4.34659  -0.003246  -0.003246  -0.010759
P  10.23531  4.40226  10.24204  0.000574  0.006993  -0.00562
P  4.40226  10.23531  10.24204  0.006993  0.000574  -0.00562
P  7.29453  7.29453  4.34695  0.004971  0.004971  -0.009223
P  7.32626  4.4027  7.32852  -0.001029  0.005386  -0.00413
P  4.4027  7.32626  7.32852  0.005386  -0.001029  -0.00413
P  1.44804  1.44804  10.21633  0.002738  0.002738  -0.00549
P  1.54857  10.28554  1.51279  -0.008191  0.000654  0.000589
P  10.28554  1.54857  1.51279  0.000654  -0.008191  0.000589
P  1.54918  7.27591  4.35353  0.003652  0.000135  0.006794
P  1.4499  4.40324  7.35892  0.004236  -7.2e-5  -0.002017
P  7.27591  1.54918  4.35353  0.000135  0.003652  0.006794
P  4.40324  1.4499  7.35892  -7.2e-5  0.004236  -0.002017
P  7.27536  4.30939  1.5079  -0.005181  0.007622  0.002587
P  4.30939  7.27536  1.5079  0.007622  -0.005181  0.002587
P  10.28977  4.31221  4.35552  -0.009022  -0.010715  0.000138
P  4.31221  10.28977  4.35552  -0.010715  -0.009022  0.000138
P  4.40421  4.40421  10.21401  0.000482  0.000482  -0.005626
P  1.47559  1.47559  4.41318  0.004226  0.004226  -0.01227
P  1.47272  4.38157  1.4455  0.010037  -0.005732  0.022485
P  4.38157  1.47272  1.4455  -0.005732  0.010037  0.022485
P  4.3805  4.3805  4.4129  -0.005452  -0.005452  -0.007806
65
Lattice="11.70751661 0.0 0.0 0.0 11.70751661 0.0 0.0 0.0 11.70751661" Properties=species:S:1:pos:R:3:forces:R:3 energy=-308.41612634 stress="4.54728 0.02388 0.00075 0.02388 4.54728 0.00075 0.00075 0.00075 14.10072" pbc="T T T"
In  8.78222  8.78222  10.06718  0.005867  0.005867  -0.003956
In  8.78491  8.78491  7.50279  0.002227  0.002227  0.004107
In  11.66069  11.66069  8.79255  0.001741  0.001741  0.007549
In  0.14156  8.73266  0.16837  -0.002591  -0.001526  -0.000769
In  8.73266  0.14156  0.16837  -0.001526  -0.002591  -0.000769
In  0.14217  8.82969  5.69659  -0.00558  0.003432  -0.005776
In  11.66266  5.89986  8.78057  -0.000353  0.00203  -0.010748
In  8.82969  0.14217  5.69659  0.003432  -0.00558  -0.005776
In  8.82971  5.7154  0.16547  0.002294  0.000579  0.001979
In  5.89986  11.66266  8.78057  0.00203  -0.000353  -0.010748
In  5.7154  8.82971  0.16547  0.000579  0.002294  0.001979
In  8.73397  5.71639  5.69907  -0.004934  -0.00021  -0.006156
In  5.71639  8.73397  5.69907  -0.00021  -0.004934  -0.006156
In  5.89964  5.89964  8.79113  0.001134  0.001134  0.008103
In  2.9273  8.78166  8.78401  0.001407  -0.002585  0.001325
In  8.78166  2.9273  8.78401  -0.002585  0.001407  0.001325
In  8.78119  8.78119  2.93153  0.001744  0.001744  0.001067
In  2.93697  0.0212  11.67651  0.000723  0.00247  0.000324
In  0.0212  2.93697  11.67651  0.00247  0.000723  0.000324
In  0.03377  0.03377  2.91044  -0.000784  -0.000784  -0.004605
In  2.91738  0.0236  5.89472  -0.000606  0.002576  -0.002036
In  0.0236  2.91738  5.89472  0.002576  -0.000606  -0.002036
In  2.91754  5.83262  11.67532  -0.000943  -0.001249  -0.000938
In  0.03569  5.82252  2.95374  -0.00274  0.001146  0.004497
In  5.83262  2.91754  11.67532  -0.001249  -0.000943  -0.000938
In  5.82252  0.03569  2.95374  0.001146  -0.00274  0.004497
In  2.93729  5.82986  5.89563  0.003532  0.000671  -0.003612
In  5.82986  2.93729  5.89563  0.000671  0.003532  -0.003612
In  5.82231  5.82231  2.90926  -0.001875  -0.001875  -0.000238
In  2.92567  2.92567  8.78817  0.003887  0.003887  -0.002768
In  2.93163  8.7818  2.93303  -0.001126  -0.0023  0.001467
In  8.7818  2.93163  2.93303  -0.0023  -0.001126  0.001467
In  2.928  2.928  2.92785  -0.000278  -0.000278  0.009858
P  10.4661  10.4661  10.69769  -0.003324  -0.003324  0.005988
P  10.46726  7.09808  6.87709  -0.001901  -0.00165  -0.001796
P  7.09808  10.46726  6.87709  -0.00165  -0.001901  -0.001796
P  7.09807  7.09807  10.69265  -0.002637  -0.002637  0.005418
P  1.45168  10.23672  7.32874  -0.004655  0.002794  -0.000138
P  1.45219  7.32766  10.24168  -0.005535  -0.002246  0.002363
P  10.23672  1.45168  7.32874  0.002794  -0.004655  -0.000138
P  10.26925  7.29313  1.51909  -0.003315  0.004105  0.011307
P  7.32766  1.45219  10.24168  -0.002246  -0.005535  0.002363
P  7.29313  10.26925  1.51909  0.004105  -0.003315  0.011307
P  10.26887  10.26887  4.3449  -0.002482  -0.002482  -0.009095
P  10.23534  4.40253  10.2415  0.001699  0.006741  0.001808
P  4.40253  10.23534  10.2415  0.006741  0.001699  0.001808
P  7.29389  7.29389  4.34509  0.003505  0.003505  -0.008993
P  7.32637  4.40286  7.32824  -0.00276  0.00572  0.000995
P  4.40286  7.32637  7.32824  0.00572  -0.00276  0.000995
P  1.44849  1.44849  10.21584  0.002292  0.002292  -0.000695
P  1.54803  10.28529  1.51135  -0.005581  0.005131  -0.004272
P  10.28529  1.54803  1.51135  0.005131  -0.005581  -0.004272
P  1.54921  7.27646  4.35476  -0.0026  -0.000465  0.001499
P  1.45007  4.40357  7.35841  0.003342  -2.0e-5  -0.001281
P  7.27646  1.54921  4.35476  -0.000465  -0.0026  0.001499
P  4.40357  1.45007  7.35841  -2.0e-5  0.003342  -0.001281
P  7.276  4.30938  1.50776  0.002071  0.000756  0.001221
P  4.30938  7.276  1.50776  0.000756  0.002071  0.001221
P  10.28809  4.31112  4.35578  -0.002209  -0.001653  0.002225
P  4.31112  10.28809  4.35578  -0.001653  -0.002209  0.002225
P  4.4045  4.4045  10.2142  -0.002671  -0.002671  -0.001694
P  1.47531  1.47531  4.41275  0.003242  0.003242  -0.010742
P  1.47345  4.38149  1.44782  0.004228  -0.003711  0.011348
P  4.38149  1.47345  1.44782  -0.003711  0.004228  0.011348
P  4.38075  4.38075  4.41221  -0.003992  -0.003992  -0.008975
65
Lattice="11.70751661 0.0 0.0 0.0 11.70751661 0.0 0.0 0.0 11.70751661" Properties=species:S:1:pos:R:3:forces:R:3 energy=-308.41623349 stress="4.54701 0.0374 -0.0025 0.0374 4.54701 -0.0025 -0.0025 -0.0025 14.08425" pbc="T T T"
In  8.78193  8.78193  10.06754  0.013311  0.013311  -0.010349
In  8.78519  8.78519  7.50251  0.002505  0.002505  0.011142
In  11.66065  11.66065  8.79257  0.002303  0.002303  0.006568
In  0.14103  8.73174  0.16854  -0.001916  0.000834  -0.003323
In  8.73174  0.14103  0.16854  0.000834  -0.001916  -0.003323
In  0.14137  8.83023  5.69666  -0.001045  0.002721  -0.006623
In  11.66244  5.90002  8.7807  0.000957  0.002298  -0.016126
In  8.83023  0.14137  5.69666  0.002721  -0.001045  -0.006623
In  8.83047  5.71582  0.16581  -0.001358  -0.002804  0.000696
In  5.90002  11.66244  8.7807  0.002298  0.000957  -0.016126
In  5.71582  8.83047  0.16581  -0.002804  -0.001358  0.000696
In  8.73322  5.71699  5.69877  -0.002626  -0.003913  -0.006782
In  5.71699  8.73322  5.69877  -0.003913  -0.002626  -0.006782
In  5.89966  5.89966  8.7914  0.002452  0.002452  0.006751
In  2.92723  8.78183  8.78413  0.002525  -0.004843  -0.00094
In  8.78183  2.92723  8.78413  -0.004843  0.002525  -0.00094
In  8.78117  8.78117  2.93182  0.001748  0.001748  -7.2e-5
In  2.93768  0.02186  11.67653  -0.001033  0.001203  0.000467
In  0.02186  2.93768  11.67653  0.001203  -0.001033  0.000467
In  0.0341  0.0341  2.9094  -0.001438  -0.001438  -0.004483
In  2.91738  0.02365  5.89438  0.000213  0.001746  0.000104
In  0.02365  2.91738  5.89438  0.001746  0.000213  0.000104
In  2.91748  5.83232  11.67587  -0.00069  0.000733  -0.002895
In  0.03566  5.82217  2.9546  -0.002811  0.001348  0.009116
In  5.83232  2.91748  11.67587  0.000733  -0.00069  -0.002895
In  5.82217  0.03566  2.9546  0.001348  -0.002811  0.009116
In  2.93775  5.82973  5.89515  0.00221  0.002026  -7.9e-5
In  5.82973  2.93775  5.89515  0.002026  0.00221  -7.9e-5
In  5.82194  5.82194  2.90792  -0.000735  -0.000735  0.002739
In  2.92589  2.92589  8.78811  0.004343  0.004343  -0.00495
In  2.93051  8.7823  2.93283  0.001846  -0.008344  0.00019
In  8.7823  2.93051  2.93283  -0.008344  0.001846  0.00019
In  2.92796  2.92796  2.92846  -0.000549  -0.000549  0.012316
P  10.46649  10.46649  10.69817  -0.009036  -0.009036  0.005598
P  10.46718  7.09804  6.87641  -0.002744  -0.003449  0.001339
P  7.09804  10.46718  6.87641  -0.003449  -0.002744  0.001339
P  7.09824  7.09824  10.6932  -0.005785  -0.005785  0.006228
P  1.45185  10.2366  7.32869  -0.007239  0.005451  -7.3e-5
P  1.45223  7.32754  10.24149  -0.005183  -0.003549  0.005827
P  10.2366  1.45185  7.32869  0.005451  -0.007239  -7.3e-5
P  10.26932  7.29276  1.52  -0.001982  0.005693  0.01111
P  7.32754  1.45223  10.24149  -0.003549  -0.005183  0.005827
P  7.29276  10.26932  1.52  0.005693  -0.001982  0.01111
P  10.26919  10.26919  4.34396  -0.002077  -0.002077  -0.008188
P  10.23536  4.40268  10.2412  0.002316  0.006616  0.005885
P  4.40268  10.23536  10.2412  0.006616  0.002316  0.005885
P  7.29353  7.29353  4.34405  0.002696  0.002696  -0.008865
P  7.32643  4.40295  7.32808  -0.003726  0.005929  0.00379
P  4.40295  7.32643  7.32808  0.005929  -0.003726  0.00379
P  1.44873  1.44873  10.21557  0.002043  0.002043  0.001934
P  1.54773  10.28516  1.51056  -0.004164  0.007586  -0.006965
P  10.28516  1.54773  1.51056  0.007586  -0.004164  -0.006965
P  1.54922  7.27677  4.35543  -0.006039  -0.000802  -0.001437
P  1.45016  4.40375  7.35812  0.002857  -1.2e-5  -0.000902
P  7.27677  1.54922  4.35543  -0.000802  -0.006039  -0.001437
P  4.40375  1.45016  7.35812  -1.2e-5  0.002857  -0.000902
P  7.27636  4.30938  1.50769  0.006049  -0.003026  0.000449
P  4.30938  7.27636  1.50769  -0.003026  0.006049  0.000449
P  10.28716  4.31051  4.35592  0.001536  0.003317  0.003354
P  4.31051  10.28716  4.35592  0.003317  0.001536  0.003354
P  4.40466  4.40466  10.21431  -0.004419  -0.004419  0.00044
P  1.47515  1.47515  4.41251  0.002703  0.002703  -0.009912
P  1.47385  4.38145  1.4491  0.001009  -0.002591  0.005186
P  4.38145  1.47385  1.4491  -0.002591  0.001009  0.005186
P  4.38089  4.38089  4.41183  -0.003193  -0.003193  -0.00964
65
Lattice="11.70751661 0.0 0.0 0.0 11.70751661 0.0 0.0 0.0 11.70751661" Properties=species:S:1:pos:R:3:forces:R:3 energy=-308.41651845 stress="4.52893 -0.00999 0.01837 -0.00999 4.52893 0.01837 0.01837 0.01837 14.12024" pbc="T T T"
In  8.78307  8.78307  10.06681  -0.009044  -0.009044  0.007805
In  8.78578  8.78578  7.50341  0.001462  0.001462  -0.006402
In  11.66085  11.66085  8.79331  0.000311  0.000311  0.010286
In  0.14023  8.73079  0.16837  -0.000546  0.000511  0.002661
In  8.73079  0.14023  0.16837  0.000511  -0.000546  0.002661
In  0.14034  8.83115  5.69602  0.000708  0.000623  -0.000988
In  11.66228  5.90045  8.77908  0.001939  -0.000861  -0.006849
In  8.83115  0.14034  5.69602  0.000623  0.000708  -0.000988