63
Lattice="11.70751661 0.0 0.0 0.0 11.70751661 0.0 0.0 0.0 11.70751661" Properties=species:S:1:pos:R:3:forces:R:3 energy=-300.84190038 stress="-16.75513 -1.00427 -1.00427 -1.00427 -16.75513 -1.00427 -1.00427 -1.00427 -16.75513" pbc="T T T"
In  10.04183  10.04183  10.04183  0.041877  0.041877  0.041877
In  10.10104  7.47632  7.47632  0.034284  -0.022289  -0.022289
In  7.47632  10.10104  7.47632  -0.022289  0.034284  -0.022289
In  7.47632  7.47632  10.10104  -0.022289  -0.022289  0.034284
In  1.45055  10.24891  7.31198  0.021423  -0.032421  0.036984
In  1.45055  7.31198  10.24891  0.021423  0.036984  -0.032421
In  10.24891  1.45055  7.31198  -0.032421  0.021423  0.036984
In  10.24891  7.31198  1.45055  -0.032421  0.036984  0.021423
In  7.31198  1.45055  10.24891  0.036984  0.021423  -0.032421
In  7.31198  10.24891  1.45055  0.036984  -0.032421  0.021423
In  10.24668  10.24668  4.39645  -0.085221  -0.085221  -0.070431
In  10.24668  4.39645  10.24668  -0.085221  -0.070431  -0.085221
In  4.39645  10.24668  10.24668  -0.070431  -0.085221  -0.085221
In  7.31657  7.31657  4.40379  0.046458  0.046458  -0.089546
In  7.31657  4.40379  7.31657  0.046458  -0.089546  0.046458
In  4.40379  7.31657  7.31657  -0.089546  0.046458  0.046458
In  1.41561  1.41561  10.23697  0.036937  0.036937  -0.023521
In  1.41561  10.23697  1.41561  0.036937  -0.023521  0.036937
In  10.23697  1.41561  1.41561  -0.023521  0.036937  0.036937
In  1.4307  7.31463  4.42024  0.086807  0.09445  -0.143523
In  1.4307  4.42024  7.31463  0.086807  -0.143523  0.09445
In  7.31463  1.4307  4.42024  0.09445  0.086807  -0.143523
In  4.42024  1.4307  7.31463  -0.143523  0.086807  0.09445
In  7.31463  4.42024  1.4307  0.09445  -0.143523  0.086807
In  4.42024  7.31463  1.4307  -0.143523  0.09445  0.086807
In  10.24391  4.42578  4.42578  -0.131195  -0.203584  -0.203584
In  4.42578  10.24391  4.42578  -0.203584  -0.131195  -0.203584
In  4.42578  4.42578  10.24391  -0.203584  -0.203584  -0.131195
In  1.46268  1.46268  4.3879  -0.050667  -0.050667  -0.086918
In  1.46268  4.3879  1.46268  -0.050667  -0.086918  -0.050667
In  4.3879  1.46268  1.46268  -0.086918  -0.050667  -0.050667
In  4.39172  4.39172  4.39172  -0.04667  -0.04667  -0.04667
P  11.63579  11.63579  8.78316  0.003665  0.003665  -0.000326
P  11.63579  8.78316  11.63579  0.003665  -0.000326  0.003665
P  8.78316  11.63579  11.63579  -0.000326  0.003665  0.003665
P  11.65687  8.77813  5.90054  0.002629  -0.011939  -0.0133
P  11.65687  5.90054  8.77813  0.002629  -0.0133  -0.011939
P  8.77813  11.65687  5.90054  -0.011939  0.002629  -0.0133
P  8.77813  5.90054  11.65687  -0.011939  -0.0133  0.002629
P  5.90054  11.65687  8.77813  -0.0133  0.002629  -0.011939
P  5.90054  8.77813  11.65687  -0.0133  -0.011939  0.002629
P  8.78749  5.91274  5.91274  -0.002351  -0.029403  -0.029403
P  5.91274  8.78749  5.91274  -0.029403  -0.002351  -0.029403
P  5.91274  5.91274  8.78749  -0.029403  -0.029403  -0.002351
P  2.91323  8.77778  8.77778  0.103792  0.010989  0.010989
P  8.77778  2.91323  8.77778  0.010989  0.103792  0.010989
P  8.77778  8.77778  2.91323  0.010989  0.010989  0.103792
P  2.91347  11.69526  11.69526  0.049784  0.067148  0.067148
P  11.69526  2.91347  11.69526  0.067148  0.049784  0.067148
P  11.69526  11.69526  2.91347  0.067148  0.067148  0.049784
P  2.92287  11.70578  5.8528  0.047246  -0.03667  0.013318
P  11.70578  2.92287  5.8528  -0.03667  0.047246  0.013318
P  2.92287  5.8528  11.70578  0.047246  0.013318  -0.03667
P  11.70578  5.8528  2.92287  -0.03667  0.013318  0.047246
P  5.8528  2.92287  11.70578  0.013318  0.047246  -0.03667
P  5.8528  11.70578  2.92287  0.013318  -0.03667  0.047246
P  2.92039  5.85841  5.85841  0.071646  -0.000722  -0.000722
P  5.85841  2.92039  5.85841  -0.000722  0.071646  -0.000722
P  5.85841  5.85841  2.92039  -0.000722  -0.000722  0.071646
P  2.89794  2.89794  8.78318  0.214974  0.214974  -0.020325
P  2.89794  8.78318  2.89794  0.214974  -0.020325  0.214974
P  8.78318  2.89794  2.89794  -0.020325  0.214974  0.214974
P  2.92046  2.92046  2.92046  0.063319  0.063319  0.063319
63
Lattice="11.70751661 0.0 0.0 0.0 11.70751661 0.0 0.0 0.0 11.70751661" Properties=species:S:1:pos:R:3:forces:R:3 energy=-300.90428286 stress="-15.61522 -0.19397 -0.19397 -0.19397 -15.61522 -0.19397 -0.19397 -0.19397 -15.61522" pbc="T T T"
In  10.07241  10.07241  10.07241  0.008463  0.008463  0.008463
In  10.12341  7.44476  7.44476  -0.003565  0.00243  0.00243
In  7.44476  10.12341  7.44476  0.00243  -0.003565  0.00243
In  7.44476  7.44476  10.12341  0.00243  0.00243  -0.003565
In  1.45313  10.24242  7.31607  -0.001803  0.003807  -0.001861
In  1.45313  7.31607  10.24242  -0.001803  -0.001861  0.003807
In  10.24242  1.45313  7.31607  0.003807  -0.001803  -0.001861
In  10.24242  7.31607  1.45313  0.003807  -0.001861  -0.001803
In  7.31607  1.45313  10.24242  -0.001861  -0.001803  0.003807
In  7.31607  10.24242  1.45313  -0.001861  0.003807  -0.001803
In  10.23958  10.23958  4.39221  1.6e-5  1.6e-5  0.001382
In  10.23958  4.39221  10.23958  1.6e-5  0.001382  1.6e-5
In  4.39221  10.23958  10.23958  0.001382  1.6e-5  1.6e-5
In  7.31815  7.31815  4.39793  -0.002272  -0.002272  -0.002074
In  7.31815  4.39793  7.31815  -0.002272  -0.002074  -0.002272
In  4.39793  7.31815  7.31815  -0.002074  -0.002272  -0.002272
In  1.43558  1.43558  10.23438  -0.000145  -0.000145  0.00265
In  1.43558  10.23438  1.43558  -0.000145  0.00265  -0.000145
In  10.23438  1.43558  1.43558  0.00265  -0.000145  -0.000145
In  1.44648  7.31457  4.40373  -0.002975  0.003589  -0.004047
In  1.44648  4.40373  7.31457  -0.002975  -0.004047  0.003589
In  7.31457  1.44648  4.40373  0.003589  -0.002975  -0.004047
In  4.40373  1.44648  7.31457  -0.004047  -0.002975  0.003589
In  7.31457  4.40373  1.44648  0.003589  -0.004047  -0.002975
In  4.40373  7.31457  1.44648  -0.004047  0.003589  -0.002975
In  10.23832  4.4038  4.4038  0.00162  -0.0007  -0.0007
In  4.4038  10.23832  4.4038  -0.0007  0.00162  -0.0007
In  4.4038  4.4038  10.23832  -0.0007  -0.0007  0.00162
In  1.45922  1.45922  4.38527  -0.0008  -0.0008  -0.000535
In  1.45922  4.38527  1.45922  -0.0008  -0.000535  -0.0008
In  4.38527  1.45922  1.45922  -0.000535  -0.0008  -0.0008
In  4.38948  4.38948  4.38948  -0.002736  -0.002736  -0.002736
P  11.65214  11.65214  8.78407  0.002709  0.002709  0.004017
P  11.65214  8.78407  11.65214  0.002709  0.004017  0.002709
P  8.78407  11.65214  11.65214  0.004017  0.002709  0.002709
P  11.66812  8.77452  5.88764  -0.000513  0.00258  -0.000171
P  11.66812  5.88764  8.77452  -0.000513  -0.000171  0.00258
P  8.77452  11.66812  5.88764  0.00258  -0.000513  -0.000171
P  8.77452  5.88764  11.66812  0.00258  -0.000171  -0.000513
P  5.88764  11.66812  8.77452  -0.000171  -0.000513  0.00258
P  5.88764  8.77452  11.66812  -0.000171  0.00258  -0.000513
P  8.78583  5.89456  5.89456  -0.000541  -0.002548  -0.002548
P  5.89456  8.78583  5.89456  -0.002548  -0.000541  -0.002548
P  5.89456  5.89456  8.78583  -0.002548  -0.002548  -0.000541
P  2.92288  8.77711  8.77711  -0.001422  0.003875  0.003875
P  8.77711  2.92288  8.77711  0.003875  -0.001422  0.003875
P  8.77711  8.77711  2.92288  0.003875  0.003875  -0.001422
P  2.92025  11.6995  11.6995  -0.005062  0.001915  0.001915
P  11.6995  2.92025  11.6995  0.001915  -0.005062  0.001915
P  11.6995  11.6995  2.92025  0.001915  0.001915  -0.005062
P  2.92468  11.70181  5.85368  0.002096  -0.001643  0.00044
P  11.70181  2.92468  5.85368  -0.001643  0.002096  0.00044
P  2.92468  5.85368  11.70181  0.002096  0.00044  -0.001643
P  11.70181  5.85368  2.92468  -0.001643  0.00044  0.002096
P  5.85368  2.92468  11.70181  0.00044  0.002096  -0.001643
P  5.85368  11.70181  2.92468  0.00044  -0.001643  0.002096
P  2.9268  5.85684  5.85684  -0.001892  -0.001839  -0.001839
P  5.85684  2.9268  5.85684  -0.001839  -0.001892  -0.001839
P  5.85684  5.85684  2.9268  -0.001839  -0.001839  -0.001892
P  2.92147  2.92147  8.77858  -0.001868  -0.001868  0.001581
P  2.92147  8.77858  2.92147  -0.001868  0.001581  -0.001868
P  8.77858  2.92147  2.92147  0.001581  -0.001868  -0.001868
P  2.92515  2.92515  2.92515  -0.002432  -0.002432  -0.002432
63
Lattice="11.70751661 0.0 0.0 0.0 11.70751661 0.0 0.0 0.0 11.70751661" Properties=species:S:1:pos:R:3:forces:R:3 energy=-300.90428345 stress="-15.60793 -0.19625 -0.19625 -0.19625 -15.60793 -0.19625 -0.19625 -0.19625 -15.60793" pbc="T T T"
In  10.07262  10.07262  10.07262  0.008566  0.008566  0.008566
In  10.12349  7.44468  7.44468  -0.003463  0.00199  0.00199
In  7.44468  10.12349  7.44468  0.00199  -0.003463  0.00199
In  7.44468  7.44468  10.12349  0.00199  0.00199  -0.003463
In  1.45308  10.24243  7.31615  -0.001663  0.003847  -0.002452
In  1.45308  7.31615  10.24243  -0.001663  -0.002452  0.003847
In  10.24243  1.45308  7.31615  0.003847  -0.001663  -0.002452
In  10.24243  7.31615  1.45308  0.003847  -0.002452  -0.001663
In  7.31615  1.45308  10.24243  -0.002452  -0.001663  0.003847
In  7.31615  10.24243  1.45308  -0.002452  0.003847  -0.001663
In  10.23964  10.23964  4.39218  -0.0004  -0.0004  0.001495
In  10.23964  4.39218  10.23964  -0.0004  0.001495  -0.0004
In  4.39218  10.23964  10.23964  0.001495  -0.0004  -0.0004
In  7.31817  7.31817  4.39784  -0.002642  -0.002642  -0.002036
In  7.31817  4.39784  7.31817  -0.002642  -0.002036  -0.002642
In  4.39784  7.31817  7.31817  -0.002036  -0.002642  -0.002642
In  1.43562  1.43562  10.2344  -0.000188  -0.000188  0.003161
In  1.43562  10.2344  1.43562  -0.000188  0.003161  -0.000188
In  10.2344  1.43562  1.43562  0.003161  -0.000188  -0.000188
In  1.44648  7.3146  4.40374  -0.003234  0.003551  -0.0044
In  1.44648  4.40374  7.3146  -0.003234  -0.0044  0.003551
In  7.3146  1.44648  4.40374  0.003551  -0.003234  -0.0044
In  4.40374  1.44648  7.3146  -0.0044  -0.003234  0.003551
In  7.3146  4.40374  1.44648  0.003551  -0.0044  -0.003234
In  4.40374  7.3146  1.44648  -0.0044  0.003551  -0.003234
In  10.23829  4.40381  4.40381  0.002207  -0.000985  -0.000985
In  4.40381  10.23829  4.40381  -0.000985  0.002207  -0.000985
In  4.40381  4.40381  10.23829  -0.000985  -0.000985  0.002207
In  1.45928  1.45928  4.38519  -0.001178  -0.001178  -0.000309
In  1.45928  4.38519  1.45928  -0.001178  -0.000309  -0.001178
In  4.38519  1.45928  1.45928  -0.000309  -0.001178  -0.001178
In  4.38939  4.38939  4.38939  -0.002805  -0.002805  -0.002805
P  11.65217  11.65217  8.78405  0.002882  0.002882  0.004779
P  11.65217  8.78405  11.65217  0.002882  0.004779  0.002882
P  8.78405  11.65217  11.65217  0.004779  0.002882  0.002882
P  11.6681  8.77455  5.88763  -0.000267  0.002365  -0.000126
P  11.6681  5.88763  8.77455  -0.000267  -0.000126  0.002365
P  8.77455  11.6681  5.88763  0.002365  -0.000267  -0.000126
P  8.77455  5.88763  11.6681  0.002365  -0.000126  -0.000267
P  5.88763  11.6681  8.77455  -0.000126  -0.000267  0.002365
P  5.88763  8.77455  11.6681  -0.000126  0.002365  -0.000267
P  8.78586  5.89451  5.89451  -0.001194  -0.002349  -0.002349
P  5.89451  8.78586  5.89451  -0.002349  -0.001194  -0.002349
P  5.89451  5.89451  8.78586  -0.002349  -0.002349  -0.001194
P  2.92284  8.77712  8.77712  -0.001262  0.004235  0.004235
P  8.77712  2.92284  8.77712  0.004235  -0.001262  0.004235
P  8.77712  8.77712  2.92284  0.004235  0.004235  -0.001262
P  2.92034  11.69948  11.69948  -0.006424  0.002472  0.002472
P  11.69948  2.92034  11.69948  0.002472  -0.006424  0.002472
P  11.69948  11.69948  2.92034  0.002472  0.002472  -0.006424
P  2.92459  11.70185  5.85362  0.002683  -0.002054  0.000995
P  11.70185  2.92459  5.85362  -0.002054  0.002683  0.000995
P  2.92459  5.85362  11.70185  0.002683  0.000995  -0.002054
P  11.70185  5.85362  2.92459  -0.002054  0.000995  0.002683
P  5.85362  2.92459  11.70185  0.000995  0.002683  -0.002054
P  5.85362  11.70185  2.92459  0.000995  -0.002054  0.002683
P  2.92678  5.85677  5.85677  -0.001784  -0.001433  -0.001433
P  5.85677  2.92678  5.85677  -0.001433  -0.001784  -0.001433
P  5.85677  5.85677  2.92678  -0.001433  -0.001433  -0.001784
P  2.92143  2.92143  8.77864  -0.00145  -0.00145  0.000936
P  2.92143  8.77864  2.92143  -0.00145  0.000936  -0.00145
P  8.77864  2.92143  2.92143  0.000936  -0.00145  -0.00145
P  2.9251  2.9251  2.9251  -0.002264  -0.002264  -0.002264
63
Lattice="11.70751661 0.0 0.0 0.0 11.70751661 0.0 0.0 0.0 11.70751661" Properties=species:S:1:pos:R:3:forces:R:3 energy=-300.90438707 stress="-15.59915 -0.18403 -0.18403 -0.18403 -15.59915 -0.18403 -0.18403 -0.18403 -15.59915" pbc="T T T"
In  10.07396  10.07396  10.07396  0.005695  0.005695  0.005695
In  10.12332  7.44471  7.44471  -0.004591  0.001139  0.001139
In  7.44471  10.12332  7.44471  0.001139  -0.004591  0.001139
In  7.44471  7.44471  10.12332  0.001139  0.001139  -0.004591
In  1.45281  10.24284  7.3161  0.000685  0.001149  -0.001103
In  1.45281  7.3161  10.24284  0.000685  -0.001103  0.001149
In  10.24284  1.45281  7.3161  0.001149  0.000685  -0.001103
In  10.24284  7.3161  1.45281  0.001149  -0.001103  0.000685
In  7.3161  1.45281  10.24284  -0.001103  0.000685  0.001149
In  7.3161  10.24284  1.45281  -0.001103  0.001149  0.000685
In  10.23975  10.23975  4.39226  0.000717  0.000717  -0.001156
In  10.23975  4.39226  10.23975  0.000717  -0.001156  0.000717
In  4.39226  10.23975  10.23975  -0.001156  0.000717  0.000717
In  7.31797  7.31797  4.39744  -0.000832  -0.000832  -0.002289
In  7.31797  4.39744  7.31797  -0.000832  -0.002289  -0.000832
In  4.39744  7.31797  7.31797  -0.002289  -0.000832  -0.000832
In  1.43569  1.43569  10.23474  0.00033  0.00033  0.002326
In  1.43569  10.23474  1.43569  0.00033  0.002326  0.00033
In  10.23474  1.43569  1.43569  0.002326  0.00033  0.00033
In  1.44618  7.315  4.40334  -0.001204  0.001142  -0.000949
In  1.44618  4.40334  7.315  -0.001204  -0.000949  0.001142
In  7.315  1.44618  4.40334  0.001142  -0.001204  -0.000949
In  4.40334  1.44618  7.315  -0.000949  -0.001204  0.001142
In  7.315  4.40334  1.44618  0.001142  -0.000949  -0.001204
In  4.40334  7.315  1.44618  -0.000949  0.001142  -0.001204
In  10.23844  4.40371  4.40371  0.00022  -0.001114  -0.001114
In  4.40371  10.23844  4.40371  -0.001114  0.00022  -0.001114
In  4.40371  4.40371  10.23844  -0.001114  -0.001114  0.00022
In  1.45932  1.45932  4.38496  -0.002212  -0.002212  0.002718
In  1.45932  4.38496  1.45932  -0.002212  0.002718  -0.002212
In  4.38496  1.45932  1.45932  0.002718  -0.002212  -0.002212
In  4.38892  4.38892  4.38892  -0.000758  -0.000758  -0.000758
P  11.65252  11.65252  8.78448  0.00313  0.00313  0.00208
P  11.65252  8.78448  11.65252  0.00313  0.00208  0.00313
P  8.78448  11.65252  11.65252  0.00208  0.00313  0.00313
P  11.66804  8.77487  5.88758  6.5e-5  0.000262  0.001403
P  11.66804  5.88758  8.77487  6.5e-5  0.001403  0.000262
P  8.77487  11.66804  5.88758  0.000262  6.5e-5  0.001403
P  8.77487  5.88758  11.66804  0.000262  0.001403  6.5e-5
P  5.88758  11.66804  8.77487  0.001403  6.5e-5  0.000262
P  5.88758  8.77487  11.66804  0.001403  0.000262  6.5e-5
P  8.78582  5.89417  5.89417  -0.002009  -0.000427  -0.000427
P  5.89417  8.78582  5.89417  -0.000427  -0.002009  -0.000427
P  5.89417  5.89417  8.78582  -0.000427  -0.000427  -0.002009
P  2.92262  8.77754  8.77754  -0.001549  0.000577  0.000577
P  8.77754  2.92262  8.77754  0.000577  -0.001549  0.000577
P  8.77754  8.77754  2.92262  0.000577  0.000577  -0.001549
P  2.91994  11.69968  11.69968  -0.001287  0.000712  0.000712
P  11.69968  2.91994  11.69968  0.000712  -0.001287  0.000712
P  11.69968  11.69968  2.91994  0.000712  0.000712  -0.001287
P  2.92467  11.70175  5.8536  0.00036  -0.000363  0.000297
P  11.70175  2.92467  5.8536  -0.000363  0.00036  0.000297
P  2.92467  5.8536  11.70175  0.00036  0.000297  -0.000363
P  11.70175  5.8536  2.92467  -0.000363  0.000297  0.00036
P  5.8536  2.92467  11.70175  0.000297  0.00036  -0.000363
P  5.8536  11.70175  2.92467  0.000297  -0.000363  0.00036
P  2.92656  5.85648  5.85648  -0.005063  -0.000909  -0.000909
P  5.85648  2.92656  5.85648  -0.000909  -0.005063  -0.000909
P  5.85648  5.85648  2.92656  -0.000909  -0.000909  -0.005063
P  2.92119  2.92119  8.77888  -0.000223  -0.000223  0.001334
P  2.92119  8.77888  2.92119  -0.000223  0.001334  -0.000223
P  8.77888  2.92119  2.92119  0.001334  -0.000223  -0.000223
P  2.92477  2.92477  2.92477  -0.000936  -0.000936  -0.000936
63
Lattice="11.70751661 0.0 0.0 0.0 11.70751661 0.0 0.0 0.0 11.70751661" Properties=species:S:1:pos:R:3:forces:R:3 energy=-300.90441263 stress="-15.58882 -0.17365 -0.17365 -0.17365 -15.58882 -0.17365 -0.17365 -0.17365 -15.58882" pbc="T T T"
In  10.07502  10.07502  10.07502  0.003627  0.003627  0.003627
In  10.1232  7.44473  7.44473  -0.005333  0.000319  0.000319
In  7.44473  10.1232  7.44473  0.000319  -0.005333  0.000319
In  7.44473  7.44473  10.1232  0.000319  0.000319  -0.005333
In  1.45259  10.24315  7.31606  0.002476  -0.001027  8.3e-5
In  1.45259  7.31606  10.24315  0.002476  8.3e-5  -0.001027
In  10.24315  1.45259  7.31606  -0.001027  0.002476  8.3e-5
In  10.24315  7.31606  1.45259  -0.001027  8.3e-5  0.002476
In  7.31606  1.45259  10.24315  8.3e-5  0.002476  -0.001027
In  7.31606  10.24315  1.45259  8.3e-5  -0.001027  0.002476
In  10.23984  10.23984  4.39232  0.001648  0.001648  -0.003284
In  10.23984  4.39232  10.23984  0.001648  -0.003284  0.001648
In  4.39232  10.23984  10.23984  -0.003284  0.001648  0.001648
In  7.31781  7.31781  4.39713  0.00062  0.00062  -0.002647
In  7.31781  4.39713  7.31781  0.00062  -0.002647  0.00062
In  4.39713  7.31781  7.31781  -0.002647  0.00062  0.00062
In  1.43575  1.43575  10.23501  0.000812  0.000812  0.00165
In  1.43575  10.23501  1.43575  0.000812  0.00165  0.000812
In  10.23501  1.43575  1.43575  0.00165  0.000812  0.000812
In  1.44594  7.31532  4.40303  0.000399  -0.000727  0.001834
In  1.44594  4.40303  7.31532  0.000399  0.001834  -0.000727
In  7.31532  1.44594  4.40303  -0.000727  0.000399  0.001834
In  4.40303  1.44594  7.31532  0.001834  0.000399  -0.000727
In  7.31532  4.40303  1.44594  -0.000727  0.001834  0.000399
In  4.40303  7.31532  1.44594  0.001834  -0.000727  0.000399
In  10.23856  4.40364  4.40364  -0.00142  -0.001184  -0.001184
In  4.40364  10.23856  4.40364  -0.001184  -0.00142  -0.001184
In  4.40364  4.40364  10.23856  -0.001184  -0.001184  -0.00142
In  1.45934  1.45934  4.38478  -0.002926  -0.002926  0.004981
In  1.45934  4.38478  1.45934  -0.002926  0.004981  -0.002926
In  4.38478  1.45934  1.45934  0.004981  -0.002926  -0.002926
In  4.38855  4.38855  4.38855  0.000774  0.000774  0.000774
P  11.6528  11.6528  8.78481  0.003282  0.003282  -4.0e-5
P  11.6528  8.78481  11.6528  0.003282  -4.0e-5  0.003282
P  8.78481  11.6528  11.6528  -4.0e-5  0.003282  0.003282
P  11.66799  8.77511  5.88754  0.000321  -0.001376  0.002559
P  11.66799  5.88754  8.77511  0.000321  0.002559  -0.001376
P  8.77511  11.66799  5.88754  -0.001376  0.000321  0.002559
P  8.77511  5.88754  11.66799  -0.001376  0.002559  0.000321
P  5.88754  11.66799  8.77511  0.002559  0.000321  -0.001376
P  5.88754  8.77511  11.66799  0.002559  -0.001376  0.000321
P  8.7858  5.89389  5.89389  -0.002603  0.001051  0.001051
P  5.89389  8.7858  5.89389  0.001051  -0.002603  0.001051
P  5.89389  5.89389  8.7858  0.001051  0.001051  -0.002603
P  2.92244  8.77788  8.77788  -0.001813  -0.00229  -0.00229
P  8.77788  2.92244  8.77788  -0.00229  -0.001813  -0.00229
P  8.77788  8.77788  2.92244  -0.00229  -0.00229  -0.001813
P  2.91962  11.69983  11.69983  0.002718  -0.000666  -0.000666
P  11.69983  2.91962  11.69983  -0.000666  0.002718  -0.000666
P  11.69983  11.69983  2.91962  -0.000666  -0.000666  0.002718
P  2.92473  11.70166  5.85358  -0.001484  0.000977  -0.000266
P  11.70166  2.92473  5.85358  0.000977  -0.001484  -0.000266
P  2.92473  5.85358  11.70166  -0.001484  -0.000266  0.000977
P  11.70166  5.85358  2.92473  0.000977  -0.000266  -0.001484
P  5.85358  2.92473  11.70166  -0.000266  -0.001484  0.000977
P  5.85358  11.70166  2.92473  -0.000266  0.000977  -0.001484
P  2.92638  5.85625  5.85625  -0.007629  -0.000498  -0.000498
P  5.85625  2.92638  5.85625  -0.000498  -0.007629  -0.000498
P  5.85625  5.85625  2.92638  -0.000498  -0.000498  -0.007629
P  2.92101  2.92101  8.77906  0.000696  0.000696  0.001672
P  2.92101  8.77906  2.92101  0.000696  0.001672  0.000696
P  8.77906  2.92101  2.92101  0.001672  0.000696  0.000696
P  2.92451  2.92451  2.92451  8.3e-5  8.3e-5  8.3e-5
63
Lattice="11.70751661 0.0 0.0 0.0 11.70751661 0.0 0.0 0.0 11.70751661" Properties=species:S:1:pos:R:3:forces:R:3 energy=-300.90447773 stress="-15.5831 -0.16357 -0.16357 -0.16357 -15.5831 -0.16357 -0.16357 -0.16357 -15.5831" pbc="T T T"
In  10.07639  10.07639  10.07639  0.002756  0.002756  0.002756
In  10.12248  7.44478  7.44478  -0.004342  0.000394  0.000394
In  7.44478  10.12248  7.44478  0.000394  -0.004342  0.000394
In  7.44478  7.44478  10.12248  0.000394  0.000394  -0.004342
In  1.45267  10.24332  7.31604  0.001366  -0.001452  0.000814
In  1.45267  7.31604  10.24332  0.001366  0.000814  -0.001452
In  10.24332  1.45267  7.31604  -0.001452  0.001366  0.000814
In  10.24332  7.31604  1.45267  -0.001452  0.000814  0.001366
In  7.31604  1.45267  10.24332  0.000814  0.001366  -0.001452
In  7.31604  10.24332  1.45267  0.000814  -0.001452  0.001366
In  10.2401  10.2401  4.392  -0.001217  -0.001217  7.3e-5
In  10.2401  4.392  10.2401  -0.001217  7.3e-5  -0.001217
In  4.392  10.2401  10.2401  7.3e-5  -0.001217  -0.001217
In  7.31773  7.31773  4.39654  -0.001039  -0.001039  -0.002548
In  7.31773  4.39654  7.31773  -0.001039  -0.002548  -0.001039
In  4.39654  7.31773  7.31773  -0.002548  -0.001039  -0.001039
In  1.43589  1.43589  10.23545  0.001721  0.001721  0.001152
In  1.43589  10.23545  1.43589  0.001721  0.001152  0.001721
In  10.23545  1.43589  1.43589  0.001152  0.001721  0.001721
In  1.44577  7.31553  4.40295  -0.000704  0.000139  0.001042
In  1.44577  4.40295  7.31553  -0.000704  0.001042  0.000139
In  7.31553  1.44577  4.40295  0.000139  -0.000704  0.001042
In  4.40295  1.44577  7.31553  0.001042  -0.000704  0.000139
In  7.31553  4.40295  1.44577  0.000139  0.001042  -0.000704
In  4.40295  7.31553  1.44577  0.001042  0.000139  -0.000704
In  10.2385  4.40343  4.40343  -0.000878  0.001003  0.001003
In  4.40343  10.2385  4.40343  0.001003  -0.000878  0.001003
In  4.40343  4.40343  10.2385  0.001003  0.001003  -0.000878
In  1.45903  1.45903  4.38518  0.000231  0.000231  0.00142
In  1.45903  4.38518  1.45903  0.000231  0.00142  0.000231
In  4.38518  1.45903  1.45903  0.00142  0.000231  0.000231
In  4.38829  4.38829  4.38829  0.001605  0.001605  0.001605
P  11.65342  11.65342  8.78512  0.00181  0.00181  -0.002899
P  11.65342  8.78512  11.65342  0.00181  -0.002899  0.00181
P  8.78512  11.65342  11.65342  -0.002899  0.00181  0.00181
P  11.66797  8.77518  5.8878  -0.002082  -0.000945  0.001304
P  11.66797  5.8878  8.77518  -0.002082  0.001304  -0.000945
P  8.77518  11.66797  5.8878  -0.000945  -0.002082  0.001304
P  8.77518  5.8878  11.66797  -0.000945  0.001304  -0.002082
P  5.8878  11.66797  8.77518  0.001304  -0.002082  -0.000945
P  5.8878  8.77518  11.66797  0.001304  -0.000945  -0.002082
P  8.78547  5.89376  5.89376  -0.002074  -0.000436  -0.000436
P  5.89376  8.78547  5.89376  -0.000436  -0.002074  -0.000436
P  5.89376  5.89376  8.78547  -0.000436  -0.000436  -0.002074
P  2.92208  8.77792  8.77792  0.000991  -0.001347  -0.001347
P  8.77792  2.92208  8.77792  -0.001347  0.000991  -0.001347
P  8.77792  8.77792  2.92208  -0.001347  -0.001347  0.000991
P  2.91963  11.6999  11.6999  0.00236  8.9e-5  8.9e-5
P  11.6999  2.91963  11.6999  8.9e-5  0.00236  8.9e-5
P  11.6999  11.6999  2.91963  8.9e-5  8.9e-5  0.00236
P  2.92461  11.7017  5.85353  0.000321  -0.000153  0.000729
P  11.7017  2.92461  5.85353  -0.000153  0.000321  0.000729
P  2.92461  5.85353  11.7017  0.000321  0.000729  -0.000153
P  11.7017  5.85353  2.92461  -0.000153  0.000729  0.000321
P  5.85353  2.92461  11.7017  0.000729  0.000321  -0.000153
P  5.85353  11.7017  2.92461  0.000729  -0.000153  0.000321
P  2.92535  5.85598  5.85598  0.000191  0.000165  0.000165
P  5.85598  2.92535  5.85598  0.000165  0.000191  0.000165
P  5.85598  5.85598  2.92535  0.000165  0.000165  0.000191
P  2.92091  2.92091  8.77942  0.000688  0.000688  -0.001377
P  2.92091  8.77942  2.92091  0.000688  -0.001377  0.000688
P  8.77942  2.92091  2.92091  -0.001377  0.000688  0.000688
P  2.92428  2.92428  2.92428  -0.001317  -0.001317  -0.001317
63
Lattice="11.70751661 0.0 0.0 0.0 11.70751661 0.0 0.0 0.0 11.70751661" Properties=species:S:1:pos:R:3:forces:R:3 energy=-300.90448562 stress="-15.57793 -0.15872 -0.15872 -0.15872 -15.57793 -0.15872 -0.15872 -0.15872 -15.57793" pbc="T T T"
In  10.07702  10.07702  10.07702  0.003031  0.003031  0.003031
In  10.12215  7.44481  7.44481  -0.004543  0.000475  0.000475
In  7.44481  10.12215  7.44481  0.000475  -0.004543  0.000475
In  7.44481  7.44481  10.12215  0.000475  0.000475  -0.004543
In  1.45271  10.2434  7.31603  0.00097  -0.001479  0.001097
In  1.45271  7.31603  10.2434  0.00097  0.001097  -0.001479
In  10.2434  1.45271  7.31603  -0.001479  0.00097  0.001097
In  10.2434  7.31603  1.45271  -0.001479  0.001097  0.00097
In  7.31603  1.45271  10.2434  0.001097  0.00097  -0.001479
In  7.31603  10.2434  1.45271  0.001097  -0.001479  0.00097
In  10.24022  10.24022  4.39186  -0.002274  -0.002274  0.00135
In  10.24022  4.39186  10.24022  -0.002274  0.00135  -0.002274
In  4.39186  10.24022  10.24022  0.00135  -0.002274  -0.002274
In  7.3177  7.3177  4.39627  -0.00187  -0.00187  -0.003018
In  7.3177  4.39627  7.3177  -0.00187  -0.003018  -0.00187
In  4.39627  7.3177  7.3177  -0.003018  -0.00187  -0.00187
In  1.43596  1.43596  10.23564  0.002254  0.002254  0.001293
In  1.43596  10.23564  1.43596  0.002254  0.001293  0.002254
In  10.23564  1.43596  1.43596  0.001293  0.002254  0.002254
In  1.44569  7.31563  4.40291  -0.001349  0.000734  0.000639
In  1.44569  4.40291  7.31563  -0.001349  0.000639  0.000734
In  7.31563  1.44569  4.40291  0.000734  -0.001349  0.000639
In  4.40291  1.44569  7.31563  0.000639  -0.001349  0.000734
In  7.31563  4.40291  1.44569  0.000734  0.000639  -0.001349
In  4.40291  7.31563  1.44569  0.000639  0.000734  -0.001349
In  10.23848  4.40334  4.40334  -0.00071  0.001826  0.001826
In  4.40334  10.23848  4.40334  0.001826  -0.00071  0.001826
In  4.40334  4.40334  10.23848  0.001826  0.001826  -0.00071
In  1.45889  1.45889  4.38536  0.001435  0.001435  0.000121
In  1.45889  4.38536  1.45889  0.001435  0.000121  0.001435
In  4.38536  1.45889  1.45889  0.000121  0.001435  0.001435
In  4.38818  4.38818  4.38818  0.001747  0.001747  0.001747
P  11.65371  11.65371  8.78525  0.001104  0.001104  -0.004112
P  11.65371  8.78525  11.65371  0.001104  -0.004112  0.001104
P  8.78525  11.65371  11.65371  -0.004112  0.001104  0.001104
P  11.66797  8.77522  5.88792  -0.003112  -0.000719  0.00067
P  11.66797  5.88792  8.77522  -0.003112  0.00067  -0.000719
P  8.77522  11.66797  5.88792  -0.000719  -0.003112  0.00067
P  8.77522  5.88792  11.66797  -0.000719  0.00067  -0.003112
P  5.88792  11.66797  8.77522  0.00067  -0.003112  -0.000719
P  5.88792  8.77522  11.66797  0.00067  -0.000719  -0.003112
P  8.78533  5.8937  5.8937  -0.001813  -0.001123  -0.001123
P  5.8937  8.78533  5.8937  -0.001123  -0.001813  -0.001123
P  5.8937  5.8937  8.78533  -0.001123  -0.001123  -0.001813
P  2.92191  8.77794  8.77794  0.002218  -0.000935  -0.000935
P  8.77794  2.92191  8.77794  -0.000935  0.002218  -0.000935
P  8.77794  8.77794  2.92191  -0.000935  -0.000935  0.002218
P  2.91964  11.69993  11.69993  0.002237  0.000423  0.000423
P  11.69993  2.91964  11.69993  0.000423  0.002237  0.000423
P  11.69993  11.69993  2.91964  0.000423  0.000423  0.002237
P  2.92456  11.70171  5.85351  0.001032  -0.00066  0.001201
P  11.70171  2.92456  5.85351  -0.00066  0.001032  0.001201
P  2.92456  5.85351  11.70171  0.001032  0.001201  -0.00066
P  11.70171  5.85351  2.92456  -0.00066  0.001201  0.001032
P  5.85351  2.92456  11.70171  0.001201  0.001032  -0.00066
P  5.85351  11.70171  2.92456  0.001201  -0.00066  0.001032
P  2.92489  5.85585  5.85585  0.003707  0.000501  0.000501
P  5.85585  2.92489  5.85585  0.000501  0.003707  0.000501
P  5.85585  5.85585  2.92489  0.000501  0.000501  0.003707
P  2.92087  2.92087  8.77958  0.000701  0.000701  -0.002695
P  2.92087  8.77958  2.92087  0.000701  -0.002695  0.000701
P  8.77958  2.92087  2.92087  -0.002695  0.000701  0.000701
P  2.92418  2.92418  2.92418  -0.001896  -0.001896  -0.001896
63
Lattice="11.70751661 0.0 0.0 0.0 11.70751661 0.0 0.0 0.0 11.70751661" Properties=species:S:1:pos:R:3:forces:R:3 energy=-300.87980805 stress="-16.77387 -0.48864 -0.48864 -0.48864 -16.77387 -0.48864 -0.48864 -0.48864 -16.77387" pbc="T T T"
In  10.04385  10.04385  10.04385  0.035004  0.035004  0.035004
In  10.10269  7.47524  7.47524  0.02558  -0.03937  -0.03937
In  7.47524  10.10269  7.47524  -0.03937  0.02558  -0.03937
In  7.47524  7.47524  10.10269  -0.03937  -0.03937  0.02558
In  1.45158  10.24734  7.31376  0.015896  -0.024335  0.013332
In  1.45158  7.31376  10.24734  0.015896  0.013332  -0.024335
In  10.24734  1.45158  7.31376  -0.024335  0.015896  0.013332
In  10.24734  7.31376  1.45158  -0.024335  0.013332  0.015896
In  7.31376  1.45158  10.24734  0.013332  0.015896  -0.024335
In  7.31376  10.24734  1.45158  0.013332  -0.024335  0.015896
In  10.24257  10.24257  4.39305  -0.03134  -0.03134  -0.020872
In  10.24257  4.39305  10.24257  -0.03134  -0.020872  -0.03134
In  4.39305  10.24257  10.24257  -0.020872  -0.03134  -0.03134
In  7.31881  7.31881  4.39947  0.011513  0.011513  -0.017855
In  7.31881  4.39947  7.31881  0.011513  -0.017855  0.011513
In  4.39947  7.31881  7.31881  -0.017855  0.011513  0.011513
In  1.41739  1.41739  10.23584  0.047142  0.047142  -0.027106
In  1.41739  10.23584  1.41739  0.047142  -0.027106  0.047142
In  10.23584  1.41739  1.41739  -0.027106  0.047142  0.047142
In  1.43488  7.31919  4.41331  0.058927  0.027899  -0.056832