215
Lattice="17.561274918 0.0 0.0 0.0 17.561274918 0.0 0.0 0.0 17.561274918" Properties=species:S:1:pos:R:3:forces:R:3 energy=-1036.51862252 stress="-11.45912 -0.09834 -0.09834 -0.09834 -11.45912 -0.09834 -0.09834 -0.09834 -11.45912" pbc="T T T"
In  10.04183  10.04183  10.04183  0.04105  0.04105  0.04105
In  10.10104  7.47632  7.47632  0.039827  -0.034437  -0.034437
In  7.47632  10.10104  7.47632  -0.034437  0.039827  -0.034437
In  7.47632  7.47632  10.10104  -0.034437  -0.034437  0.039827
In  13.15807  10.24891  7.31198  0.00472  -0.008807  0.001256
In  13.15807  7.31198  10.24891  0.00472  0.001256  -0.008807
In  10.24891  13.15807  7.31198  -0.008807  0.00472  0.001256
In  10.24891  7.31198  13.15807  -0.008807  0.001256  0.00472
In  7.31198  13.15807  10.24891  0.001256  0.00472  -0.008807
In  7.31198  10.24891  13.15807  0.001256  -0.008807  0.00472
In  10.24668  10.24668  4.39645  -0.002996  -0.002996  -0.005729
In  10.24668  4.39645  10.24668  -0.002996  -0.005729  -0.002996
In  4.39645  10.24668  10.24668  -0.005729  -0.002996  -0.002996
In  7.31657  7.31657  4.40379  0.002942  0.002942  -0.006923
In  7.31657  4.40379  7.31657  0.002942  -0.006923  0.002942
In  4.40379  7.31657  7.31657  -0.006923  0.002942  0.002942
In  13.12312  13.12312  10.23697  0.004826  0.004826  -0.006844
In  13.12312  10.23697  13.12312  0.004826  -0.006844  0.004826
In  10.23697  13.12312  13.12312  -0.006844  0.004826  0.004826
In  13.13821  7.31463  4.42024  0.000199  0.010793  -0.000252
In  13.13821  4.42024  7.31463  0.000199  -0.000252  0.010793
In  7.31463  13.13821  4.42024  0.010793  0.000199  -0.000252
In  4.42024  13.13821  7.31463  -0.000252  0.000199  0.010793
In  7.31463  4.42024  13.13821  0.010793  -0.000252  0.000199
In  4.42024  7.31463  13.13821  -0.000252  0.010793  0.000199
In  10.24391  4.42578  4.42578  -0.009896  -0.002106  -0.002106
In  4.42578  10.24391  4.42578  -0.002106  -0.009896  -0.002106
In  4.42578  4.42578  10.24391  -0.002106  -0.002106  -0.009896
In  16.0913  10.23518  10.23518  0.00467  -0.001016  -0.001016
In  10.23518  16.0913  10.23518  -0.001016  0.00467  -0.001016
In  10.23518  10.23518  16.0913  -0.001016  -0.001016  0.00467
In  16.09331  7.32162  7.32162  0.001949  -0.002177  -0.002177
In  13.1702  13.1702  4.3879  9.8e-5  9.8e-5  -0.001612
In  13.1702  4.3879  13.1702  9.8e-5  -0.001612  9.8e-5
In  7.32162  16.09331  7.32162  -0.002177  0.001949  -0.002177
In  7.32162  7.32162  16.09331  -0.002177  -0.002177  0.001949
In  4.3879  13.1702  13.1702  -0.001612  9.8e-5  9.8e-5
In  10.23798  7.3212  1.46359  -0.000198  -3.9e-5  -0.000639
In  7.3212  10.23798  1.46359  -3.9e-5  -0.000198  -0.000639
In  10.23798  1.46359  7.3212  -0.000198  -0.000639  -3.9e-5
In  7.3212  1.46359  10.23798  -3.9e-5  -0.000639  -0.000198
In  1.46359  10.23798  7.3212  -0.000639  -0.000198  -3.9e-5
In  1.46359  7.3212  10.23798  -0.000639  -3.9e-5  -0.000198
In  4.39172  4.39172  4.39172  -0.002297  -0.002297  -0.002297
In  16.09252  13.16747  7.31818  0.003062  -9.6e-5  -0.001008
In  13.16747  16.09252  7.31818  -9.6e-5  0.003062  -0.001008
In  16.09252  7.31818  13.16747  0.003062  -0.001008  -9.6e-5
In  13.16747  7.31818  16.09252  -9.6e-5  -0.001008  0.003062
In  7.31818  16.09252  13.16747  -0.001008  0.003062  -9.6e-5
In  7.31818  13.16747  16.09252  -0.001008  -9.6e-5  0.003062
In  16.09301  10.24  4.39155  0.001501  -0.00159  -0.002438
In  16.09301  4.39155  10.24  0.001501  -0.002438  -0.00159
In  10.24  16.09301  4.39155  -0.00159  0.001501  -0.002438
In  10.24  4.39155  16.09301  -0.00159  -0.002438  0.001501
In  4.39155  16.09301  10.24  -0.002438  0.001501  -0.00159
In  4.39155  10.24  16.09301  -0.002438  -0.00159  0.001501
In  13.16629  10.23973  1.46346  0.002214  -0.00035  0.000733
In  10.23973  13.16629  1.46346  -0.00035  0.002214  0.000733
In  13.16629  1.46346  10.23973  0.002214  0.000733  -0.00035
In  10.23973  1.46346  13.16629  -0.00035  0.000733  0.002214
In  1.46346  13.16629  10.23973  0.000733  0.002214  -0.00035
In  1.46346  10.23973  13.16629  0.000733  -0.00035  0.002214
In  7.31967  4.39373  1.46788  -0.000698  -0.001972  -0.00262
In  7.31967  1.46788  4.39373  -0.000698  -0.00262  -0.001972
In  4.39373  7.31967  1.46788  -0.001972  -0.000698  -0.00262
In  4.39373  1.46788  7.31967  -0.001972  -0.00262  -0.000698
In  1.46788  7.31967  4.39373  -0.00262  -0.000698  -0.001972
In  1.46788  4.39373  7.31967  -0.00262  -0.001972  -0.000698
In  16.08686  13.16149  13.16149  0.003323  0.003214  0.003214
In  13.16149  16.08686  13.16149  0.003214  0.003323  0.003214
In  13.16149  13.16149  16.08686  0.003214  0.003214  0.003323
In  16.09446  4.39275  4.39275  -0.000285  -0.000529  -0.000529
In  4.39275  16.09446  4.39275  -0.000529  -0.000285  -0.000529
In  4.39275  4.39275  16.09446  -0.000529  -0.000529  -0.000285
In  13.16582  4.39168  1.46493  0.001456  -0.000228  -1.6e-5
In  13.16582  1.46493  4.39168  0.001456  -1.6e-5  -0.000228
In  4.39168  13.16582  1.46493  -0.000228  0.001456  -1.6e-5
In  1.46493  13.16582  4.39168  -1.6e-5  0.001456  -0.000228
In  4.39168  1.46493  13.16582  -0.000228  -1.6e-5  0.001456
In  1.46493  4.39168  13.16582  -1.6e-5  -0.000228  0.001456
In  16.0823  16.0823  10.23683  0.003684  0.003684  -0.000892
In  16.0823  10.23683  16.0823  0.003684  -0.000892  0.003684
In  10.23683  16.0823  16.0823  -0.000892  0.003684  0.003684
In  16.08939  7.31991  1.47035  -0.001423  0.002442  0.000862
In  16.08939  1.47035  7.31991  -0.001423  0.000862  0.002442
In  7.31991  16.08939  1.47035  0.002442  -0.001423  0.000862
In  1.47035  16.08939  7.31991  0.000862  -0.001423  0.002442
In  7.31991  1.47035  16.08939  0.002442  0.000862  -0.001423
In  1.47035  7.31991  16.08939  0.000862  0.002442  -0.001423
In  10.23846  1.47013  1.47013  -0.002715  -0.000112  -0.000112
In  1.47013  10.23846  1.47013  -0.000112  -0.002715  -0.000112
In  1.47013  1.47013  10.23846  -0.000112  -0.000112  -0.002715
In  16.09653  16.09653  4.39102  0.000587  0.000587  -0.000589
In  16.09653  4.39102  16.09653  0.000587  -0.000589  0.000587
In  16.09484  13.16514  1.45906  0.000723  0.001289  0.000691
In  4.39102  16.09653  16.09653  -0.000589  0.000587  0.000587
In  13.16514  16.09484  1.45906  0.001289  0.000723  0.000691
In  16.09484  1.45906  13.16514  0.000723  0.000691  0.001289
In  13.16514  1.45906  16.09484  0.001289  0.000691  0.000723
In  1.45906  16.09484  13.16514  0.000691  0.000723  0.001289
In  1.45906  13.16514  16.09484  0.000691  0.001289  0.000723
In  4.39267  1.46318  1.46318  -0.001397  -0.000746  -0.000746
In  1.46318  4.39267  1.46318  -0.000746  -0.001397  -0.000746
In  1.46318  1.46318  4.39267  -0.000746  -0.000746  -0.001397
In  16.093  16.093  16.093  0.00096  0.00096  0.00096
In  16.09546  1.4623  1.4623  0.000433  -0.000162  -0.000162
In  1.4623  16.09546  1.4623  -0.000162  0.000433  -0.000162
In  1.4623  1.4623  16.09546  -0.000162  -0.000162  0.000433
P  11.63579  11.63579  8.78316  0.003447  0.003447  0.000934
P  11.63579  8.78316  11.63579  0.003447  0.000934  0.003447
P  8.78316  11.63579  11.63579  0.000934  0.003447  0.003447
P  11.65687  8.77813  5.90054  0.004418  -0.003743  0.000543
P  11.65687  5.90054  8.77813  0.004418  0.000543  -0.003743
P  8.77813  11.65687  5.90054  -0.003743  0.004418  0.000543
P  8.77813  5.90054  11.65687  -0.003743  0.000543  0.004418
P  5.90054  11.65687  8.77813  0.000543  0.004418  -0.003743
P  5.90054  8.77813  11.65687  0.000543  -0.003743  0.004418
P  8.78749  5.91274  5.91274  -0.001319  -0.002279  -0.002279
P  5.91274  8.78749  5.91274  -0.002279  -0.001319  -0.002279
P  5.91274  5.91274  8.78749  -0.002279  -0.002279  -0.001319
P  14.62074  8.77778  8.77778  -0.00333  0.001832  0.001832
P  8.77778  14.62074  8.77778  0.001832  -0.00333  0.001832
P  8.77778  8.77778  14.62074  0.001832  0.001832  -0.00333
P  8.78006  8.78006  2.93327  -0.001249  -0.001249  0.00342
P  8.78006  2.93327  8.78006  -0.001249  0.00342  -0.001249
P  2.93327  8.78006  8.78006  0.00342  -0.001249  -0.001249
P  14.62098  11.69526  11.69526  0.002575  0.000877  0.000877
P  11.69526  14.62098  11.69526  0.000877  0.002575  0.000877
P  11.69526  11.69526  14.62098  0.000877  0.000877  0.002575
P  14.63038  11.70578  5.8528  -0.006611  -0.002545  0.003837
P  11.70578  14.63038  5.8528  -0.002545  -0.006611  0.003837
P  14.63038  5.8528  11.70578  -0.006611  0.003837  -0.002545
P  11.70578  5.8528  14.63038  -0.002545  0.003837  -0.006611
P  5.8528  14.63038  11.70578  0.003837  -0.006611  -0.002545
P  5.8528  11.70578  14.63038  0.003837  -0.002545  -0.006611
P  14.6279  5.85841  5.85841  0.001376  6.2e-5  6.2e-5
P  11.70591  11.70591  2.92678  -0.002949  -0.002949  0.00453
P  11.70591  2.92678  11.70591  -0.002949  0.00453  -0.002949
P  5.85841  14.6279  5.85841  6.2e-5  0.001376  6.2e-5
P  5.85841  5.85841  14.6279  6.2e-5  6.2e-5  0.001376
P  2.92678  11.70591  11.70591  0.00453  -0.002949  -0.002949
P  11.70003  5.85866  2.93066  -0.001107  0.000178  -0.001289
P  11.70003  2.93066  5.85866  -0.001107  -0.001289  0.000178
P  5.85866  11.70003  2.93066  0.000178  -0.001107  -0.001289
P  2.93066  11.70003  5.85866  -0.001289  -0.001107  0.000178
P  5.85866  2.93066  11.70003  0.000178  -0.001289  -0.001107
P  2.93066  5.85866  11.70003  -0.001289  0.000178  -0.001107
P  5.85714  5.85714  2.93276  9.4e-5  9.4e-5  0.002299
P  5.85714  2.93276  5.85714  9.4e-5  0.002299  9.4e-5
P  2.93276  5.85714  5.85714  0.002299  9.4e-5  9.4e-5
P  14.60545  14.60545  8.78318  -0.001118  -0.001118  0.004739
P  14.60545  8.78318  14.60545  -0.001118  0.004739  -0.001118
P  8.78318  14.60545  14.60545  0.004739  -0.001118  -0.001118
P  14.61334  8.7759  2.94434  -2.1e-5  -0.003593  -0.00159
P  14.61334  2.94434  8.7759  -2.1e-5  -0.00159  -0.003593
P  8.7759  14.61334  2.94434  -0.003593  -2.1e-5  -0.00159
P  8.7759  2.94434  14.61334  -0.003593  -0.00159  -2.1e-5
P  2.94434  14.61334  8.7759  -0.00159  -2.1e-5  -0.003593
P  2.94434  8.7759  14.61334  -0.00159  -0.003593  -2.1e-5
P  8.78484  2.9475  2.9475  0.004212  0.001371  0.001371
P  2.9475  8.78484  2.9475  0.001371  0.004212  0.001371
P  2.9475  2.9475  8.78484  0.001371  0.001371  0.004212
P  17.55826  11.7037  8.77905  -0.000632  -0.001703  0.000281
P  17.55826  8.77905  11.7037  -0.000632  0.000281  -0.001703
P  11.7037  17.55826  8.77905  -0.001703  -0.000632  0.000281
P  8.77905  17.55826  11.7037  0.000281  -0.000632  -0.001703
P  11.7037  8.77905  17.55826  -0.001703  0.000281  -0.000632
P  8.77905  11.7037  17.55826  0.000281  -0.001703  -0.000632
P  17.55961  8.77938  5.85464  -0.000285  -0.000177  0.00042
P  17.55961  5.85464  8.77938  -0.000285  0.00042  -0.000177
P  8.77938  17.55961  5.85464  -0.000177  -0.000285  0.00042
P  5.85464  17.55961  8.77938  0.00042  -0.000285  -0.000177
P  8.77938  5.85464  17.55961  -0.000177  0.00042  -0.000285
P  5.85464  8.77938  17.55961  0.00042  -0.000177  -0.000285
P  14.62798  14.62798  14.62798  -3.1e-5  -3.1e-5  -3.1e-5
P  14.63316  14.63316  2.92337  -0.000135  -0.000135  7.6e-5
P  14.63316  2.92337  14.63316  -0.000135  7.6e-5  -0.000135
P  2.92337  14.63316  14.63316  7.6e-5  -0.000135  -0.000135
P  14.63166  2.92761  2.92761  -0.000694  0.000134  0.000134
P  2.92761  14.63166  2.92761  0.000134  -0.000694  0.000134
P  2.92761  2.92761  14.63166  0.000134  0.000134  -0.000694
P  2.92764  2.92764  2.92764  -0.00027  -0.00027  -0.00027
P  17.55538  14.62781  11.70178  0.002296  -0.000903  -0.000945
P  17.55538  11.70178  14.62781  0.002296  -0.000945  -0.000903
P  14.62781  17.55538  11.70178  -0.000903  0.002296  -0.000945
P  14.62781  11.70178  17.55538  -0.000903  -0.000945  0.002296
P  11.70178  17.55538  14.62781  -0.000945  0.002296  -0.000903
P  11.70178  14.62781  17.55538  -0.000945  -0.000903  0.002296
P  17.56075  14.63079  5.85598  -0.001088  -0.001416  -2.0e-6
P  14.63079  17.56075  5.85598  -0.001416  -0.001088  -2.0e-6
P  17.56075  5.85598  14.63079  -0.001088  -2.0e-6  -0.001416
P  14.63079  5.85598  17.56075  -0.001416  -2.0e-6  -0.001088
P  17.5596  11.7026  2.92713  -0.001261  -0.000353  0.001166
P  5.85598  17.56075  14.63079  -2.0e-6  -0.001088  -0.001416
P  5.85598  14.63079  17.56075  -2.0e-6  -0.001416  -0.001088
P  11.7026  17.5596  2.92713  -0.000353  -0.001261  0.001166
P  17.5596  2.92713  11.7026  -0.001261  0.001166  -0.000353
P  11.7026  2.92713  17.5596  -0.000353  0.001166  -0.001261
P  17.56116  5.85742  2.92963  -0.000218  -0.000731  0.000575
P  2.92713  17.5596  11.7026  0.001166  -0.001261  -0.000353
P  17.56116  2.92963  5.85742  -0.000218  0.000575  -0.000731
P  2.92713  11.7026  17.5596  0.001166  -0.000353  -0.001261
P  5.85742  17.56116  2.92963  -0.000731  -0.000218  0.000575
P  2.92963  17.56116  5.85742  0.000575  -0.000218  -0.000731
P  5.85742  2.92963  17.56116  -0.000731  0.000575  -0.000218
P  2.92963  5.85742  17.56116  0.000575  -0.000731  -0.000218
P  17.55752  17.55752  8.78081  0.00061  0.00061  -0.001013
P  17.55752  8.78081  17.55752  0.00061  -0.001013  0.00061
P  8.78081  17.55752  17.55752  -0.001013  0.00061  0.00061
P  17.55873  17.55873  14.63129  -1.5e-5  -1.5e-5  0.000766
P  17.55873  14.63129  17.55873  -1.5e-5  0.000766  -1.5e-5
P  14.63129  17.55873  17.55873  0.000766  -1.5e-5  -1.5e-5
P  17.56068  17.56068  2.92728  -1.7e-5  -1.7e-5  -0.000905
P  17.56068  2.92728  17.56068  -1.7e-5  -0.000905  -1.7e-5
P  2.92728  17.56068  17.56068  -0.000905  -1.7e-5  -1.7e-5
215
Lattice="17.561274918 0.0 0.0 0.0 17.561274918 0.0 0.0 0.0 17.561274918" Properties=species:S:1:pos:R:3:forces:R:3 energy=-1036.5246753 stress="-11.19544 -0.09297 -0.09297 -0.09297 -11.19544 -0.09297 -0.09297 -0.09297 -11.19544" pbc="T T T"
In  10.0645  10.0645  10.0645  0.003389  0.003389  0.003389
In  10.11874  7.45829  7.45829  -0.003353  -0.000432  -0.000432
In  7.45829  10.11874  7.45829  -0.000432  -0.003353  -0.000432
In  7.45829  7.45829  10.11874  -0.000432  -0.000432  -0.003353
In  13.1609  10.24655  7.31336  -0.001772  0.00155  -0.001034
In  13.1609  7.31336  10.24655  -0.001772  -0.001034  0.00155
In  10.24655  13.1609  7.31336  0.00155  -0.001772  -0.001034
In  10.24655  7.31336  13.1609  0.00155  -0.001034  -0.001772
In  7.31336  13.1609  10.24655  -0.001034  -0.001772  0.00155
In  7.31336  10.24655  13.1609  -0.001034  0.00155  -0.001772
In  10.24517  10.24517  4.39388  0.000337  0.000337  0.004867
In  10.24517  4.39388  10.24517  0.000337  0.004867  0.000337
In  4.39388  10.24517  10.24517  0.004867  0.000337  0.000337
In  7.31671  7.31671  4.40019  -0.00328  -0.00328  0.001333
In  7.31671  4.40019  7.31671  -0.00328  0.001333  -0.00328
In  4.40019  7.31671  7.31671  0.001333  -0.00328  -0.00328
In  13.12813  13.12813  10.23685  0.001704  0.001704  0.003427
In  13.12813  10.23685  13.12813  0.001704  0.003427  0.001704
In  10.23685  13.12813  13.12813  0.003427  0.001704  0.001704
In  13.14101  7.3159  4.41699  0.001056  -0.002325  -0.001564
In  13.14101  4.41699  7.3159  0.001056  -0.001564  -0.002325
In  7.3159  13.14101  4.41699  -0.002325  0.001056  -0.001564
In  4.41699  13.14101  7.3159  -0.001564  0.001056  -0.002325
In  7.3159  4.41699  13.14101  -0.002325  -0.001564  0.001056
In  4.41699  7.3159  13.14101  -0.001564  -0.002325  0.001056
In  10.24174  4.42295  4.42295  0.001511  -0.001601  -0.001601
In  4.42295  10.24174  4.42295  -0.001601  0.001511  -0.001601
In  4.42295  4.42295  10.24174  -0.001601  -0.001601  0.001511
In  16.09285  10.23638  10.23638  0.002099  0.00116  0.00116
In  10.23638  16.09285  10.23638  0.00116  0.002099  0.00116
In  10.23638  10.23638  16.09285  0.00116  0.00116  0.002099
In  16.09407  7.32005  7.32005  0.001884  -0.00046  -0.00046
In  13.16938  13.16938  4.38854  0.002481  0.002481  -0.002655
In  13.16938  4.38854  13.16938  0.002481  -0.002655  0.002481
In  7.32005  16.09407  7.32005  -0.00046  0.001884  -0.00046
In  7.32005  7.32005  16.09407  -0.00046  -0.00046  0.001884
In  4.38854  13.16938  13.16938  -0.002655  0.002481  0.002481
In  10.23852  7.32008  1.46324  -0.000112  -0.001296  -0.001547
In  7.32008  10.23852  1.46324  -0.001296  -0.000112  -0.001547
In  10.23852  1.46324  7.32008  -0.000112  -0.001547  -0.001296
In  7.32008  1.46324  10.23852  -0.001296  -0.001547  -0.000112
In  1.46324  10.23852  7.32008  -0.001547  -0.000112  -0.001296
In  1.46324  7.32008  10.23852  -0.001547  -0.001296  -0.000112
In  4.39108  4.39108  4.39108  -0.002227  -0.002227  -0.002227
In  16.09226  13.16696  7.31782  0.002766  0.002539  -0.000426
In  13.16696  16.09226  7.31782  0.002539  0.002766  -0.000426
In  16.09226  7.31782  13.16696  0.002766  -0.000426  0.002539
In  13.16696  7.31782  16.09226  0.002539  -0.000426  0.002766
In  7.31782  16.09226  13.16696  -0.000426  0.002766  0.002539
In  7.31782  13.16696  16.09226  -0.000426  0.002539  0.002766
In  16.09283  10.24014  4.3915  0.002391  0.000112  -0.002708
In  16.09283  4.3915  10.24014  0.002391  -0.002708  0.000112
In  10.24014  16.09283  4.3915  0.000112  0.002391  -0.002708
In  10.24014  4.3915  16.09283  0.000112  -0.002708  0.002391
In  4.3915  16.09283  10.24014  -0.002708  0.002391  0.000112
In  4.3915  10.24014  16.09283  -0.002708  0.000112  0.002391
In  13.16624  10.23991  1.46402  0.002597  -0.000326  -0.002626
In  10.23991  13.16624  1.46402  -0.000326  0.002597  -0.002626
In  13.16624  1.46402  10.23991  0.002597  -0.002626  -0.000326
In  10.23991  1.46402  13.16624  -0.000326  -0.002626  0.002597
In  1.46402  13.16624  10.23991  -0.002626  0.002597  -0.000326
In  1.46402  10.23991  13.16624  -0.002626  -0.000326  0.002597
In  7.31908  4.39301  1.46703  -0.001645  -0.003605  -0.001049
In  7.31908  1.46703  4.39301  -0.001645  -0.001049  -0.003605
In  4.39301  7.31908  1.46703  -0.003605  -0.001645  -0.001049
In  4.39301  1.46703  7.31908  -0.003605  -0.001049  -0.001645
In  1.46703  7.31908  4.39301  -0.001049  -0.001645  -0.003605
In  1.46703  4.39301  7.31908  -0.001049  -0.003605  -0.001645
In  16.08835  13.16235  13.16235  0.003504  0.003647  0.003647
In  13.16235  16.08835  13.16235  0.003647  0.003504  0.003647
In  13.16235  13.16235  16.08835  0.003647  0.003647  0.003504
In  16.09354  4.39293  4.39293  0.003251  -0.004499  -0.004499
In  4.39293  16.09354  4.39293  -0.004499  0.003251  -0.004499
In  4.39293  4.39293  16.09354  -0.004499  -0.004499  0.003251
In  13.16541  4.39215  1.46535  0.002776  -0.003458  -0.002308
In  13.16541  1.46535  4.39215  0.002776  -0.002308  -0.003458
In  4.39215  13.16541  1.46535  -0.003458  0.002776  -0.002308
In  1.46535  13.16541  4.39215  -0.002308  0.002776  -0.003458
In  4.39215  1.46535  13.16541  -0.003458  -0.002308  0.002776
In  1.46535  4.39215  13.16541  -0.002308  -0.003458  0.002776
In  16.08434  16.08434  10.23671  0.00186  0.00186  0.003416
In  16.08434  10.23671  16.08434  0.00186  0.003416  0.00186
In  10.23671  16.08434  16.08434  0.003416  0.00186  0.00186
In  16.08936  7.31974  1.46962  0.002002  -0.003837  -0.00228
In  16.08936  1.46962  7.31974  0.002002  -0.00228  -0.003837
In  7.31974  16.08936  1.46962  -0.003837  0.002002  -0.00228
In  1.46962  16.08936  7.31974  -0.00228  0.002002  -0.003837
In  7.31974  1.46962  16.08936  -0.003837  -0.00228  0.002002
In  1.46962  7.31974  16.08936  -0.00228  -0.003837  0.002002
In  10.23814  1.4698  1.4698  0.002444  -0.000776  -0.000776
In  1.4698  10.23814  1.4698  -0.000776  0.002444  -0.000776
In  1.4698  1.4698  10.23814  -0.000776  -0.000776  0.002444
In  16.09647  16.09647  4.39117  0.000189  0.000189  -0.001824
In  16.09647  4.39117  16.09647  0.000189  -0.001824  0.000189
In  16.09516  13.16536  1.45992  0.00127  0.002112  0.00017
In  4.39117  16.09647  16.09647  -0.001824  0.000189  0.000189
In  13.16536  16.09516  1.45992  0.002112  0.00127  0.00017
In  16.09516  1.45992  13.16536  0.00127  0.00017  0.002112
In  13.16536  1.45992  16.09516  0.002112  0.00017  0.00127
In  1.45992  16.09516  13.16536  0.00017  0.00127  0.002112
In  1.45992  13.16536  16.09516  0.00017  0.002112  0.00127
In  4.39238  1.46278  1.46278  -0.002285  -0.000592  -0.000592
In  1.46278  4.39238  1.46278  -0.000592  -0.002285  -0.000592
In  1.46278  1.46278  4.39238  -0.000592  -0.000592  -0.002285
In  16.09335  16.09335  16.09335  0.001832  0.001832  0.001832
In  16.09519  1.46243  1.46243  0.000602  0.000372  0.000372
In  1.46243  16.09519  1.46243  0.000372  0.000602  0.000372
In  1.46243  1.46243  16.09519  0.000372  0.000372  0.000602
P  11.64354  11.64354  8.78101  0.000288  0.000288  0.001044
P  11.64354  8.78101  11.64354  0.000288  0.001044  0.000288
P  8.78101  11.64354  11.64354  0.001044  0.000288  0.000288
P  11.66244  8.77957  5.89536  -0.002917  0.00071  0.001706
P  11.66244  5.89536  8.77957  -0.002917  0.001706  0.00071
P  8.77957  11.66244  5.89536  0.00071  -0.002917  0.001706
P  8.77957  5.89536  11.66244  0.00071  0.001706  -0.002917
P  5.89536  11.66244  8.77957  0.001706  -0.002917  0.00071
P  5.89536  8.77957  11.66244  0.001706  0.00071  -0.002917
P  8.78444  5.90704  5.90704  0.000991  0.001332  0.001332
P  5.90704  8.78444  5.90704  0.001332  0.000991  0.001332
P  5.90704  5.90704  8.78444  0.001332  0.001332  0.000991
P  14.62366  8.77792  8.77792  0.001471  0.000214  0.000214
P  8.77792  14.62366  8.77792  0.000214  0.001471  0.000214
P  8.77792  8.77792  14.62366  0.000214  0.000214  0.001471
P  8.77943  8.77943  2.93177  0.000777  0.000777  -0.002748
P  8.77943  2.93177  8.77943  0.000777  -0.002748  0.000777
P  2.93177  8.77943  8.77943  -0.002748  0.000777  0.000777
P  14.6221  11.69649  11.69649  0.001633  -0.001233  -0.001233
P  11.69649  14.6221  11.69649  -0.001233  0.001633  -0.001233
P  11.69649  11.69649  14.6221  -0.001233  -0.001233  0.001633
P  14.62952  11.70501  5.85324  0.000778  -0.001149  0.000637
P  11.70501  14.62952  5.85324  -0.001149  0.000778  0.000637
P  14.62952  5.85324  11.70501  0.000778  0.000637  -0.001149
P  11.70501  5.85324  14.62952  -0.001149  0.000637  0.000778
P  5.85324  14.62952  11.70501  0.000637  0.000778  -0.001149
P  5.85324  11.70501  14.62952  0.000637  -0.001149  0.000778
P  14.62724  5.85786  5.85786  -0.001517  0.002498  0.002498
P  11.7052  11.7052  2.92749  -8.2e-5  -8.2e-5  -0.001982
P  11.7052  2.92749  11.7052  -8.2e-5  -0.001982  -8.2e-5
P  5.85786  14.62724  5.85786  0.002498  -0.001517  0.002498
P  5.85786  5.85786  14.62724  0.002498  0.002498  -0.001517
P  2.92749  11.7052  11.7052  -0.001982  -8.2e-5  -8.2e-5
P  11.69983  5.85809  2.93118  -0.001203  0.002949  0.000288
P  11.69983  2.93118  5.85809  -0.001203  0.000288  0.002949
P  5.85809  11.69983  2.93118  0.002949  -0.001203  0.000288
P  2.93118  11.69983  5.85809  0.000288  -0.001203  0.002949
P  5.85809  2.93118  11.69983  0.002949  0.000288  -0.001203
P  2.93118  5.85809  11.69983  0.000288  0.002949  -0.001203
P  5.85635  5.85635  2.93193  -3.0e-5  -3.0e-5  -0.00151
P  5.85635  2.93193  5.85635  -3.0e-5  -0.00151  -3.0e-5
P  2.93193  5.85635  5.85635  -0.00151  -3.0e-5  -3.0e-5
P  14.608  14.608  8.78316  0.004044  0.004044  -0.002464
P  14.608  8.78316  14.608  0.004044  -0.002464  0.004044
P  8.78316  14.608  14.608  -0.002464  0.004044  0.004044
P  14.615  8.77586  2.94258  0.001123  0.002914  -0.001348
P  14.615  2.94258  8.77586  0.001123  -0.001348  0.002914
P  8.77586  14.615  2.94258  0.002914  0.001123  -0.001348
P  8.77586  2.94258  14.615  0.002914  -0.001348  0.001123
P  2.94258  14.615  8.77586  -0.001348  0.001123  0.002914
P  2.94258  8.77586  14.615  -0.001348  0.002914  0.001123
P  8.78442  2.9461  2.9461  -0.004277  -0.003463  -0.003463
P  2.9461  8.78442  2.9461  -0.003463  -0.004277  -0.003463
P  2.9461  2.9461  8.78442  -0.003463  -0.003463  -0.004277
P  17.5587  11.70382  8.7787  -4.9e-5  -0.000186  0.00155
P  17.5587  8.7787  11.70382  -4.9e-5  0.00155  -0.000186
P  11.70382  17.5587  8.7787  -0.000186  -4.9e-5  0.00155
P  8.7787  17.5587  11.70382  0.00155  -4.9e-5  -0.000186
P  11.70382  8.7787  17.5587  -0.000186  0.00155  -4.9e-5
P  8.7787  11.70382  17.5587  0.00155  -0.000186  -4.9e-5
P  17.55959  8.77916  5.85404  -0.000789  0.000409  0.001471
P  17.55959  5.85404  8.77916  -0.000789  0.001471  0.000409
P  8.77916  17.55959  5.85404  0.000409  -0.000789  0.001471
P  5.85404  17.55959  8.77916  0.001471  -0.000789  0.000409
P  8.77916  5.85404  17.55959  0.000409  0.001471  -0.000789
P  5.85404  8.77916  17.55959  0.001471  0.000409  -0.000789
P  14.62862  14.62862  14.62862  -0.001649  -0.001649  -0.001649
P  14.63283  14.63283  2.92409  -0.001549  -0.001549  0.001465
P  14.63283  2.92409  14.63283  -0.001549  0.001465  -0.001549
P  2.92409  14.63283  14.63283  0.001465  -0.001549  -0.001549
P  14.63123  2.92756  2.92756  -0.00084  0.000909  0.000909
P  2.92756  14.63123  2.92756  0.000909  -0.00084  0.000909
P  2.92756  2.92756  14.63123  0.000909  0.000909  -0.00084
P  2.92708  2.92708  2.92708  0.000401  0.000401  0.000401
P  17.55656  14.62837  11.70178  -0.001297  -0.000462  -0.000733
P  17.55656  11.70178  14.62837  -0.001297  -0.000733  -0.000462
P  14.62837  17.55656  11.70178  -0.000462  -0.001297  -0.000733
P  14.62837  11.70178  17.55656  -0.000462  -0.000733  -0.001297
P  11.70178  17.55656  14.62837  -0.000733  -0.001297  -0.000462
P  11.70178  14.62837  17.55656  -0.000733  -0.000462  -0.001297
P  17.56041  14.63016  5.85568  0.000702  0.000952  0.001653
P  14.63016  17.56041  5.85568  0.000952  0.000702  0.001653
P  17.56041  5.85568  14.63016  0.000702  0.001653  0.000952
P  14.63016  5.85568  17.56041  0.000952  0.001653  0.000702
P  17.55979  11.70253  2.92756  0.000319  -0.001036  -0.000666
P  5.85568  17.56041  14.63016  0.001653  0.000702  0.000952
P  5.85568  14.63016  17.56041  0.001653  0.000952  0.000702
P  11.70253  17.55979  2.92756  -0.001036  0.000319  -0.000666
P  17.55979  2.92756  11.70253  0.000319  -0.000666  -0.001036
P  11.70253  2.92756  17.55979  -0.001036  -0.000666  0.000319
P  17.56054  5.85664  2.9293  -0.001508  0.00157  -0.000896
P  2.92756  17.55979  11.70253  -0.000666  0.000319  -0.001036
P  17.56054  2.9293  5.85664  -0.001508  -0.000896  0.00157
P  2.92756  11.70253  17.55979  -0.000666  -0.001036  0.000319
P  5.85664  17.56054  2.9293  0.00157  -0.001508  -0.000896
P  2.9293  17.56054  5.85664  -0.000896  -0.001508  0.00157
P  5.85664  2.9293  17.56054  0.00157  -0.000896  -0.001508
P  2.9293  5.85664  17.56054  -0.000896  0.00157  -0.001508
P  17.55821  17.55821  8.7801  0.000238  0.000238  -0.001141
P  17.55821  8.7801  17.55821  0.000238  -0.001141  0.000238
P  8.7801  17.55821  17.55821  -0.001141  0.000238  0.000238
P  17.55899  17.55899  14.63152  -0.000934  -0.000934  -0.003042
P  17.55899  14.63152  17.55899  -0.000934  -0.003042  -0.000934
P  14.63152  17.55899  17.55899  -0.003042  -0.000934  -0.000934
P  17.56043  17.56043  2.92678  -0.000579  -0.000579  0.002036
P  17.56043  2.92678  17.56043  -0.000579  0.002036  -0.000579
P  2.92678  17.56043  17.56043  0.002036  -0.000579  -0.000579
215
Lattice="17.561274918 0.0 0.0 0.0 17.561274918 0.0 0.0 0.0 17.561274918" Properties=species:S:1:pos:R:3:forces:R:3 energy=-1036.51972428 stress="-11.42046 -0.10141 -0.10141 -0.10141 -11.42046 -0.10141 -0.10141 -0.10141 -11.42046" pbc="T T T"
In  10.04381  10.04381  10.04381  0.035523  0.035523  0.035523
In  10.10296  7.47466  7.47466  0.032244  -0.02948  -0.02948
In  7.47466  10.10296  7.47466  -0.02948  0.032244  -0.02948
In  7.47466  7.47466  10.10296  -0.02948  -0.02948  0.032244
In  13.15829  10.24848  7.31204  0.001652  -0.006073  0.002427
In  13.15829  7.31204  10.24848  0.001652  0.002427  -0.006073
In  10.24848  13.15829  7.31204  -0.006073  0.001652  0.002427
In  10.24848  7.31204  13.15829  -0.006073  0.002427  0.001652
In  7.31204  13.15829  10.24848  0.002427  0.001652  -0.006073
In  7.31204  10.24848  13.15829  0.002427  -0.006073  0.001652
In  10.24653  10.24653  4.39617  -0.00312  -0.00312  -0.001315
In  10.24653  4.39617  10.24653  -0.00312  -0.001315  -0.00312
In  4.39617  10.24653  10.24653  -0.001315  -0.00312  -0.00312
In  7.31671  7.31671  4.40346  0.001686  0.001686  -0.003557
In  7.31671  4.40346  7.31671  0.001686  -0.003557  0.001686
In  4.40346  7.31671  7.31671  -0.003557  0.001686  0.001686
In  13.12336  13.12336  10.23664  0.003534  0.003534  -0.00273
In  13.12336  10.23664  13.12336  0.003534  -0.00273  0.003534
In  10.23664  13.12336  13.12336  -0.00273  0.003534  0.003534
In  13.13822  7.31515  4.42023  0.000603  0.00536  -0.000875
In  13.13822  4.42023  7.31515  0.000603  -0.000875  0.00536
In  7.31515  13.13822  4.42023  0.00536  0.000603  -0.000875
In  4.42023  13.13822  7.31515  -0.000875  0.000603  0.00536
In  7.31515  4.42023  13.13822  0.00536  -0.000875  0.000603
In  4.42023  7.31515  13.13822  -0.000875  0.00536  0.000603
In  10.24344  4.42568  4.42568  -0.005663  -0.001129  -0.001129
In  4.42568  10.24344  4.42568  -0.001129  -0.005663  -0.001129
In  4.42568  4.42568  10.24344  -0.001129  -0.001129  -0.005663
In  16.09153  10.23513  10.23513  0.002165  0.000167  0.000167
In  10.23513  16.09153  10.23513  0.000167  0.002165  0.000167
In  10.23513  10.23513  16.09153  0.000167  0.000167  0.002165
In  16.0934  7.32152  7.32152  0.000396  -0.001199  -0.001199
In  13.17021  13.17021  4.38782  -0.000348  -0.000348  -0.000362
In  13.17021  4.38782  13.17021  -0.000348  -0.000362  -0.000348
In  7.32152  16.0934  7.32152  -0.001199  0.000396  -0.001199
In  7.32152  7.32152  16.0934  -0.001199  -0.001199  0.000396
In  4.38782  13.17021  13.17021  -0.000362  -0.000348  -0.000348
In  10.23797  7.3212  1.46355  9.7e-5  -0.000361  -0.000255
In  7.3212  10.23797  1.46355  -0.000361  9.7e-5  -0.000255
In  10.23797  1.46355  7.3212  9.7e-5  -0.000255  -0.000361
In  7.3212  1.46355  10.23797  -0.000361  -0.000255  9.7e-5
In  1.46355  10.23797  7.3212  -0.000255  9.7e-5  -0.000361
In  1.46355  7.3212  10.23797  -0.000255  -0.000361  9.7e-5
In  4.39161  4.39161  4.39161  -0.001377  -0.001377  -0.001377
In  16.09267  13.16747  7.31813  0.000542  -0.000552  -0.000308