LAMMPS (7 Jul 2009)
#AtC Two temperature Coupling
# DESCRIPTION:
# full overlap of MD and FE regions with full periodic boundary conditions.
# initial electron and phonon temperatures are different and then allowed to 
# relax.
#

units    real
atom_style  atomic
boundary  p p p

# create domain
#lattice  type reduced density rho* = 4*(sigma/a)^3, 
#   where N = 4 for fcc, 
#         s = 3.405 A (Wagner) 
#         a = 5.25 A (Ashcroft & Mermin, p. 70)
lattice         fcc 5.405 origin 0.25 0.25 0.25
Lattice spacing in x,y,z = 5.405 5.405 5.405

pair_style  lj/cut 13.5

read_data   uniform_exchange_init.data
  orthogonal box = (-64.86 -16.215 -16.215) to (64.86 16.215 16.215)
  1 by 1 by 1 processor grid
  3456 atoms
  3456 velocities

region    simRegion block -12 12 -3 3 -3 3
region     feRegion block -12 12 -3 3 -3 3

# create atoms
region    mdRegion block -12 12  -3 3 -3 3

# specify interal/ghost atoms
region    mdInternal block -12 12 -3 3 -3 3
group    internal region mdInternal
3456 atoms in group internal

neighbor  5. bin
neigh_modify  every 10 delay 0 check no

#               ID  group atc PhysicsType ParameterFile
fix             AtC internal   atc two_temperature  Ar_ttm.mat

#               ID  part keywords    nx ny nz region
fix_modify      AtC fem  create mesh 4 1  1  feRegion p p p

# fix a temperature
fix_modify AtC transfer fix temperature          all 20.0
fix_modify AtC transfer fix electron_temperature all 30.0

timestep  5.0

# output
thermo_style custom step pe temp f_AtC[2] f_AtC[4]
thermo    10

# equilibrate MD field
fix_modify  AtC transfer thermal control rescale 13
run     500
Memory usage per processor = 21.0377 Mbytes
Step PotEng Temp AtC[2] AtC[4] 
       0   -6783.1469           40           20           30 
      10     -6735.22    35.347373           20           30 
      20   -6638.0676    13.590854           20           30 
      30   -6546.9613    16.073857           20           30 
      40    -6490.431    19.681958           20           30 
      50   -6479.6344    18.576331           20           30 
      60   -6478.1607    19.820313           20           30 
      70   -6466.4024    19.347063           20           30 
      80   -6460.4965    20.043544           20           30 
      90   -6475.7847    21.525054           20           30 
     100   -6506.4571    22.734929           20           30 
     110   -6537.5028     21.72233           20           30 
     120   -6560.5557    20.545507           20           30 
     130   -6574.1125    20.005789           20           30 
     140   -6580.4816    20.638888           20           30 
     150   -6583.1325    20.170952           20           30 
     160   -6585.5219    20.117764           20           30 
     170   -6590.0974    20.060397           20           30 
     180   -6596.3875    20.679965           20           30 
     190   -6600.9942    20.347234           20           30 
     200   -6601.4311    19.975895           20           30 
     210   -6598.8067    19.945866           20           30 
     220   -6595.9852    19.679031           20           30 
     230   -6595.1077    19.944269           20           30 
     240   -6595.9943    20.070388           20           30 
     250   -6596.6556    20.011201           20           30 
     260   -6595.7678    20.005789           20           30 
     270   -6593.2664    19.759981           20           30 
     280   -6589.8904    19.770089           20           30 
     290   -6586.5561    19.876762           20           30 
     300    -6583.355    19.976674           20           30 
     310   -6580.8402    19.728887           20           30 
     320    -6579.781    19.931828           20           30 
     330   -6579.6954    20.004298           20           30 
     340   -6579.3344    19.991891           20           30 
     350   -6577.9943    19.863213           20           30 
     360   -6576.2366    19.850666           20           30 
     370   -6575.6064    19.992817           20           30 
     380   -6577.2176    20.076185           20           30 
     390    -6580.379    20.005789           20           30 
     400   -6584.1107    20.372789           20           30 
     410   -6587.9805    20.271504           20           30 
     420   -6590.8266    20.093685           20           30 
     430   -6591.9592    20.011482           20           30 
     440    -6592.611    20.077122           20           30 
     450   -6593.5045     20.07691           20           30 
     460   -6593.8748    20.010686           20           30 
     470    -6593.217     19.98456           20           30 
     480   -6591.7933    19.843386           20           30 
     490   -6589.9573    19.837677           20           30 
     500   -6587.2689    19.832888           20           30 
Loop time of 35.8006 on 1 procs for 500 steps with 3456 atoms

Pair  time (%) = 15.2531 (42.6057)
Neigh time (%) = 6.75833 (18.8777)
Comm  time (%) = 0.191267 (0.534258)
Outpt time (%) = 0.0041759 (0.0116643)
Other time (%) = 13.5937 (37.9707)

Nlocal:    3456 ave 3456 max 3456 min
Histogram: 1 0 0 0 0 0 0 0 0 0
Nghost:    17500 ave 17500 max 17500 min
Histogram: 1 0 0 0 0 0 0 0 0 0
Neighs:    1.15129e+06 ave 1.15129e+06 max 1.15129e+06 min
Histogram: 1 0 0 0 0 0 0 0 0 0
FullNghs: 2.30259e+06 ave 2.30259e+06 max 2.30259e+06 min
Histogram: 1 0 0 0 0 0 0 0 0 0

Total # of neighbors = 2302588
Ave neighs/atom = 666.258
Neighbor list builds = 50
Dangerous builds = 0

# relax
fix_modify      AtC transfer output        uniform_exchangeFE 100 text
fix_modify      AtC transfer atomic_output uniform_exchangeMD 10000
fix_modify	AtC transfer filter type exponential
fix_modify	AtC transfer filter scale 5.0e2
fix_modify	AtC transfer filter on
fix_modify	AtC transfer unfix          temperature all
fix_modify	AtC transfer unfix electron_temperature all
fix_modify	AtC transfer thermal control flux

# run with FE
run     5000
Memory usage per processor = 21.4955 Mbytes
Step PotEng Temp AtC[2] AtC[4] 
     500   -6587.2689    19.832888           20           30 
     510   -6583.6679     19.63388     19.99067    29.921403 
     520   -6580.4044      19.4659    19.964127    29.843272 
     530   -6578.0632    19.385557    19.929008    29.765503 
     540   -6576.7688    19.408522    19.894578    29.688066 
     550   -6577.5441    19.634386    19.875758    29.611022 
     560   -6580.0311    20.033795    19.890374     29.53457 
     570    -6582.692    20.453287    19.943612    29.459004 
     580   -6584.4988    20.792547    20.027892    29.384591 
     590   -6584.8106    20.986314    20.129173    29.311509 
     600   -6583.0642    20.973001     20.22873    29.239803 
     610   -6579.3187    20.764598    20.306625     29.16936 
     620   -6575.2098    20.510316     20.35374    29.099949 
     630   -6571.8246    20.325666    20.375584    29.031339 
     640   -6569.5494    20.242631    20.383183     28.96337 
     650   -6568.5339    20.279067    20.388293    28.895976 
     660   -6569.1807    20.481137    20.404722     28.82919 
     670   -6571.8804    20.888192    20.449466    28.763169 
     680   -6575.8853    21.427508    20.536803    28.698198 
     690   -6578.9633    21.878185    20.664173    28.634605 
     700   -6578.9118    22.022484    20.807267    28.572603 
     710   -6575.3784    21.818747    20.931312     28.51215 
     720   -6570.6353    21.492481     21.01549    28.452979 
     730   -6567.3963    21.301197    21.066664     28.39478 
     740   -6566.2643    21.309502    21.105617    28.337373 
     750   -6566.5396    21.457094    21.149722    28.280738 
     760   -6567.3538    21.656064    21.206898    28.224948 
     770   -6568.3366    21.872173    21.278393    28.170108 
     780   -6569.7079    22.127021    21.365289    28.116326 
     790   -6571.8911    22.460621    21.472163    28.063731 
     800    -6573.915    22.778464    21.601239    28.012488 
     810     -6573.25     22.83355    21.736318    27.962706 
     820   -6568.3888    22.472517    21.841822    27.914274 
     830   -6561.7617    21.926658    21.890085    27.866811 
     840   -6557.7119    21.622644    21.892222     27.81988 
     850   -6557.6644    21.705712    21.886316    27.773274 
     860   -6559.1067    21.938106     21.89967    27.727064 
     870   -6558.3139    21.958478    21.924594    27.681388 
     880    -6555.286    21.753082    21.935245    27.636218 
     890   -6553.5069    21.670608    21.929199    27.591405 
     900   -6554.6754    21.873951     21.93129    27.546912 
     910   -6557.3535    22.227866    21.961833    27.502902 
     920    -6559.804    22.562976    22.023052    27.459614 
     930   -6561.1035     22.79027    22.104812    27.417244 
     940   -6561.0754    22.886975    22.193563    27.375888 
     950   -6559.6583    22.843876    22.275637    27.335535 
     960   -6557.4925    22.726414    22.340854    27.296074 
     970   -6556.6435    22.735242    22.393663    27.257372 
     980   -6558.3713    22.994521    22.455738    27.219413 
     990   -6560.8396    23.325967    22.542517    27.182345 
    1000   -6561.3932    23.466884    22.643974    27.146328 
    1010     -6558.92    23.310436     22.73347    27.111357 
    1020   -6554.7313     22.97887    22.788548    27.077224 
    1030   -6551.9728    22.778205    22.811405    27.043641 
    1040   -6552.7121    22.918294    22.830752    27.010464 
    1050   -6555.4107     23.25518    22.874224    26.977793 
    1060   -6557.2332    23.507029    22.942583    26.945836 
    1070   -6557.3475    23.592787    23.019287    26.914715 
    1080    -6556.597    23.589643    23.091387    26.884426 
    1090   -6555.4951    23.548501    23.154448    26.854904 
    1100   -6553.7313    23.441062    23.204214    26.826055 
    1110   -6551.9517    23.328444    23.237874    26.797754 
    1120   -6551.0782    23.301201     23.26207    26.769892 
    1130   -6550.2773    23.281684    23.282808    26.742424 
    1140   -6549.0221    23.216408    23.297021    26.715309 
    1150   -6547.9388    23.165837    23.304079    26.688486 
    1160   -6547.5388     23.17981    23.308483    26.661913 
    1170   -6549.0771    23.386392    23.322795    26.635614 
    1180   -6552.9501     23.82246    23.368332    26.609757 
    1190   -6556.3527    24.216018    23.451529    26.584629 
    1200   -6556.0233    24.248394    23.546626     26.56043 
    1210   -6551.6739    23.885282    23.613811     26.53707 
    1220   -6546.3396    23.413349    23.631352     26.51421 
    1230   -6543.8694    23.214363      23.6148    26.491499 
    1240   -6545.2248    23.388954    23.601111    26.468824 
    1250   -6548.9978    23.804744    23.619657    26.446347 
    1260   -6552.0331    24.153528    23.675151     26.42436 
    1270   -6551.2447    24.130608    23.740189    26.403048 
    1280   -6546.9419    23.761466    23.776739    26.382311 
    1290   -6543.2504    23.442367    23.773669    26.361846 
    1300   -6544.0697    23.560897    23.762296    26.341452 
    1310   -6548.1889     24.00497    23.783494    26.321251 
    1320   -6550.8691    24.316793    23.840927    26.301545 
    1330     -6550.16    24.296091    23.904741    26.282495 
    1340   -6547.5804    24.091397    23.948993    26.264021 
    1350   -6545.5875    23.937081    23.970706    26.245937 
    1360   -6545.7935    23.992778    23.986105    26.228124 
    1370   -6547.9636    24.244836    24.016755    26.210627 
    1380   -6550.0271    24.487949    24.069589    26.193606 
    1390    -6550.748    24.602181    24.133807    26.177193 
    1400   -6549.5567    24.526748    24.193782    26.161407 
    1410   -6545.7348    24.189059    24.226461    26.146114 
    1420   -6541.8049    23.835117    24.220739    26.131029 
    1430   -6539.7085    23.656302     24.19082    26.115899 
    1440   -6539.9557    23.705239    24.158333    26.100628 
    1450   -6542.6224    23.996103    24.146799    26.085297 
    1460    -6546.255    24.386388    24.170746    26.070146 
    1470   -6548.5015    24.643846    24.224187    26.055442 
    1480   -6547.7415    24.610745    24.281882     26.04131 
    1490   -6545.2911    24.406159    24.319952    26.027667 
    1500   -6544.0033     24.31102     24.33879    26.014338 
    1510   -6545.1817    24.454182    24.359724    26.001255 
    1520   -6546.9716    24.656688    24.397463    25.988511 
    1530    -6547.337    24.722103    24.444177    25.976212 
    1540   -6546.4396    24.665666    24.485712    25.964361 
    1550   -6544.6031    24.515493    24.513107    25.952873 
    1560   -6542.0417    24.286541    24.519007    25.941602 
    1570    -6539.924    24.098546    24.503746     25.93037 
    1580   -6539.2427    24.051084    24.479094    25.919055 
    1590     -6540.47    24.188563    24.461792    25.907656 
    1600   -6543.5268    24.510003    24.469289    25.896308 
    1610   -6546.3182    24.810245    24.508235    25.885248 
    1620   -6544.9543    24.707464    24.552878    25.874633 
    1630   -6539.6863    24.213642    24.560345    25.864314 
    1640   -6535.4885    23.822162    24.521524    25.853923 
    1650   -6535.6525    23.850915    24.471296     25.84323 
    1660   -6537.9998    24.099209    24.442787     25.83231 
    1670    -6540.151    24.332665    24.440284    25.821366 
    1680   -6542.4466    24.584801    24.460451    25.810588 
    1690   -6544.8542    24.849339    24.503996    25.800154 
    1700    -6546.292      25.0213    24.564184    25.790224 
    1710   -6546.4347    25.065675    24.628133    25.780869 
    1720   -6545.9648      25.0447    24.685966    25.772068 
    1730   -6545.5871    25.030591     24.73665    25.763758 
    1740   -6544.4505    24.941938     24.77843    25.755877 
    1750   -6541.6713    24.688734     24.79902    25.748305 
    1760   -6539.0289     24.44345      24.7918     25.74083 
    1770   -6539.3176    24.483553    24.775655    25.733299 
    1780   -6542.0848    24.765189    24.779816    25.725774 
    1790   -6543.1928    24.886643    24.805158    25.718447 
    1800   -6540.1609    24.605257    24.818215    25.711348 
    1810   -6535.7937    24.186873    24.792665    25.704246 
    1820   -6534.2421    24.039421     24.74188    25.696869 
    1830   -6536.6369    24.282841    24.703222    25.689179 
    1840   -6539.9801    24.624823    24.700101    25.681396 
    1850   -6540.2476    24.668839    24.715536    25.673753 
    1860   -6538.3668    24.504144    24.720045    25.666255 
    1870   -6537.6209    24.445697    24.712456    25.658791 
    1880   -6538.6438    24.561109    24.709858    25.651336 
    1890    -6539.466    24.660384    24.719506    25.643975 
    1900   -6538.9182    24.624177    24.730114    25.636761 
    1910    -6538.628    24.614154    24.735921    25.629663 
    1920   -6540.1221    24.775356    24.749034    25.622688 
    1930    -6542.452    25.023854     24.78218    25.615953 
    1940   -6543.3431    25.134236    24.830292    25.609607 
    1950   -6541.5193    24.976983    24.869936    25.603669 
    1960   -6539.1628    24.760981    24.885117    25.597985 
    1970   -6539.2823    24.783512    24.889791    25.592402 
    1980   -6540.7963    24.942943     24.90599    25.586942 
    1990   -6540.3741     24.91461    24.927471    25.581689 
    2000   -6538.1889    24.712386    24.933358    25.576588 
    2010   -6536.9679    24.602664    24.922546    25.571493 
    2020   -6537.5036      24.6615    24.912017    25.566344 
    2030   -6538.3282    24.752621    24.910662    25.561191 
    2040   -6539.0384    24.830601    24.917315    25.556104 
    2050   -6539.3726    24.877446     24.92958    25.551136 
    2060   -6538.5177    24.805175    24.939349    25.546301 
    2070   -6536.9777    24.663065    24.936466    25.541529 
    2080   -6536.0953    24.583463    24.923169    25.536721 
    2090   -6535.7139    24.554377    24.906814    25.531831 
    2100   -6535.4232    24.532482    24.889552    25.526846 
    2110   -6535.7906    24.576113    24.874652     25.52177 
    2120   -6537.4405    24.750456    24.871846    25.516662 
    2130   -6540.6254    25.071774    24.893787    25.511671 
    2140   -6543.8757    25.408101    24.946696    25.507027 
    2150   -6544.8455    25.519155    25.016043    25.502922 
    2160    -6542.465    25.303874     25.07216    25.499358 
    2170   -6538.0696    24.881733    25.089735    25.496107 
    2180   -6534.4995    24.537126    25.067709    25.492839 
    2190   -6533.6381    24.451523     25.02814     25.48933 
    2200   -6535.3207    24.617318    24.998296    25.485564 
    2210   -6537.6097    24.846562     24.99231    25.481694 
    2220   -6538.0545    24.899867    25.000682    25.477883 
    2230   -6536.3515    24.740221     25.00117    25.474147 
    2240   -6534.7208    24.587268    24.984642    25.470368 
    2250    -6535.237    24.647545    24.965848    25.466464 
    2260   -6537.1641    24.843312     24.96326    25.462507 
    2270   -6538.6557    24.998812    24.978116     25.45864 
    2280   -6539.5707     25.09882    25.003003    25.454967 
    2290   -6540.1337    25.165772    25.033386    25.451545 
    2300   -6539.6374     25.12831     25.06263    25.448391 
    2310    -6537.488    24.929215    25.076593    25.445435 
    2320   -6535.5588    24.744551    25.069274    25.442517 
    2330   -6535.6453    24.756559    25.054735    25.439519 
    2340   -6537.6865     24.96228    25.053928    25.436478 
    2350   -6539.5064    25.147711    25.073603    25.433547 
    2360   -6538.9785    25.104764    25.097982     25.43083 
    2370   -6535.9938     24.81954     25.10214    25.428252 
    2380   -6533.2946    24.560341    25.077546    25.425598 
    2390   -6533.5869    24.593174    25.045104    25.422718 
    2400   -6536.8933    24.921555    25.035318    25.419686 
    2410   -6541.0746    25.338331    25.064543    25.416767 
    2420   -6542.5816    25.499512    25.119582    25.414232 
    2430    -6540.063    25.264983    25.162836    25.412124 
    2440   -6536.9576    24.968222    25.172898    25.410228 
    2450    -6536.951    24.969345    25.168211    25.408342 
    2460   -6539.4419    25.214921    25.179043    25.406486 
    2470   -6541.1806    25.392515    25.210842    25.404828 
    2480   -6540.4123    25.324658    25.243707    25.403453 
    2490   -6538.0804    25.101896    25.257565    25.402274 
    2500   -6535.6554    24.867152    25.247508    25.401108 
    2510   -6534.4717     24.74523    25.221069    25.399792 
    2520   -6535.4275    24.836527    25.196548    25.398274 
    2530   -6538.0484    25.091527    25.192681    25.396655 
    2540   -6539.9593    25.283759    25.212446    25.395127 
    2550   -6538.2499    25.119889     25.23125    25.393786 
    2560   -6533.5145    24.658368    25.214545    25.392466 
    2570   -6530.2956    24.339786    25.159637    25.390847 
    2580   -6531.6565    24.468597    25.102613     25.38877 
    2590   -6536.4187    24.933447    25.083292    25.386406 
    2600   -6540.3305    25.323643    25.109487    25.384115 
    2610   -6539.7078    25.278653    25.148619    25.382134 
    2620   -6535.3812    24.864243     25.15787    25.380367 
    2630   -6531.6571    24.503504    25.126242    25.378503 
    2640   -6532.1378    24.548061    25.083352    25.376328 
    2650    -6536.513    24.978713     25.07096    25.373943 
    2660   -6541.0671    25.432831    25.105063    25.371683 
    2670   -6542.5346    25.593366    25.164578    25.369841 
    2680   -6541.3055    25.487926    25.218359    25.368472 
    2690   -6539.0338    25.274683    25.250359    25.367447 
    2700    -6536.932    25.070102    25.258694    25.366577 
    2710    -6536.337    25.014184    25.253661     25.36571 
    2720   -6537.5684    25.134734     25.25396    25.364822 
    2730   -6538.7522    25.254801    25.267149    25.364002 
    2740    -6538.738    25.257133    25.284427    25.363317 
    2750   -6538.1195    25.200206    25.296109    25.362752 
    2760   -6538.4498    25.232579    25.305125    25.362266 
    2770   -6539.4182    25.327904    25.320942     25.36188 
    2780   -6539.5018    25.338481    25.340332    25.361643 
    2790    -6539.179    25.307551    25.355836    25.361546 
    2800   -6538.7423    25.263215     25.36689    25.361552 
    2810   -6536.8564    25.077086    25.366095    25.361603 
    2820   -6533.8447    24.780923    25.340443    25.361545 
    2830   -6532.5021     24.64363    25.295434     25.36119 
    2840   -6533.9931     24.78317     25.25683    25.360494 
    2850    -6536.148    24.990655    25.241027    25.359597 
    2860    -6536.449     25.01986    25.237977    25.358651 
    2870   -6535.2997     24.91021     25.22919    25.357671 
    2880   -6534.3565    24.818339    25.211284    25.356589 
    2890   -6533.5574    24.737242    25.187118    25.355347 
    2900    -6533.454    24.730052    25.160421    25.353908 
    2910   -6535.0653    24.887773    25.144195    25.352305 
    2920   -6537.6792    25.149129    25.150698    25.350682 
    2930   -6540.0654    25.391995     25.18162    25.349231 
    2940   -6540.3661     25.43401    25.223084    25.348094 
    2950   -6539.3637    25.343507    25.255387     25.34726 
    2960   -6539.8616    25.396878     25.28256    25.346653 
    2970   -6540.7425    25.489455    25.316564    25.346293 
    2980   -6539.5572    25.379366    25.346386    25.346198 
    2990   -6536.6805    25.103907    25.352834    25.346246 
    3000   -6534.4652    24.884149    25.333822    25.346228 
    3010   -6534.1671    24.849993    25.305501    25.346008 
    3020   -6534.8623    24.914856    25.283048    25.345587 
    3030   -6535.6612    24.993225     25.26938     25.34503 
    3040   -6537.6493    25.186591    25.269652    25.344424 
    3050   -6539.9926     25.42064    25.292463    25.343922 
    3060   -6539.7826     25.40483    25.323614    25.343656 
    3070   -6537.5109    25.184227    25.337514    25.343575 
    3080   -6535.6456    24.998436    25.329887    25.343505 
    3090   -6534.5985    24.892705    25.309812    25.343317 
    3100   -6534.1432    24.842631    25.284758    25.342947 
    3110   -6533.9749    24.823894    25.259178    25.342378 
    3120   -6534.0254    24.824242    25.235123    25.341619 
    3130   -6535.3169    24.949861    25.218498      25.3407 
    3140   -6538.8237    25.296996    25.227751    25.339758 
    3150   -6541.5395    25.569606    25.268148    25.339038 
    3160   -6541.2883    25.553386    25.315141     25.33869 
    3170   -6539.7281     25.40703    25.347478    25.338656 
    3180   -6538.5967    25.297385    25.364213    25.338806 
    3190   -6537.7425      25.2129    25.371095    25.339041 
    3200   -6535.9467    25.035124    25.365116    25.339279 
    3210      -6533.3    24.773082    25.337727    25.339378 
    3220   -6530.6338    24.504815    25.287305    25.339161 
    3230   -6529.1331    24.349645    25.220879    25.338472 
    3240   -6530.1991    24.446533    25.158679    25.337268 
    3250   -6534.3024    24.844155    25.127479    25.335701 
    3260   -6539.5426    25.358505    25.145934    25.334112 
    3270   -6541.5921    25.569557    25.198132    25.332851 
    3280   -6539.6223    25.390844    25.243112    25.332003 
    3290   -6537.2113     25.16368    25.261615      25.3314 
    3300   -6536.1615    25.065082    25.263657    25.330867 
    3310   -6535.8385    25.034668    25.260387    25.330326 
    3320   -6535.6703    25.021271    25.255639    25.329756 
    3330   -6535.8095     25.03327    25.251102    25.329153 
    3340   -6536.2748    25.082314    25.250386    25.328534 
    3350      -6536.6    25.112787    25.253728    25.327932 
    3360   -6536.7488    25.130726    25.258572     25.32737 
    3370   -6537.3855    25.194718      25.2668    25.326861 
    3380   -6538.1563    25.270292    25.281642    25.326449 
    3390   -6538.3249    25.290401    25.299512    25.326175 
    3400   -6537.5034    25.213493    25.313081     25.32603 
    3410   -6535.2381     24.99426    25.310262    25.325931 
    3420   -6533.2319    24.794828    25.286114    25.325714 
    3430   -6533.3393    24.798837    25.255413    25.325267 
    3440   -6535.4422    25.003549    25.239243    25.324633 
    3450   -6537.9943    25.254931    25.248171    25.323985 
    3460   -6538.7605    25.331471    25.272125    25.323491 
    3470   -6537.7503    25.233915    25.290464    25.323175 
    3480   -6537.0843    25.169627    25.298439    25.322956 
    3490   -6537.1112    25.170227    25.303272    25.322785 
    3500   -6537.7611    25.234727    25.310985    25.322661 
    3510   -6538.2408    25.283019    25.324602    25.322626 
    3520   -6536.8595    25.147213    25.332621    25.322686 
    3530   -6533.7188     24.83662    25.316807    25.322715 
    3540   -6530.7734    24.540788    25.272188    25.322492 
    3550   -6529.7444    24.433842    25.212795    25.321842 
    3560   -6531.3469    24.584517    25.162556    25.320754 
    3570   -6534.0579    24.848326     25.13945    25.319392 
    3580   -6535.2761     24.97031     25.13723    25.317962 
    3590   -6535.1081    24.963418    25.138825     25.31655 
    3600   -6534.7802     24.93572    25.138272    25.315153 
    3610   -6534.3909     24.90361    25.134511    25.313748 
    3620   -6535.3477    25.002897    25.133519    25.312329 
    3630    -6538.679    25.334465    25.154688    25.310995 
    3640   -6541.4791    25.616476     25.20632    25.309976 
    3650    -6539.778    25.460697    25.258053      25.3094 
    3660   -6535.1377    25.010006    25.271211    25.309084 
    3670   -6532.6338    24.765372    25.247769    25.308698 
    3680   -6534.3079    24.929933    25.225526     25.30811 
    3690   -6537.9993    25.294817    25.233913    25.307474 
    3700   -6540.3433    25.529579    25.271624    25.307047 
    3710   -6539.9411     25.49804    25.313231    25.306955 
    3720   -6539.2002    25.430008     25.34382    25.307142 
    3730   -6539.2664    25.436451    25.369625    25.307543 
    3740   -6538.5567    25.365851     25.39078    25.308129 
    3750   -6536.2916    25.143204    25.395047    25.308812 
    3760   -6533.7851    24.891501    25.374724    25.309416 
    3770   -6532.7643    24.783967    25.339286     25.30978 
    3780   -6533.4489    24.842155    25.306126    25.309862 
    3790   -6535.0135    24.991419    25.287313     25.30974 
    3800   -6535.4923    25.037885    25.280918    25.309534 
    3810   -6533.5853    24.848268    25.266669    25.309259 
    3820   -6531.8583    24.678119    25.233693     25.30879 
    3830   -6533.6311    24.850013    25.204527     25.30806 
    3840   -6538.3299    25.310761    25.211531    25.307247 
    3850    -6542.574     25.73673    25.262558    25.306692 
    3860   -6542.5857    25.748011    25.329936    25.306642 
    3870   -6537.0829    25.215826    25.361756    25.307001 
    3880   -6532.1817    24.735668    25.336047    25.307348 
    3890   -6534.4809    24.953451    25.302546     25.30741 
    3900   -6540.4701    25.539887    25.318158    25.307401 
    3910   -6542.9599    25.792473    25.374044    25.307717 
    3920   -6540.5413    25.561212    25.421677    25.308463 
    3930   -6536.3122    25.147316    25.430381    25.309418 
    3940   -6533.6221    24.879512    25.404882    25.310273 
    3950   -6533.3474    24.842024    25.369272    25.310862 
    3960   -6533.7666    24.874337    25.338585    25.311184 
    3970   -6533.6879    24.863079    25.311849    25.311283 
    3980    -6533.244    24.816284    25.284335    25.311169 
    3990    -6533.259    24.815347    25.256556    25.310836 
    4000   -6534.5517    24.939522    25.237776    25.310319 
    4010   -6536.0789    25.091987    25.235683     25.30973 
    4020   -6535.8844    25.078138    25.240131    25.309169 
    4030   -6535.3555     25.02731    25.238437    25.308623 
    4040   -6537.1013    25.197763    25.243021    25.308079 
    4050   -6539.6199    25.449006    25.270042    25.307671 
    4060   -6540.3986    25.531772    25.310327    25.307547 
    4070   -6539.5084    25.451784     25.34529    25.307728 
    4080   -6538.1577    25.324203    25.365895    25.308122 
    4090   -6537.5593    25.267095     25.37547    25.308621 
    4100   -6537.8475       25.293    25.383723    25.309181 
    4110   -6537.8872    25.295676    25.393196    25.309808 
    4120   -6537.2622    25.231835    25.398449    25.310491 
    4130   -6536.0501    25.111078    25.394152    25.311171 
    4140   -6534.4892    24.954586    25.376477    25.311756 
    4150   -6533.6538    24.868587    25.348298    25.312146 
    4160   -6534.5523    24.956357    25.323523    25.312315 
    4170   -6536.6395    25.157201    25.316528    25.312359 
    4180   -6538.3119    25.320029    25.328083    25.312432 
    4190   -6538.8911    25.376999    25.348713    25.312642 
    4200   -6537.9572    25.290203    25.365223    25.313004 
    4210   -6536.7709    25.173775    25.368577    25.313437 
    4220   -6537.2691    25.220268    25.368689    25.313867 
    4230   -6538.2886    25.321535    25.377853    25.314331 
    4240   -6537.9491    25.287644     25.38953    25.314884 
    4250   -6536.1194    25.109123    25.388466    25.315478 
    4260   -6534.3985    24.937074      25.3697     25.31598 
    4270   -6533.6519    24.858538    25.341305    25.316282 
    4280   -6533.8806    24.875393    25.312936    25.316353 
    4290   -6535.9379    25.072139    25.297539    25.316245 
    4300   -6539.6662    25.437267     25.31242    25.316139 
    4310    -6541.739    25.643241    25.355427    25.316286 
    4320   -6539.0241    25.382742    25.389952    25.316764 
    4330   -6533.5044    24.842688    25.378465    25.317324 
    4340   -6529.9373    24.486837    25.323472    25.317585 
    4350   -6530.4701    24.528733    25.260973    25.317353 
    4360   -6533.7894    24.845446    25.224514    25.316729 
    4370   -6537.5183    25.209526    25.225723    25.315986 
    4380   -6539.6412    25.425416    25.254686    25.315391 
    4390   -6539.0509    25.374158     25.28781    25.315063 
    4400   -6536.1206    25.091171    25.299323    25.314919 
    4410   -6533.9567    24.879583    25.283889    25.314741 
    4420   -6534.7145    24.951514    25.264894     25.31441 
    4430   -6536.2656    25.104852    25.261386    25.313996 
    4440   -6536.1346    25.092331    25.264813    25.313599 
    4450   -6534.8926    24.974094    25.259499      25.3132 
    4460    -6535.057      24.9926    25.249055     25.31273 
    4470   -6537.3839    25.220723    25.253033    25.312232 
    4480   -6540.2277    25.503923    25.282586    25.311879 
    4490   -6541.8456    25.669268    25.331215    25.311852 
    4500    -6541.091    25.601424    25.378769    25.312218 
    4510   -6538.9713     25.39624    25.406706    25.312877 
    4520   -6537.3013    25.233013    25.413671    25.313655 
    4530   -6536.8398    25.183688    25.410637     25.31443 
    4540   -6536.3536    25.132267    25.404731    25.315164 
    4550   -6534.3097    24.929694    25.386713    25.315802 
    4560   -6531.8407    24.683308     25.34745    25.316203 
    4570   -6530.9144    24.583408    25.294813    25.316223 
    4580   -6532.7912     24.75696    25.252108    25.315855 
    4590   -6535.7514    25.045266    25.238033    25.315274 
    4600   -6537.6363    25.229728    25.248103      25.3147 
    4610    -6537.792    25.251127    25.266171    25.314255 
    4620   -6536.3983    25.117623    25.276005    25.313929 
    4630   -6534.5672    24.939853    25.268776    25.313611 
    4640   -6533.4331    24.828261     25.24834    25.313176 
    4650   -6533.8103    24.863909    25.226376    25.312567 
    4660   -6536.1182    25.089611    25.219959    25.311847 
    4670   -6539.7174    25.446333    25.243392    25.311204 
    4680   -6542.3279    25.710054    25.295851    25.310885 
    4690   -6541.4186    25.631483    25.351201    25.311017 
    4700   -6537.8829    25.288876    25.377928    25.311473 
    4710   -6534.4499    24.950975    25.368312    25.311974 
    4720   -6532.1278    24.715487    25.333007    25.312276 
    4730   -6530.8911     24.58177    25.283963    25.312232 
    4740   -6531.2701    24.611996    25.234939    25.311792 
    4750   -6533.3482    24.810093    25.202985    25.311035 
    4760   -6535.5974     25.03102    25.195283    25.310138 
    4770   -6536.9532    25.166885    25.204967     25.30927 
    4780   -6537.7181    25.248615    25.223325    25.308526 
    4790   -6537.6447    25.247517    25.244092    25.307948 
    4800   -6536.6577    25.153281    25.256841    25.307508 
    4810   -6536.8034    25.168748    25.263785    25.307139 
    4820   -6538.3174    25.317178    25.279721    25.306859 
    4830   -6538.9558    25.381122    25.305443    25.306755 
    4840   -6537.7898    25.268152    25.325142    25.306839 
    4850   -6535.7991    25.075013     25.32706    25.307004 
    4860   -6534.1303    24.911139    25.311502    25.307103 
    4870   -6532.9988    24.800685    25.284748    25.307027 
    4880   -6532.8016    24.778236    25.254157    25.306719 
    4890   -6533.9121    24.885926    25.231314    25.306198 
    4900   -6535.7463    25.064522    25.225147    25.305571 
    4910   -6537.8798    25.273809    25.238247    25.304983 
    4920   -6539.1951    25.406749    25.267581     25.30458 
    4930   -6537.4521    25.240192    25.291972    25.304408 
    4940   -6533.9081    24.894588    25.285942    25.304306 
    4950   -6532.7343    24.778079     25.25729    25.304043 
    4960   -6534.5236    24.952741    25.237351    25.303576 
    4970   -6536.2977    25.126322     25.23785    25.303047 
    4980   -6536.9578    25.194672    25.248843    25.302579 
    4990   -6537.1578    25.217257    25.262555    25.302215 
    5000   -6536.8376    25.187791    25.274576    25.301959 
    5010   -6536.1979    25.125233    25.280363    25.301773 
    5020   -6535.9038    25.097062    25.281288     25.30161 
    5030   -6535.5094    25.058244     25.27963    25.301446 
    5040   -6534.6382    24.970893     25.27155    25.301245 
    5050   -6534.2083     24.93028    25.257573    25.300953 
    5060   -6534.8051     24.98816    25.246427    25.300559 
    5070   -6535.6238    25.068136    25.243858    25.300117 
    5080   -6535.8714    25.093069    25.246352    25.299685 
    5090   -6535.9431    25.101267    25.249454    25.299279 
    5100   -6536.3657    25.142361    25.254857    25.298908 
    5110    -6536.449    25.153818    25.262675    25.298596 
    5120   -6536.2916    25.142934    25.268877    25.298342 
    5130     -6537.05    25.216595    25.277483    25.298143 
    5140   -6537.9504    25.307283    25.294484    25.298049 
    5150   -6537.5766    25.271706     25.31233    25.298102 
    5160    -6536.315     25.15146    25.319554    25.298254 
    5170   -6535.9252    25.114151    25.317923    25.298416 
    5180   -6536.4797    25.166993     25.31887     25.29857 
    5190   -6536.1179    25.131359    25.321011    25.298741 
    5200   -6534.9205    25.015122    25.314483    25.298895 
    5210   -6534.1764    24.937389    25.298688    25.298953 
    5220   -6534.5271    24.971833    25.282929    25.298879 
    5230   -6535.3186    25.047102     25.27495    25.298714 
    5240    -6535.931    25.108114    25.273958    25.298519 
    5250   -6536.9152    25.207036    25.280381    25.298348 
    5260   -6538.4517     25.35902    25.298595    25.298277 
    5270    -6539.799    25.494651    25.329407    25.298406 
    5280   -6539.8898     25.50717     25.36441    25.298803 
    5290   -6538.0805    25.333627     25.38759    25.299432 
    5300   -6535.0967    25.042437    25.384621    25.300131 
    5310    -6533.658    24.896665    25.359622    25.300693 
    5320   -6535.3136    25.053548    25.339646    25.301057 
    5330   -6537.5652    25.272894    25.342373    25.301359 
    5340   -6537.8096    25.296812    25.356373    25.301742 
    5350   -6535.8769    25.106667    25.359182    25.302196 
    5360   -6533.9006    24.911229    25.341371    25.302578 
    5370   -6533.6917    24.885202    25.315233    25.302769 
    5380   -6535.1639     25.02472    25.298247    25.302783 
    5390   -6536.8588    25.192813    25.299422    25.302742 
    5400   -6536.3923    25.145895    25.306382     25.30275 
    5410   -6534.0169    24.912716    25.296709    25.302752 
    5420   -6532.4609    24.759441    25.268064    25.302588 
    5430   -6533.6554    24.873377    25.240966    25.302189 
    5440    -6537.273    25.226778    25.241142    25.301685 
    5450     -6540.52    25.548422    25.275716    25.301341 
    5460   -6540.7994    25.581781    25.323131    25.301347 
    5470   -6538.9727    25.411283    25.356422    25.301676 
    5480    -6538.026     25.32227    25.372919    25.302184 
    5490   -6538.1542    25.336104    25.386457    25.302798 
    5500    -6536.874    25.212637    25.393998    25.303497 
Loop time of 478.494 on 1 procs for 5000 steps with 3456 atoms

Pair  time (%) = 152.419 (31.8539)
Neigh time (%) = 67.4687 (14.1002)
Comm  time (%) = 1.95807 (0.409215)
Outpt time (%) = 0.0418682 (0.00875)
Other time (%) = 256.606 (53.6279)

Nlocal:    3456 ave 3456 max 3456 min
Histogram: 1 0 0 0 0 0 0 0 0 0
Nghost:    17500 ave 17500 max 17500 min
Histogram: 1 0 0 0 0 0 0 0 0 0
Neighs:    1.15063e+06 ave 1.15063e+06 max 1.15063e+06 min
Histogram: 1 0 0 0 0 0 0 0 0 0
FullNghs: 2.30127e+06 ave 2.30127e+06 max 2.30127e+06 min
Histogram: 1 0 0 0 0 0 0 0 0 0

Total # of neighbors = 2301266
Ave neighs/atom = 665.876
Neighbor list builds = 500
Dangerous builds = 0
