LAMMPS data file via write_data, version 30 Mar 2018, timestep = 10000

4096 atoms
1 atom types

0.0000000000000000e+00 1.3840000000000001e+02 xlo xhi
0.0000000000000000e+00 3.4570000000000000e+01 ylo yhi
0.0000000000000000e+00 3.4570000000000000e+01 zlo zhi
0.0000000000000000e+00 0.0000000000000000e+00 0.0000000000000000e+00 xy xz yz

Masses

1 22.9898

Atoms # full

761 0 1 0.0000000000000000e+00 6.5718387526877970e+00 1.3719687167668809e+01 9.0764489103374970e+00 0 0 0
972 0 1 0.0000000000000000e+00 1.4040336334056608e+01 3.2667223025732810e+01 1.8263405578025584e+00 0 0 1
157 0 1 0.0000000000000000e+00 2.0169041879956669e+01 1.1923176551958365e+01 2.3241277343098265e+01 0 0 0
333 0 1 0.0000000000000000e+00 1.4596985870718415e+01 1.3111147113686026e+00 1.2091348567791039e+01 0 0 1
704 0 1 0.0000000000000000e+00 1.7400578084605492e+01 1.9073806421872103e+01 1.6458951010748358e+01 -1 1 0
943 0 1 0.0000000000000000e+00 1.0855900156710607e+01 1.9178285448765071e+00 1.0364062719981291e+01 0 1 0
562 0 1 0.0000000000000000e+00 9.7599449965098266e+00 1.1723146328035016e+01 8.0162503238031189e+00 1 0 0
770 0 1 0.0000000000000000e+00 2.3087951846789174e+01 3.4715780948569632e+00 2.8384438687399964e+01 0 0 0
701 0 1 0.0000000000000000e+00 8.0741075565448028e+00 4.1972700998148440e+00 1.0991536283363629e+01 1 1 0
973 0 1 0.0000000000000000e+00 1.4513238119939416e+01 2.0077151599737558e+01 6.8621440235341868e+00 0 0 1
97 0 1 0.0000000000000000e+00 1.7248338899179114e+01 1.3685010659538008e+01 6.3453085642023321e+00 0 0 0
471 0 1 0.0000000000000000e+00 1.5302598577052368e+01 1.9611332756830230e+01 1.0861949403189952e+01 0 0 1
326 0 1 0.0000000000000000e+00 2.3043108700853956e+01 2.3309593465704057e+00 1.7947804714422517e+00 0 0 1
409 0 1 0.0000000000000000e+00 4.8085504808438735e+00 7.0464245407128612e+00 1.8140994863672759e+01 0 0 0
481 0 1 0.0000000000000000e+00 5.6197712390228105e+00 3.2949187827072066e+01 9.9926418284218048e+00 0 -1 1
974 0 1 0.0000000000000000e+00 1.5216033397050754e+01 1.5539705377326133e+01 3.2476660781361005e+01 0 1 0
171 0 1 0.0000000000000000e+00 1.8486309859024331e+01 3.1960001827275097e+01 5.1323952888642617e-02 0 -1 0
631 0 1 0.0000000000000000e+00 7.8755730458910271e+00 1.2423205774806140e+01 1.4804436620433419e+01 1 0 0
620 0 1 0.0000000000000000e+00 1.1048848844019032e+00 2.8000395612369168e+01 1.0480207395658669e+01 0 0 0
719 0 1 0.0000000000000000e+00 1.7358994345351960e+01 8.6623896759854055e+00 1.6481714984661654e+01 0 0 0
502 0 1 0.0000000000000000e+00 1.6621383415613515e+01 1.0165002507976945e+01 1.9679295760668928e+01 0 0 1
773 0 1 0.0000000000000000e+00 8.8366160728714220e+00 3.0591541762394893e+01 5.7254755000250768e+00 0 0 0
50 0 1 0.0000000000000000e+00 8.9311860902618054e+00 1.9543477906419458e+01 8.7330786805673046e+00 0 0 0
226 0 1 0.0000000000000000e+00 2.6292798027842501e+01 2.1160963460232047e+01 1.0001306207813423e+01 0 0 0
863 0 1 0.0000000000000000e+00 1.7947700590702048e+01 9.4576099770855855e+00 2.0521984886265985e+00 0 1 1
3228 0 1 0.0000000000000000e+00 4.5653152333179287e-01 2.4562727253449705e+01 9.6936858265485100e+00 0 0 -1
347 0 1 0.0000000000000000e+00 2.2768900344654568e+01 9.7190617211070940e+00 8.8129568754109968e+00 -1 0 0
847 0 1 0.0000000000000000e+00 7.4660003859981714e+00 3.3961017179402418e+01 1.2129412963637314e+00 1 -1 0
1004 0 1 0.0000000000000000e+00 1.2852637288040327e+01 1.1201663850785248e+01 1.0928298694390248e+01 0 0 0
829 0 1 0.0000000000000000e+00 8.8055620875741329e+00 2.5166386299067444e+01 1.4857838199926318e+01 0 0 0
388 0 1 0.0000000000000000e+00 1.0963521585000954e+01 4.7733658263323147e+00 1.3219264306990674e+01 0 0 0
717 0 1 0.0000000000000000e+00 6.6064571312036735e+00 1.4750508161105300e+01 1.2252989368238277e+01 0 0 0
670 0 1 0.0000000000000000e+00 4.4313514018795370e+00 1.0087487472490693e+01 9.0776345780894676e+00 0 0 0
103 0 1 0.0000000000000000e+00 3.0797906114614877e+00 5.2850603282682078e+00 3.3152825100647355e+01 0 0 -1
114 0 1 0.0000000000000000e+00 2.6478769069650532e+01 3.2734200521383681e+00 7.5944261786273897e+00 -1 0 0
818 0 1 0.0000000000000000e+00 9.9888017633094286e+00 1.2178207780971793e+01 1.1418457658710548e+01 -1 0 1
658 0 1 0.0000000000000000e+00 1.1679232214066761e+01 1.5820844068897983e+01 1.5630687682899799e+01 0 0 0
217 0 1 0.0000000000000000e+00 6.3674209939515736e+00 1.1296361058881828e+01 1.1793248578305748e+01 1 0 -1
979 0 1 0.0000000000000000e+00 1.2313379964092958e+01 5.1280886940418071e+00 1.6322648498335209e+01 0 0 0
106 0 1 0.0000000000000000e+00 1.8552210538438821e+01 1.0456297121004681e+01 9.2534298754824125e+00 0 0 0
976 0 1 0.0000000000000000e+00 6.9625204092844024e+00 1.7455372721352231e+00 4.1401463593297585e+00 0 1 0
487 0 1 0.0000000000000000e+00 2.0469863904621519e+01 2.1344305412635091e+01 1.7214710893816839e+01 0 0 0
36 0 1 0.0000000000000000e+00 1.1070916525533457e+01 3.3814535338552638e+01 6.9713051695709334e+00 0 -1 0
445 0 1 0.0000000000000000e+00 1.9444618364238945e+01 4.4777320237652889e+00 2.7776496666562164e+01 0 0 -1
703 0 1 0.0000000000000000e+00 2.1160262653830397e+01 1.7162264093902881e+01 7.0301704699379854e+00 0 1 0
30 0 1 0.0000000000000000e+00 7.4129670214820456e+00 5.4676827510485921e+00 4.6332226895066508e+00 1 0 0
585 0 1 0.0000000000000000e+00 8.4612359427175377e-01 2.6799055918916488e+00 1.2979784905280601e+01 0 1 0
205 0 1 0.0000000000000000e+00 6.2605859964206916e+00 1.2939512687461880e+01 7.0475435471634240e-01 0 0 0
180 0 1 0.0000000000000000e+00 2.0253230330234807e+01 7.5557089764830998e+00 1.1035588923878905e+01 0 0 0
824 0 1 0.0000000000000000e+00 1.7819436277563145e+01 1.9512449315277692e+01 8.1903482501004454e+00 0 0 1
65 0 1 0.0000000000000000e+00 1.6389175357749373e+01 2.0569603882548794e+01 3.4201730367220989e+01 0 0 -1
3367 0 1 0.0000000000000000e+00 1.7360000033238305e+00 1.1705783965476870e+01 3.1912515310299657e+01 1 0 0
970 0 1 0.0000000000000000e+00 1.1306376021300386e+01 8.8223505504547131e+00 1.5481427296671452e+01 0 1 0
752 0 1 0.0000000000000000e+00 9.7648479717276384e+00 3.2610672975123755e+01 1.3700303134291930e+01 0 0 0
248 0 1 0.0000000000000000e+00 8.1500679410195360e+00 9.3258882100115070e-01 1.2705252585620412e+01 1 1 0
3255 0 1 0.0000000000000000e+00 5.9906413747293741e-01 1.2889327685742108e+01 1.4001430287037646e+01 1 0 0
852 0 1 0.0000000000000000e+00 1.2455623117519725e+01 1.3801203591265017e+01 3.1851518758227709e+01 1 0 -1
473 0 1 0.0000000000000000e+00 2.2257310068439303e+01 3.3130172069447269e+01 6.9828521491174755e-01 0 0 1
173 0 1 0.0000000000000000e+00 2.2064926565114369e+01 5.8399017260108295e+00 7.3989952110535713e+00 0 1 0
835 0 1 0.0000000000000000e+00 1.3904437557099596e+01 1.3109779638188648e+01 1.7813730114820064e+01 0 0 0
888 0 1 0.0000000000000000e+00 2.5051879243504458e+00 6.8117381813365689e+00 8.5435365249792135e+00 0 0 0
3272 0 1 0.0000000000000000e+00 1.4397993169457066e+00 2.0118048649462366e+01 2.1092347912670689e+01 1 0 -1
662 0 1 0.0000000000000000e+00 1.7635759375590947e+01 2.1914379318844553e+01 1.4151580693379767e+01 0 0 0
844 0 1 0.0000000000000000e+00 2.5670364987218530e+01 3.4363654202312283e+01 3.2562490462809116e+01 0 -1 0
3921 0 1 0.0000000000000000e+00 3.4667080835953650e+00 3.0769127953400652e+01 2.6926012683881289e+01 1 0 0
64 0 1 0.0000000000000000e+00 3.8403658318201912e+00 2.1218742779148016e+01 1.8648954200249335e+01 0 -1 0
564 0 1 0.0000000000000000e+00 1.1822461342496192e+01 1.6149964680790337e+01 1.1893540376496464e+01 0 0 0
379 0 1 0.0000000000000000e+00 2.3383485072496430e+00 1.1138962685969731e+00 1.5689940452528885e+01 1 0 0
426 0 1 0.0000000000000000e+00 3.8359164749496122e+00 1.6350823047648557e+01 1.2780062536409899e+01 1 0 1
526 0 1 0.0000000000000000e+00 6.0692814565229787e+00 1.0161526916166972e+01 2.6431117720400588e+00 1 0 0
687 0 1 0.0000000000000000e+00 1.0997040205963252e-01 1.5395188299866923e+01 1.1140973521458648e+01 0 0 0
659 0 1 0.0000000000000000e+00 4.2893538118134469e+00 1.5695481093966510e+01 7.7468695928725291e+00 0 0 0
31 0 1 0.0000000000000000e+00 8.7990405423793359e+00 4.8062043089969881e+00 1.9428340532606651e+01 0 0 0
3128 0 1 0.0000000000000000e+00 6.3324784831724101e-01 3.3910228941750852e+01 1.7818310126154650e+01 1 -1 0
340 0 1 0.0000000000000000e+00 7.3321854432089451e+00 4.4404813278138313e+00 1.4074384453277320e+01 0 0 1
266 0 1 0.0000000000000000e+00 1.1824717103976514e+01 1.2363370814145560e+01 1.4383398579819842e+01 1 0 0
635 0 1 0.0000000000000000e+00 2.2194625357529958e+01 1.1485198762968599e+01 1.1583514966998887e+01 1 0 0
1011 0 1 0.0000000000000000e+00 1.5304559963252837e+01 9.5926952366395746e+00 1.6998922962292637e-01 0 0 0
272 0 1 0.0000000000000000e+00 9.0758984780930643e+00 1.2955669609333196e+01 2.6803762773481852e+00 1 0 1
2 0 1 0.0000000000000000e+00 9.2745765888376948e+00 2.1284160170118982e+00 1.6803423067306156e+01 0 0 0
785 0 1 0.0000000000000000e+00 9.0985446101799106e+00 1.5467852730097190e+01 1.3718053688743057e+01 -1 0 0
194 0 1 0.0000000000000000e+00 2.7472818492208958e+01 3.2669410421744509e+01 4.3809707398334945e+00 0 -1 1
814 0 1 0.0000000000000000e+00 4.8426723771273075e+00 4.5789650507973976e+00 2.0605871947445987e+01 1 1 0
177 0 1 0.0000000000000000e+00 2.0177366160725015e+01 3.4565482401847962e+00 8.8702198181459853e+00 0 1 0
144 0 1 0.0000000000000000e+00 1.2847903725632213e+01 5.7495489650145268e+00 2.0237982845086893e+01 0 0 -1
145 0 1 0.0000000000000000e+00 1.2256145789560971e+01 9.7363881109590817e+00 8.0021801107541517e+00 0 -1 0
567 0 1 0.0000000000000000e+00 3.4926238119517325e+00 3.4257715880207606e+01 5.5316681719448617e+00 0 -1 0
823 0 1 0.0000000000000000e+00 2.0200546905788460e+01 2.4913145631861163e+01 1.5047657953979385e+01 -1 0 1
387 0 1 0.0000000000000000e+00 3.3186357916219369e+00 1.2850106590432334e+01 7.1273548359765080e+00 0 0 0
3579 0 1 0.0000000000000000e+00 3.3587522755734796e+00 1.4881501066826782e+01 3.2505667085866001e+01 0 0 -1
767 0 1 0.0000000000000000e+00 1.5585243364171605e+01 1.9398179918078238e+01 1.9393447986143080e+01 0 0 0
889 0 1 0.0000000000000000e+00 9.0280191279618762e+00 1.5837314162526699e+01 9.6164144657818262e+00 0 0 0
700 0 1 0.0000000000000000e+00 1.3854614046022542e+01 6.4008895465616495e+00 7.8280054525574609e+00 0 1 0
45 0 1 0.0000000000000000e+00 2.2253989268193823e+01 1.4408157282374667e+01 1.4021855994831846e+01 0 0 0
820 0 1 0.0000000000000000e+00 5.6699625413040851e+00 1.7413212270358702e+01 9.9780711847422143e+00 0 0 0
819 0 1 0.0000000000000000e+00 1.0769564506594842e+01 5.6464267563855310e+00 9.8326985192177787e+00 1 0 0
408 0 1 0.0000000000000000e+00 2.1080239743165041e+00 8.7940372831036289e+00 2.8319373313407241e+00 0 0 1
856 0 1 0.0000000000000000e+00 2.8578427452652186e+00 2.9901078327119176e+01 3.2116332651131430e+01 0 0 0
421 0 1 0.0000000000000000e+00 1.5721152120744575e+01 3.8090800522803256e+00 1.4539035533315499e+01 1 0 1
251 0 1 0.0000000000000000e+00 6.4445709042323660e+00 1.1367147743372550e+01 2.2974566579135271e+01 1 0 0
215 0 1 0.0000000000000000e+00 6.2774454104044333e+00 1.5290914868730775e+01 3.0802572683197425e+01 0 0 -1
77 0 1 0.0000000000000000e+00 2.1436706120520622e+01 7.6328318383808762e+00 1.8015379750315351e+01 1 -1 0
478 0 1 0.0000000000000000e+00 8.7588598468053309e+00 2.2173044695958509e+01 2.6581826536815476e+00 1 -1 1
642 0 1 0.0000000000000000e+00 2.5261334335323394e+01 4.4307356449117998e+00 1.3685475229962160e+01 0 1 0
301 0 1 0.0000000000000000e+00 1.7056327695277897e+01 2.2527629658943422e+01 1.0821650164353118e+01 0 0 1
953 0 1 0.0000000000000000e+00 9.3702320898675975e+00 3.3112779314350469e+01 9.9980626724739690e+00 0 -1 1
821 0 1 0.0000000000000000e+00 2.5899867363635629e+01 1.0593655788239458e+01 1.4075515969704295e+01 0 0 0
442 0 1 0.0000000000000000e+00 1.7240451576855385e+01 2.5272425838676455e+01 7.8611695743930721e+00 0 -1 1
710 0 1 0.0000000000000000e+00 7.5224636381612395e+00 3.0169233922489070e+01 8.7752348426243909e+00 1 -1 0
706 0 1 0.0000000000000000e+00 1.8558212261168598e+00 5.8036642540649668e+00 1.5144182497011009e+00 0 0 0
947 0 1 0.0000000000000000e+00 4.0020883300865320e+00 5.4161126027846362e-01 1.8951573051860819e+01 0 1 0
731 0 1 0.0000000000000000e+00 2.1178637237848449e+01 1.1486314891879037e+01 1.9202107759472637e+00 0 1 0
29 0 1 0.0000000000000000e+00 7.1663341217932324e+00 1.6682216214069804e+01 1.6431080400376043e+01 1 0 0
455 0 1 0.0000000000000000e+00 1.1792422186970267e+01 1.7590032037707545e+01 6.0354398819545594e+00 1 0 1
839 0 1 0.0000000000000000e+00 1.4605379447678184e+01 1.0611914045254979e+01 1.5498650526217780e+01 0 1 0
71 0 1 0.0000000000000000e+00 2.5977569550225339e+00 1.9877486151206689e+00 3.1896266113112539e+01 1 0 -1
811 0 1 0.0000000000000000e+00 1.7013390198933472e+01 3.3496721659120773e+01 3.0470853380158913e+00 0 -1 0
626 0 1 0.0000000000000000e+00 2.1583903762083697e+01 5.7209879219168052e+00 1.4560197757283701e+01 0 1 0
865 0 1 0.0000000000000000e+00 1.7944107731900914e+01 1.7317849501156097e+01 4.6229096063009321e+00 0 1 1
341 0 1 0.0000000000000000e+00 4.4735072071369464e+00 1.3681408542334813e+01 1.4646865329976952e+01 0 0 0
826 0 1 0.0000000000000000e+00 1.0378600611817816e+00 1.8678134733140197e+01 6.4806660852324871e+00 0 0 0
793 0 1 0.0000000000000000e+00 5.7642772277317107e+00 1.8621910468783344e+01 1.3811456012578221e+01 1 -1 0
638 0 1 0.0000000000000000e+00 8.7677536263085702e+00 6.4759534658602025e+00 1.6328513925548322e+01 0 0 0
3680 0 1 0.0000000000000000e+00 4.7327075813230737e+00 2.4856492276640100e+01 1.8980820971361236e+01 0 0 0
805 0 1 0.0000000000000000e+00 9.6384969588096447e-01 1.6089195066991323e+01 1.4361402465750190e+01 1 0 0
981 0 1 0.0000000000000000e+00 1.4581847435479556e+01 6.8074686325544871e+00 1.4316520594799929e+01 0 0 1
94 0 1 0.0000000000000000e+00 1.9802013084705756e+01 4.1818430513286886e-01 6.4317730338630010e+00 0 0 0
711 0 1 0.0000000000000000e+00 1.3760444805807827e+01 4.5403088317810916e+00 1.1170246382573589e+01 1 1 0
989 0 1 0.0000000000000000e+00 1.3339187787949545e+01 2.9215950674457709e+01 1.1583513356757273e+01 0 0 1
875 0 1 0.0000000000000000e+00 2.1686084285187682e+01 3.3639196772829990e+01 1.5544927889975847e+01 0 0 1
383 0 1 0.0000000000000000e+00 3.1352193031169755e+01 1.8037470319701026e+01 2.4586515119465422e+00 0 0 1
736 0 1 0.0000000000000000e+00 1.9995270192713928e+01 3.8590012404033824e-01 2.5514606940581435e+00 0 1 1
884 0 1 0.0000000000000000e+00 6.7696839298583278e+00 3.4516113082422422e+01 1.6025504696791948e+01 0 -1 0
169 0 1 0.0000000000000000e+00 1.5229476184809119e+01 1.5448586751447177e+01 3.8373029867095094e+00 1 0 0
738 0 1 0.0000000000000000e+00 1.2947992983996327e+01 3.0461588537809753e+01 4.9831409888677500e+00 0 0 0
25 0 1 0.0000000000000000e+00 1.7464602564529754e+00 2.2423510882735609e+01 6.7183349821366747e+00 1 0 0
583 0 1 0.0000000000000000e+00 4.9505811713186230e+00 2.4517668430466564e+01 5.7706555690114723e+00 1 0 0
364 0 1 0.0000000000000000e+00 8.5990984770773817e+00 8.9158209387633729e+00 9.7751263051921349e+00 -1 0 0
3912 0 1 0.0000000000000000e+00 3.5047260329962100e+00 2.5629138976239382e+01 3.2232111780908511e+01 1 0 0
254 0 1 0.0000000000000000e+00 2.0867490382212054e+01 1.3519502130883302e+01 7.8112631642210122e+00 1 -1 1
225 0 1 0.0000000000000000e+00 2.9381368298685686e+01 1.3824314268457496e+00 2.2892211478885578e+00 0 1 0
290 0 1 0.0000000000000000e+00 1.2730219267310357e+01 3.2413701307295163e+01 1.9217155103987533e+01 0 -1 0
117 0 1 0.0000000000000000e+00 2.7654457562779999e+01 6.2657747747896284e+00 6.0276754591425377e+00 0 0 0
484 0 1 0.0000000000000000e+00 1.2531600559163897e+01 2.7775894166930093e+00 7.3089137860926652e+00 0 1 1
304 0 1 0.0000000000000000e+00 2.1890147273544468e+01 3.0106196470508156e+01 1.4722176430570878e+01 0 -1 0
591 0 1 0.0000000000000000e+00 1.4849928203884478e+01 1.6716313299501557e+01 7.4366460869956166e+00 0 1 0
939 0 1 0.0000000000000000e+00 6.4640811601907648e+00 1.2251682219968909e+01 6.2853550952494190e+00 0 0 1
3238 0 1 0.0000000000000000e+00 1.5115231542448648e+00 2.5003049558830499e+00 6.0299393859049566e-01 0 0 0
898 0 1 0.0000000000000000e+00 7.8544811020054146e+00 3.4130407706210029e+01 3.0786061227316303e+01 0 0 -1
16 0 1 0.0000000000000000e+00 4.7965771022136687e+00 1.3868949528245309e+01 3.8005757640400484e+00 0 0 0
3744 0 1 0.0000000000000000e+00 8.8548408649825872e-01 2.6757036242893872e+01 1.5450314551558401e+01 1 0 0
361 0 1 0.0000000000000000e+00 1.4900858775458387e+01 1.3379880470744553e+01 1.2970904875178011e+01 0 0 0
3939 0 1 0.0000000000000000e+00 1.4999508728469232e-01 1.1360187782461416e+01 1.7308422967202169e+01 0 0 1
281 0 1 0.0000000000000000e+00 1.1939443356957000e+01 1.4366781906813321e+01 8.7840481579835430e+00 0 0 1
479 0 1 0.0000000000000000e+00 9.6870091412921848e+00 2.9189004499112844e+01 1.1062084862446927e+01 1 -1 0
424 0 1 0.0000000000000000e+00 2.3857784252554570e+01 1.5512088344118061e+01 9.5944290681633504e+00 -1 0 1
531 0 1 0.0000000000000000e+00 1.9422428796846511e+01 1.3126418848343180e+01 1.1392030662579206e+01 0 0 0
964 0 1 0.0000000000000000e+00 1.7089892100327457e+01 3.7703235282804677e+00 1.0748195830295062e+01 0 0 0
438 0 1 0.0000000000000000e+00 1.0873795453236990e+01 2.1361270980259222e+00 4.0709573899120048e+00 1 0 0
790 0 1 0.0000000000000000e+00 1.7099300819346926e+01 9.9895856614918959e+00 1.3029869137744548e+01 0 1 1
696 0 1 0.0000000000000000e+00 2.5503156319831913e+01 6.5158245676785933e+00 9.1969653829780320e+00 -1 0 0
3375 0 1 0.0000000000000000e+00 1.4814299622220142e+00 2.7254508865677650e+01 1.9172831126455350e+01 0 0 0
513 0 1 0.0000000000000000e+00 3.3003282982120858e+01 2.3073214906502926e+01 2.7966762602713828e+01 0 0 -1
121 0 1 0.0000000000000000e+00 4.0660447136615856e+00 3.6835442049516809e-01 2.0623315222236283e+00 1 0 0
190 0 1 0.0000000000000000e+00 5.2622367671215171e+00 3.1955597004788334e+00 1.7163337939619460e+01 1 1 0
396 0 1 0.0000000000000000e+00 1.1414969733803526e+01 3.3423871547403202e+01 3.0314619782582550e+01 0 -1 0
43 0 1 0.0000000000000000e+00 2.4468010487163472e+01 1.5143574035061512e+01 5.6130216876186916e+00 0 -1 0
712 0 1 0.0000000000000000e+00 1.7912859836497187e+01 1.8195211072081918e+01 1.2784381380444284e+01 1 0 0
261 0 1 0.0000000000000000e+00 2.0954196674581031e+01 8.5365414044088492e+00 6.0945938827261799e+00 1 0 1
993 0 1 0.0000000000000000e+00 1.5740788826219125e+01 1.2772614212666788e+01 9.4770701158345432e+00 0 0 0
550 0 1 0.0000000000000000e+00 3.2354484960557748e+01 2.7152583772107244e+00 3.3404454708033256e+01 1 1 -1
969 0 1 0.0000000000000000e+00 1.9607208448343716e+01 1.2353153797047300e+00 3.3672725071664949e+01 -1 1 0
457 0 1 0.0000000000000000e+00 1.9863816990919281e+00 2.3615262532529076e+01 2.9196117779382817e+01 1 -1 0
509 0 1 0.0000000000000000e+00 1.6852825760521142e+01 1.3014005194267568e+01 1.5918293362393596e+01 0 0 -1
520 0 1 0.0000000000000000e+00 5.5327901135110551e+00 1.7386151708714099e+00 2.9743454811687542e+01 0 1 -1
529 0 1 0.0000000000000000e+00 2.5736647286668440e+01 2.1682741406976049e+00 4.3743771638224773e+00 0 1 0
161 0 1 0.0000000000000000e+00 1.7872532215477889e+01 1.5784394449478999e+01 9.0427989660752601e+00 0 0 0
769 0 1 0.0000000000000000e+00 1.6597745147515653e+01 1.3429748220227243e+01 8.8336747746565428e-02 0 0 1
827 0 1 0.0000000000000000e+00 3.4932290555536243e+00 1.3758006574170468e+01 1.7719476930083552e+01 0 1 0
665 0 1 0.0000000000000000e+00 1.6910127304827011e+01 1.7264258416372893e+01 5.8718038364582137e-01 0 0 0
557 0 1 0.0000000000000000e+00 1.0644079434393678e+01 1.0926690090792484e+01 4.3502342476109863e+00 0 0 0
732 0 1 0.0000000000000000e+00 3.2776397209539283e+01 6.0204678726043399e+00 3.2603267809128553e+01 0 0 -1
485 0 1 0.0000000000000000e+00 7.9638424508037851e+00 9.0594325534294455e+00 5.8329339813186589e+00 0 0 0
482 0 1 0.0000000000000000e+00 2.3886725548898536e+01 4.4077679221076913e+00 1.7161934656833594e+01 0 0 1
641 0 1 0.0000000000000000e+00 2.7550654625113754e+01 1.4058319168781278e+01 3.4899844488875713e+00 0 0 0
112 0 1 0.0000000000000000e+00 1.5665212634146982e+01 1.0562658952951685e+01 6.9676218483932049e+00 0 0 0
402 0 1 0.0000000000000000e+00 2.4416956803334031e+01 5.0444448357578464e+00 4.8666048750919755e+00 0 0 0
577 0 1 0.0000000000000000e+00 5.2793218040775391e+00 7.2085916546066180e+00 1.1752725922395383e+01 0 0 0
535 0 1 0.0000000000000000e+00 6.8445146036063962e+00 1.5262285422731534e+00 9.9008586528444127e+00 0 1 0
116 0 1 0.0000000000000000e+00 1.4226645412997089e+01 8.5786234540870865e+00 1.7830031018162540e+01 0 0 0
817 0 1 0.0000000000000000e+00 1.9741570267233051e+01 4.4802595337012114e+00 5.2751726175486358e+00 0 1 1
766 0 1 0.0000000000000000e+00 1.9650672629827156e+01 1.1695720990204045e+01 1.4849894833136723e+01 0 1 0
21 0 1 0.0000000000000000e+00 9.3274625507818616e+00 8.1950923159071625e+00 1.7875396364864595e+00 0 1 0
410 0 1 0.0000000000000000e+00 4.2401606227327742e+00 9.5215754435469986e+00 5.5493211819022950e+00 -1 0 1
19 0 1 0.0000000000000000e+00 9.3774272532703584e+00 1.4882696114937309e+01 5.9110898393261007e+00 0 0 0
411 0 1 0.0000000000000000e+00 1.9699767643116608e+01 2.2532011922754162e+01 7.9050445282504924e+00 0 0 1
702 0 1 0.0000000000000000e+00 3.1821824027432676e+01 7.5313073773081773e-01 3.0917412859750780e+01 0 1 0
944 0 1 0.0000000000000000e+00 3.1213962650570519e+01 3.2682183259341777e+01 3.9738452390361116e+00 0 0 1
727 0 1 0.0000000000000000e+00 1.7828496068208739e+01 1.4956382510077630e+01 1.3386993573287743e+01 -1 1 0
3158 0 1 0.0000000000000000e+00 3.8816978801776936e-01 1.3805215385932627e+01 2.4277258864112596e+01 0 0 -1
1378 0 1 0.0000000000000000e+00 2.9845919580048825e+01 1.7566999454632551e+01 2.0334277216277794e+01 0 0 0
59 0 1 0.0000000000000000e+00 2.1535186724777944e+01 2.9993489408446656e+01 6.1782678445936474e+00 0 -1 0
661 0 1 0.0000000000000000e+00 8.7538337591431397e+00 1.8869048198228125e+01 4.1871957848743522e+00 0 0 1
747 0 1 0.0000000000000000e+00 1.8611824932369370e+01 1.1273097708685638e+01 4.9724902712540366e+00 0 1 0
925 0 1 0.0000000000000000e+00 1.5532024786823790e+01 8.4118103105208988e+00 1.0014922528488334e+01 0 0 1
111 0 1 0.0000000000000000e+00 6.2237310231642962e+00 5.6592041509198143e+00 3.2953123303900924e+01 0 0 -1
234 0 1 0.0000000000000000e+00 7.5046743292188003e+00 3.0927073153128752e+01 1.7188303881399520e+01 0 -1 -1
978 0 1 0.0000000000000000e+00 6.0665343724958678e+00 1.9258353840910225e+01 1.8432384730179538e+00 0 1 1
13 0 1 0.0000000000000000e+00 8.7848610660748161e+00 7.8055204161204106e+00 1.2792439429156266e+01 0 0 0
563 0 1 0.0000000000000000e+00 1.8447697940871631e+01 6.4149938211504498e+00 8.3431400191969445e+00 0 0 0
948 0 1 0.0000000000000000e+00 2.0795223499421130e+01 2.0040928761159819e+01 1.0385960389498930e+01 0 0 0
778 0 1 0.0000000000000000e+00 2.5304120176133601e+01 9.0382620919724417e+00 6.6503519266826325e+00 -1 0 0
500 0 1 0.0000000000000000e+00 2.4189240897167970e+01 7.2542358824616837e+00 1.9272813278006847e+01 0 0 0
982 0 1 0.0000000000000000e+00 2.3057488996227256e+01 2.2830826706390454e+01 5.8036890290212551e+00 0 0 1
3365 0 1 0.0000000000000000e+00 1.8402500726099877e+00 4.9575003914017595e+00 1.7726306981260365e+01 0 0 0
985 0 1 0.0000000000000000e+00 2.6466157282679362e+01 3.3778959360703089e+00 4.2549587731940147e-01 0 1 1
503 0 1 0.0000000000000000e+00 1.2151821195239805e+01 8.2602003837499165e+00 1.1884608836852806e+01 0 0 0
461 0 1 0.0000000000000000e+00 3.1572205725077387e+00 1.3297859907923851e+01 1.0682136870397215e+01 1 0 0
677 0 1 0.0000000000000000e+00 1.1789374031431468e+00 1.0009281977635949e+01 9.1138019275496838e+00 0 0 0
556 0 1 0.0000000000000000e+00 2.2621257981859241e+01 2.0395936709873816e+00 5.9245794180404134e+00 0 1 0
3458 0 1 0.0000000000000000e+00 1.9725045465075031e+00 7.8825657595605669e+00 3.0202777329012470e+01 1 0 0
267 0 1 0.0000000000000000e+00 2.3492864043268259e+01 2.7548817069525118e+00 3.2928154089232613e+01 1 0 0
533 0 1 0.0000000000000000e+00 1.9112753406363261e+01 2.2315813733880084e+01 2.7615159065335789e+01 0 0 -1
469 0 1 0.0000000000000000e+00 2.3941167187407171e+00 2.0345775232961497e+01 2.8294953004348038e+01 1 -1 0
607 0 1 0.0000000000000000e+00 8.7391702072351691e+00 3.3290332856029590e+00 7.0565217887422289e+00 0 1 0
252 0 1 0.0000000000000000e+00 2.2795720659965411e+01 1.0863398258018449e+01 1.5950482950288649e+01 -1 0 0
202 0 1 0.0000000000000000e+00 5.7171947868822439e+00 8.9681227470864560e+00 1.5037162115902944e+01 0 0 0
707 0 1 0.0000000000000000e+00 7.0396926223932477e+00 3.4291934348238179e+01 6.9265153217992959e+00 0 0 0
48 0 1 0.0000000000000000e+00 7.6523513011822752e-01 2.9365244123894605e+01 6.7948435050645264e+00 0 -1 0
393 0 1 0.0000000000000000e+00 3.4293107974780019e+00 2.8117830390718787e+01 4.0375409865456167e+00 0 -1 1
99 0 1 0.0000000000000000e+00 1.6781116102336362e+01 3.2965760523778883e+01 6.5238435604580554e+00 0 -1 0
175 0 1 0.0000000000000000e+00 2.1671877787791363e+01 2.5363065015224402e+00 1.5290267665475035e+01 0 -1 0
548 0 1 0.0000000000000000e+00 1.8549452927918736e+01 6.7982517296516631e+00 2.0134539993839390e+01 0 1 0
32 0 1 0.0000000000000000e+00 3.8935074769739728e+00 4.0999982265547574e+00 1.0562460436810012e+01 1 0 0
639 0 1 0.0000000000000000e+00 5.9261797076837714e+00 2.7894360767065535e+01 1.0918873019975740e+01 1 0 0
656 0 1 0.0000000000000000e+00 2.0715288274367321e+01 1.6516408855853243e+01 1.1061384232519728e+01 0 1 0
33 0 1 0.0000000000000000e+00 2.1316536571254801e+01 1.4374627941290658e+01 4.5886174944408742e+00 0 -1 0
260 0 1 0.0000000000000000e+00 3.5038879491075545e+00 7.8790357836459368e-01 8.6131470098626863e+00 0 0 0
142 0 1 0.0000000000000000e+00 2.2436014141511134e+01 1.4969839579410412e+01 3.4455930625235439e+01 -1 0 0
3337 0 1 0.0000000000000000e+00 2.1316676097070997e+00 8.6971236732986057e+00 1.6133726718610362e+01 0 0 0
12 0 1 0.0000000000000000e+00 3.2683462475457603e+01 1.1940705965077958e+01 1.5893988505079761e+01 -1 0 0
4012 0 1 0.0000000000000000e+00 6.3367347115002559e+00 2.7964277915875389e+01 3.0807653043405001e+01 1 0 0
314 0 1 0.0000000000000000e+00 4.0054020570170890e+00 6.1921913321995623e+00 5.1287891176373135e+00 1 0 1
233 0 1 0.0000000000000000e+00 1.0129987498210429e+01 1.9030767104766031e+01 1.6029831489119974e+01 1 0 0
644 0 1 0.0000000000000000e+00 1.9754316463193238e+01 2.4338502202869311e+01 1.1107161815799637e+01 0 0 0
1026 0 1 0.0000000000000000e+00 3.3073673918752981e+01 3.4182015234387677e+01 1.0482495320063816e+00 0 -1 0
241 0 1 0.0000000000000000e+00 1.8693218603348196e+01 2.3921164427332268e+01 1.0772437047125061e+00 1 0 0
627 0 1 0.0000000000000000e+00 1.9097859652665729e+01 1.9848146379924156e+01 2.0569282164547591e+00 0 0 0
539 0 1 0.0000000000000000e+00 9.9084860938020947e-01 2.3331168637288069e+01 1.4826585473489981e+01 0 0 0
690 0 1 0.0000000000000000e+00 1.8050413586215274e+01 3.4318383987651067e+00 2.6183104695699564e+00 0 0 0
289 0 1 0.0000000000000000e+00 1.5951240629320834e+01 1.6156561191632587e+01 1.6699300048749667e+01 0 0 1
230 0 1 0.0000000000000000e+00 6.8216563262937004e+00 6.1911912542858207e+00 8.1515256745689637e+00 1 0 0
1 0 1 0.0000000000000000e+00 1.8160371067291596e+01 2.7475802909092710e+01 6.9594951583791431e-01 0 0 0
849 0 1 0.0000000000000000e+00 3.1646987218486309e+01 3.3625639072675732e+01 6.8890070168739426e+00 0 0 1
602 0 1 0.0000000000000000e+00 1.7821568671787301e+01 2.8961542589425388e+01 1.0265537814389745e+01 0 0 -1
528 0 1 0.0000000000000000e+00 1.4013881808356741e+01 5.8171525167848299e-02 8.7625046091978120e+00 0 0 0
285 0 1 0.0000000000000000e+00 1.3983965114223766e+01 2.4393023087023447e+01 5.5365016348419989e+00 0 -1 1
634 0 1 0.0000000000000000e+00 7.5069348414796044e-01 1.8239934032253953e+00 2.0338902101492099e+01 0 1 0
815 0 1 0.0000000000000000e+00 1.7586195329861361e+01 2.2202723059463533e+01 1.7913475621626077e+01 0 0 -1
132 0 1 0.0000000000000000e+00 4.0304032218261927e+00 3.1265630636711755e+01 1.7656227148457040e+00 0 0 0
288 0 1 0.0000000000000000e+00 2.2588950927186353e+01 2.2154348724813325e+01 1.3123459487252008e+01 0 -1 1
237 0 1 0.0000000000000000e+00 1.6784038657819291e+01 3.3125845119478377e+01 1.8808490091905380e+01 0 -1 0
723 0 1 0.0000000000000000e+00 5.9257157714389699e+00 2.1732724818631976e+01 3.3952070627447490e+01 0 0 -1
435 0 1 0.0000000000000000e+00 2.9104294846679199e+01 2.7355284539892899e+01 1.9331589514548753e+01 0 -1 0
3500 0 1 0.0000000000000000e+00 4.4746993817150251e+00 2.6901735362753040e+01 2.6679835109142939e+01 1 0 0
936 0 1 0.0000000000000000e+00 1.0984072264804070e+01 2.5895749335402851e+01 8.6975909809435397e+00 1 0 1
325 0 1 0.0000000000000000e+00 2.4734339297533769e+01 2.3696986354607503e+01 2.0039394433736896e-01 0 0 1
70 0 1 0.0000000000000000e+00 8.3198330104478266e+00 2.7477430105121204e+01 7.5698993474959062e+00 1 -1 0
930 0 1 0.0000000000000000e+00 1.5058021854150876e+01 1.5432423429623428e+00 2.1669860864563808e+00 0 1 1
1265 0 1 0.0000000000000000e+00 3.4445968199395047e+01 1.6348438237561609e+01 1.1857663065671813e+01 0 0 0
868 0 1 0.0000000000000000e+00 1.5741942967571637e+01 2.2236979046729193e+01 2.7150262308036637e+00 0 0 1
178 0 1 0.0000000000000000e+00 6.4262156357929934e+00 3.1504854163534826e+01 1.2851891365235049e+01 1 -1 0
1018 0 1 0.0000000000000000e+00 2.3549908747389445e+01 2.6730868341638601e+01 6.2300984594337638e+00 0 0 1
464 0 1 0.0000000000000000e+00 2.5572107655662936e+01 2.2878574632140779e+01 2.9982142274405145e+01 0 0 0
992 0 1 0.0000000000000000e+00 2.1070231222374442e+01 2.5598155418836591e+01 8.1277307875421219e+00 0 0 0
739 0 1 0.0000000000000000e+00 2.3937568912382027e+01 1.8596464806826571e+01 1.2120458916829802e+01 -1 0 0
681 0 1 0.0000000000000000e+00 3.9312982738759135e+00 2.4442038214808154e+01 9.0239584427628579e+00 0 0 0
3573 0 1 0.0000000000000000e+00 3.4226248383135252e+00 1.0139448110572278e+01 2.0355101183374622e+01 1 0 1