LAMMPS data file in real units via oxdna lj2real.py, date 2024-05-19

148 atoms
4 atom types
148 bonds
1 bond types
148 ellipsoids

0 851 xlo xhi
0 851 ylo yhi
0 851 zlo zhi

Masses

1 315.8376
2 315.8376
3 315.8376
4 315.8376

Atoms # hybrid

1 1 208.31885120063512 209.07830059400624 213.0216021921939 1 1 1.0016462505133576 0 0 0
2 4 208.94483576838627 206.4448010919165 216.6882923344523 1 1 1.0016462505133576 0 0 0
3 3 211.56385346871699 204.30406864289688 220.11920728875927 1 1 1.0016462505133576 0 0 0
4 2 214.31495335572012 204.35063728809808 223.61677544780568 1 1 1.0016462505133576 0 0 0
5 1 217.30951997235965 206.16090626093134 225.4674912137906 1 1 1.0016462505133576 0 0 0
6 2 219.30502197188136 209.00909667501074 227.49674701236893 1 1 1.0016462505133576 0 0 0
7 3 219.83292281044646 212.19753274141107 230.53026977239148 1 1 1.0016462505133576 0 0 0
8 2 218.93091557749156 214.31473141418766 234.6931272540053 1 1 1.0016462505133576 0 0 0
9 4 220.32518751145957 214.85183803522298 239.6469648355356 1 1 1.0016462505133576 0 0 0
10 2 219.79275827382872 213.3404053532149 243.70006386710043 1 1 1.0016462505133576 0 0 0
11 3 220.70928151349608 210.21381004200654 247.14815553587854 1 1 1.0016462505133576 0 0 0
12 2 223.67193733154724 208.04535577836813 249.67978988879284 1 1 1.0016462505133576 0 0 0
13 2 227.31016552169513 206.16686658451448 251.61597827076264 1 1 1.0016462505133576 0 0 0
14 1 231.80592101718645 204.9336536048614 251.53105173903185 1 1 1.0016462505133576 0 0 0
15 2 236.2250804923752 205.47987477011685 250.98539881261863 1 1 1.0016462505133576 0 0 0
16 3 240.0068773257833 207.77004331975903 249.53594241966383 1 1 1.0016462505133576 0 0 0
17 1 242.98566065658693 210.5462682234126 249.63496548893542 1 1 1.0016462505133576 0 0 0
18 4 245.42888445426894 214.27953740691964 250.53493716205472 1 1 1.0016462505133576 0 0 0
19 2 248.78751685377597 216.90541434653767 253.53160552044426 1 1 1.0016462505133576 0 0 0
20 4 251.39963359406735 218.16175894319667 257.62870661099066 1 1 1.0016462505133576 0 0 0
21 2 255.5677235249031 217.61926364274564 260.07819570237643 1 1 1.0016462505133576 0 0 0
22 3 259.63024332567574 215.18262726567113 260.69715353283686 1 1 1.0016462505133576 0 0 0
23 1 263.1457867599882 212.6433935962059 258.9487935453862 1 1 1.0016462505133576 0 0 0
24 1 266.3827446371434 210.87213953618837 256.26055100860737 1 1 1.0016462505133576 0 0 0
25 2 267.97463902393866 210.20760693366043 251.4251108047254 1 1 1.0016462505133576 0 0 0
26 3 270.07811694250654 210.90888555541903 247.7392596432837 1 1 1.0016462505133576 0 0 0
27 1 271.09287437447114 213.11656552311496 244.5712139335691 1 1 1.0016462505133576 0 0 0
28 4 272.8644901379567 216.09853596389848 242.34668607897146 1 1 1.0016462505133576 0 0 0
29 3 277.14925724680575 218.15361661850437 241.02448320337692 1 1 1.0016462505133576 0 0 0
30 2 281.6281862385014 219.54423347807102 240.83577460409623 1 1 1.0016462505133576 0 0 0
31 4 285.53553117381364 218.07611082158127 239.4456849189117 1 1 1.0016462505133576 0 0 0
32 2 288.8938226529956 215.3666526766779 237.57548982559325 1 1 1.0016462505133576 0 0 0
33 1 291.12514756370877 212.98912935663924 233.8324040870632 1 1 1.0016462505133576 0 0 0
34 4 291.3890795510732 210.45844522291486 230.3986316964525 1 1 1.0016462505133576 0 0 0
35 2 290.3105820760069 208.74036664050792 226.7042745336879 1 1 1.0016462505133576 0 0 0
36 4 289.18201447621146 208.91363527052587 222.89820557251684 1 1 1.0016462505133576 0 0 0
37 2 288.971153902218 209.4805264669763 218.28666756836168 1 1 1.0016462505133576 0 0 0
38 4 288.3534988328343 212.6173536934077 215.1661607036478 1 1 1.0016462505133576 0 0 0
39 3 290.5684723991064 215.9608847032356 212.4583306861778 1 1 1.0016462505133576 0 0 0
40 1 292.68130870382674 219.40449003374115 209.55910765683777 1 1 1.0016462505133576 0 0 0
41 4 295.442338041982 219.36246849520484 206.48916887364152 1 1 1.0016462505133576 0 0 0
42 2 296.36417522086 218.26244483114334 201.69379456148616 1 1 1.0016462505133576 0 0 0
43 1 296.0323698080443 215.8225532800091 197.3280985778793 1 1 1.0016462505133576 0 0 0
44 4 294.6530843322007 212.83142447716733 193.82965995050543 1 1 1.0016462505133576 0 0 0
45 4 293.09410894134015 209.80599344824577 192.16605946359905 1 1 1.0016462505133576 0 0 0
46 2 288.83490978178446 208.30134671602775 191.4877951864582 1 1 1.0016462505133576 0 0 0
47 3 284.41597526830526 208.24835045301987 190.80522332231112 1 1 1.0016462505133576 0 0 0
48 3 280.435589003895 210.25289346065463 190.2013738364397 1 1 1.0016462505133576 0 0 0
49 1 276.458218418495 212.91127251248324 189.31964814095224 1 1 1.0016462505133576 0 0 0
50 4 274.110573437327 215.08405186209467 186.3098121169227 1 1 1.0016462505133576 0 0 0
51 2 272.2617942946457 216.3726311673256 182.27450679276578 1 1 1.0016462505133576 0 0 0
52 2 269.83153994135154 216.05780869626503 177.8206876525648 1 1 1.0016462505133576 0 0 0
53 3 267.4176400816519 213.93217536542784 174.3937134479138 1 1 1.0016462505133576 0 0 0
54 2 263.3829580061682 212.17957495128988 172.47054426846077 1 1 1.0016462505133576 0 0 0
55 2 259.23622219283226 208.62789572578382 172.79202606983338 1 1 1.0016462505133576 0 0 0
56 1 254.9232399751811 207.98723446147798 174.1700423374239 1 1 1.0016462505133576 0 0 0
57 1 251.01429470107985 207.4727826811597 176.6191860923174 1 1 1.0016462505133576 0 0 0
58 4 247.503087519173 208.84937318781766 178.95270962305977 1 1 1.0016462505133576 0 0 0
59 3 244.61228396290568 211.4487115261513 181.15392286257216 1 1 1.0016462505133576 0 0 0
60 2 242.5582847227905 215.2537157253442 181.8226233142989 1 1 1.0016462505133576 0 0 0
61 3 239.6649079158646 218.62799057023 180.73365427978584 1 1 1.0016462505133576 0 0 0
62 2 235.1055006856569 219.4991097490642 179.19993338536528 1 1 1.0016462505133576 0 0 0
63 2 230.06536838356837 218.20707751777684 178.12542542954407 1 1 1.0016462505133576 0 0 0
64 1 226.19712505087438 216.01242228173862 178.66827050301285 1 1 1.0016462505133576 0 0 0
65 4 223.80183977746594 212.48637324492603 181.4677574683601 1 1 1.0016462505133576 0 0 0
66 2 223.35826983209282 209.42164303546804 184.31154729173656 1 1 1.0016462505133576 0 0 0
67 4 223.115707961134 207.64116343000455 187.8227276328026 1 1 1.0016462505133576 0 0 0
68 3 223.1828783897832 207.2041863918756 192.56176469772987 1 1 1.0016462505133576 0 0 0
69 4 222.9562562898953 209.33623615586666 196.6941257026712 1 1 1.0016462505133576 0 0 0
70 2 221.66690235711982 212.16853654386955 200.42093434949206 1 1 1.0016462505133576 0 0 0
71 3 218.49749796817483 214.58613674743094 202.99887088045244 1 1 1.0016462505133576 0 0 0
72 2 214.79843871210093 215.83998598169165 204.93838976343113 1 1 1.0016462505133576 0 0 0
73 3 211.43258956470967 215.7076069451841 207.4075522992357 1 1 1.0016462505133576 0 0 0
74 2 208.89304193837674 212.96791745700727 209.88970503949264 1 1 1.0016462505133576 0 0 0
75 3 218.04384080398626 208.8517661220443 212.25851740130685 2 1 1.0016462505133576 0 0 0
76 2 216.5892197279808 206.99598258539012 208.2068688237662 2 1 1.0016462505133576 0 0 0
77 3 213.50296493867867 205.91838818342708 204.7824350973285 2 1 1.0016462505133576 0 0 0
78 2 212.40344730057544 207.07794779056923 200.15488529641686 2 1 1.0016462505133576 0 0 0
79 3 212.49899284410188 209.585331832834 196.59639195093382 2 1 1.0016462505133576 0 0 0
80 1 213.8718296204717 212.43788517712443 194.07978733684686 2 1 1.0016462505133576 0 0 0
81 2 217.77995345895644 215.8195741549278 192.62165385854775 2 1 1.0016462505133576 0 0 0
82 1 221.28004012766087 217.1654248225849 190.47251220533374 2 1 1.0016462505133576 0 0 0
83 3 225.8620451555664 217.7952321162026 189.70184485639834 2 1 1.0016462505133576 0 0 0
84 1 229.11796505110405 216.62355134353226 188.55566261486354 2 1 1.0016462505133576 0 0 0
85 4 231.93009597179287 213.28552897804775 187.18308633796394 2 1 1.0016462505133576 0 0 0
86 3 233.8457023652249 210.92567784153482 183.76710295197495 2 1 1.0016462505133576 0 0 0
87 3 235.10900957816648 209.21540627355986 179.91110079537762 2 1 1.0016462505133576 0 0 0
88 2 237.54221305824186 209.88061882623805 175.87474946957948 2 1 1.0016462505133576 0 0 0
89 3 240.73227695628347 211.91788237876028 172.5923540320211 2 1 1.0016462505133576 0 0 0
90 2 244.20465175243865 215.00793672836622 171.518087640663 2 1 1.0016462505133576 0 0 0
91 1 248.409983413366 216.8790144672266 172.84039701116973 2 1 1.0016462505133576 0 0 0
92 4 252.3613185226405 217.80167017847748 174.7982475734568 2 1 1.0016462505133576 0 0 0
93 4 255.03798994310935 216.90557703947596 178.41643036458865 2 1 1.0016462505133576 0 0 0
94 3 258.0123600922758 214.0688621082654 181.3748252106654 2 1 1.0016462505133576 0 0 0
95 3 261.4793208403472 211.18651636405338 182.10154093744066 2 1 1.0016462505133576 0 0 0
96 2 264.61342330509945 208.4069633573196 182.13340389630036 2 1 1.0016462505133576 0 0 0
97 3 268.1423255602099 206.43410772886958 180.6438100024248 2 1 1.0016462505133576 0 0 0
98 3 272.6968293511453 206.12748243877718 180.10513377562995 2 1 1.0016462505133576 0 0 0
99 1 277.10377489948667 208.1005328826892 179.3644456424518 2 1 1.0016462505133576 0 0 0
100 4 281.00559845205873 211.06408209877605 180.10786289756504 2 1 1.0016462505133576 0 0 0
101 2 284.60417782769156 214.3962696861514 181.99641804441617 2 1 1.0016462505133576 0 0 0
102 2 286.60418124482914 216.5009851375199 185.7625155225522 2 1 1.0016462505133576 0 0 0
103 3 287.3342876501778 217.90577178570192 189.82320249461165 2 1 1.0016462505133576 0 0 0
104 1 287.1580072830518 218.24647026624564 194.54524399609593 2 1 1.0016462505133576 0 0 0
105 1 285.97555699942546 216.4030183962319 198.00226153513316 2 1 1.0016462505133576 0 0 0
106 4 286.9784674182509 213.80941634861662 200.984054131366 2 1 1.0016462505133576 0 0 0
107 3 289.7070250162039 211.13118523574875 203.5459670820893 2 1 1.0016462505133576 0 0 0
108 1 293.7348288391273 209.76614933968972 205.9159671580589 2 1 1.0016462505133576 0 0 0
109 4 298.0470912443835 210.3476646132807 209.22602515661964 2 1 1.0016462505133576 0 0 0
110 2 299.3727498239561 211.18882961507936 213.32359581947546 2 1 1.0016462505133576 0 0 0
111 1 298.71438019179976 213.36502754336712 217.80809292107566 2 1 1.0016462505133576 0 0 0
112 3 297.5778290486891 215.80813084505792 221.52375033983938 2 1 1.0016462505133576 0 0 0
113 1 293.84181972000164 218.12459328726527 222.52194563573968 2 1 1.0016462505133576 0 0 0
114 3 289.72480591547844 219.18763960036753 224.20582823532217 2 1 1.0016462505133576 0 0 0
115 1 286.10060227835305 218.2366927723458 227.3329804786708 2 1 1.0016462505133576 0 0 0
116 4 282.4274439426548 215.8348128129646 228.50667608915776 2 1 1.0016462505133576 0 0 0
117 3 280.30736615533436 212.87615928361103 231.93191134907437 2 1 1.0016462505133576 0 0 0
118 1 280.4957715892933 209.81978142604717 235.78978894134258 2 1 1.0016462505133576 0 0 0
119 3 281.1124372652675 209.1630066603096 240.4037199441234 2 1 1.0016462505133576 0 0 0
120 2 280.6004552189253 209.5904328052497 245.12986147761828 2 1 1.0016462505133576 0 0 0
121 1 279.7088300157109 212.49871921998974 249.6398422165285 2 1 1.0016462505133576 0 0 0
122 4 277.5145094311825 215.74407956221037 251.87908394986235 2 1 1.0016462505133576 0 0 0
123 2 274.0292663881701 218.98094440600102 252.4720990110135 2 1 1.0016462505133576 0 0 0
124 3 269.4802808363886 220.3779076053549 252.2846885821039 2 1 1.0016462505133576 0 0 0
125 4 265.18702541695495 219.66875534535617 251.05221442068142 2 1 1.0016462505133576 0 0 0
126 4 261.1973441761709 217.60856802642994 250.32297289687062 2 1 1.0016462505133576 0 0 0
127 2 258.42965815651195 214.5285058619342 250.70264078825883 2 1 1.0016462505133576 0 0 0
128 3 257.40131364348747 210.82918968859514 252.82205800210747 2 1 1.0016462505133576 0 0 0
129 1 254.09665907944853 208.48587191866105 255.29832851571967 2 1 1.0016462505133576 0 0 0
130 3 249.14711800822565 207.4790641809653 257.14454107837594 2 1 1.0016462505133576 0 0 0
131 1 245.16232229032394 208.6542795519212 259.30366719951866 2 1 1.0016462505133576 0 0 0
132 4 241.6088192401875 210.27052783917878 259.77711048596495 2 1 1.0016462505133576 0 0 0
133 2 237.60579348133834 211.5677601936723 258.4967443170624 2 1 1.0016462505133576 0 0 0
134 3 234.31563856213194 213.7023345421011 256.67498877187217 2 1 1.0016462505133576 0 0 0
135 4 232.04178676973854 215.2247580978991 252.4887135012261 2 1 1.0016462505133576 0 0 0
136 3 231.84989854624848 214.78206092351417 248.38409354076154 2 1 1.0016462505133576 0 0 0
137 3 230.23584615132918 213.90825105541285 244.25659773796446 2 1 1.0016462505133576 0 0 0
138 2 228.72514438427442 210.55975546279873 240.93389432997455 2 1 1.0016462505133576 0 0 0
139 3 226.50901828126607 207.7720868061071 238.77244759668554 2 1 1.0016462505133576 0 0 0
140 1 222.69524184571324 205.4563710695796 237.54896302353555 2 1 1.0016462505133576 0 0 0
141 3 217.75254577305915 204.6697036863105 236.7300149978949 2 1 1.0016462505133576 0 0 0
142 2 213.36264669166687 205.6664161637754 235.057769544392 2 1 1.0016462505133576 0 0 0
143 3 210.36056196219099 208.22961038909222 233.43624218141468 2 1 1.0016462505133576 0 0 0
144 4 209.52101940489996 211.7474752490511 229.6093465145509 2 1 1.0016462505133576 0 0 0
145 3 210.0346178174762 213.46103317355895 225.4432866022292 2 1 1.0016462505133576 0 0 0
146 2 212.1036301773736 214.37817428934144 222.09240510601887 2 1 1.0016462505133576 0 0 0
147 1 214.8007196331168 213.86842062768343 219.12311053490302 2 1 1.0016462505133576 0 0 0
148 4 217.11029191388695 212.18186978209044 215.47812529247457 2 1 1.0016462505133576 0 0 0

Velocities

1 0.00041441960428137935 -0.00044093526915074335 -0.0002769004051949902 0.4671811380872407 -0.45316000711452054 0.030147401411566938
2 -0.0007883200593843776 0.0002582267767411247 -0.00015788826223433837 -0.9981841013239229 0.9031525891258723 -0.4463027445462194
3 -0.00032890342226527046 0.00021454292082771174 0.0006588673608947611 1.6856487176959336 0.15828183663773915 -0.2816792383591273
4 0.0006226412184223278 -0.0004819430644898339 0.0011543818273686507 0.771113570326925 0.9667209836529702 0.5390145490152992
5 0.0008444214308690865 0.0006267645341900317 0.0009246638392575237 -0.9987251151971048 0.3864646803189593 -0.7699530964442148
6 0.0009763171425943993 -0.0003909887231919038 -0.0009121871394260499 0.7366273192130102 -1.0054394417185868 0.7471606181669701
7 -0.0003964811445218345 -0.0004173285602521412 -0.0007056214158470973 0.06052108734325723 -0.29784593755108146 0.7316972423378784
8 3.7047285926338676e-05 -0.0002720689524084308 -0.00034613908102107556 0.20653978207022358 -0.5600630808371041 -0.7544747714740252
9 -0.0007009303824597543 0.001556981461008396 0.0012173625702768208 -0.3788471824273982 0.42127744223658237 0.706230160987193
10 -0.0015981160984836474 0.0004624234429405509 0.000633042527195227 0.9137264942274623 -0.0097229359145721 -1.5620769285620402
11 -0.0006131679864152933 -0.0002837317754898309 -0.000596160114576507 -0.16060842579146267 -1.4682292580341976 1.662901421705255
12 0.0014114099463271759 0.0013414818109726508 -0.0003789171466630028 0.2592330791173297 0.829986229089849 0.9413867863151553
13 0.0007570391002086509 0.0008025872372338182 -7.972953403202178e-05 -0.17099323265046504 0.003517188802442484 0.5961537792303933
14 -0.00046259381441702234 -0.00090135523551774 -0.00025506367753356103 -0.8790499857371116 0.6176988758143042 0.05832877360454661
15 0.0017736622371445178 -0.00021639401439837712 0.0010865438562664787 -0.13139209450799721 0.8624674720612805 -0.011036817907692937
16 9.079351638896072e-05 0.0006800971201785199 -0.00046628761539115553 0.7977461182616878 0.8586300458614435 0.5367785839788761
17 0.0003320853011294431 4.9782060934935786e-05 -0.0010221421644623877 -0.6443212440432361 -0.11357760375273049 0.850108891065061
18 -0.001273799512678254 0.0011802538929646376 0.00034715679420532845 1.148914164227578 -0.5610176349462389 0.5244301492446057
19 -0.0020462501335023037 -0.0008081103285391302 0.0004315854879938803 -1.089683852796499 -0.32463478354041436 -0.7265732502745839
20 -8.915796710513424e-05 0.00038580427801161824 -0.00046526527667176273 0.9097166769703294 0.5738252017630338 -1.29062344651377
21 0.001415496055715896 0.0004065686658735653 -0.00010989062666979347 -1.1571187373784757 0.023561693505977636 -0.2263304187071502
22 -0.0008503530592149795 2.8074460028882493e-05 0.00198633110988951 -0.4436460810940315 0.7384999777235214 1.558875871313546
23 0.001213257612781923 0.0006312085806837118 0.00029437342449475603 0.6298784491419476 2.0523178203868553 -0.6191528692800492
24 -0.0002744446284938336 -0.0011191784233664152 -0.000707033966844946 -0.09130366470337603 0.6760929751938499 1.0349559780864541
25 0.0009651532852808743 -0.0011155857115756785 0.0007545732220657096 -1.2532487137150916 0.3253456368605829 -0.5895446662565031
26 0.0013519355559207951 -0.0003602465335484942 4.0583375777164296e-05 0.3822696974424084 0.08729032133339974 0.41452369513711473
27 -0.001665301320612367 -0.0007705885202069591 0.0005018578609282953 1.1334536456402204 1.9176030539077622 0.10183970014017323
28 0.001737706168775158 8.21782568605148e-06 -0.0008049720960126812 -0.7476612511274086 2.2303524147696283 -1.0960603548956669
29 0.001183967869191855 0.0007794707767112501 0.0011572550877270184 -0.8726708311148604 1.0159045767027794 -0.418256497806968
30 0.00022506137173594954 0.0007997074716567607 -0.0007511442272268112 0.8112527327298255 -0.05903807219870134 0.623173366659473
31 -0.0008847110697388197 -0.0003554831779230716 -0.0009329868015323094 0.5545451516333009 -0.29871375676152245 0.0890228395420963
32 -0.0011265435872626274 0.00039619848780672557 -0.0012459482196480228 1.4457577029507602 -0.06889896003288522 -0.22324642105659825
33 0.00023845768588633132 0.00044987471851870743 9.299879812422249e-06 0.7170427987947958 0.4983890283165274 0.4217807571946686
34 8.32516030278601e-05 0.00021623128235669596 0.00028842186460696786 -0.7259246562112577 0.5751658269069845 -0.3694177872395038
35 -0.00041861134337793226 -0.00020890877766567396 -0.0003835693263263161 -0.04356698055332095 0.4829754783161558 -0.7868946492403924
36 -0.0021310793657824626 0.0005296179189949723 -1.836376297756258e-05 -1.6518357943020405 1.1542189579552737 -0.8600083978480586
37 0.00034819323635394933 0.0005277328535131145 -0.0007890234683185679 0.06901830182094872 -1.0710751951395068 -0.9003668790915229
38 -0.0004306890871425647 0.0007084036672237173 5.4006247807143286e-05 -0.29670175877751875 0.9535854791259951 1.3068905353981062
39 -0.00032734838061953083 5.4267842460482285e-06 0.00035178461613378674 0.4482978794046991 0.2585368302398761 -1.4948626345393037
40 0.000425960963436888 0.0004866264349846475 -0.00032754331069256257 1.354357422327269 -1.7371693097824732 -0.5387472817872587
41 -0.00031121156230807574 -0.000557408138619122 0.0004581712062516314 -0.2462511006049055 0.754914814110346 1.5214208316099158
42 0.0006138294415283338 -0.001475734146105284 0.0006932832392585454 -0.4279126916663162 0.31475284637140866 0.4947719379913577
43 -0.00032901346057991044 0.002088241897437943 4.007591827893774e-06 0.8310167656169738 -2.0323789115861537 1.0346001003326915
44 -0.00037100941050768806 -0.0006450300422373223 -0.000991826582086897 1.677913872230059 1.0355469382794293 -1.3207502139903968
45 -0.0014015731274973644 -0.0012218924243723739 -0.00038363514183312886 0.21441712996148996 1.0043730062590748 -0.21165269663622438
46 -0.0004431983077692244 0.0002428406842882312 -0.0006968537750801398 0.019488989787254087 0.5074153748008283 0.32784234392500033
47 0.0002539699490763818 0.00013063672010696437 -0.0005621326124479586 1.1289132857339166 -0.4336732389495026 -1.4418229599456827
48 0.0004898689039600226 0.0007527815950569443 0.00017691726070110023 -0.04005858674195536 -0.3740447543467191 -1.5655401179647614
49 0.0001564078262564333 0.0013899183819377587 0.002136610172630379 -0.889719403762743 -0.2599617169154644 0.1451237505291117
50 0.0010371837267272566 -0.00035833149145438357 -0.0003714320448076416 0.29638519543410047 -0.3977494984303205 -0.6105638314847442
51 0.0009820602635995975 0.0007300099198006708 0.0001445457759367302 -0.7729541689963864 0.23499445513191905 -0.4948714964687896
52 -0.0005457475822861008 -0.0006139596879639669 0.0001276859480116569 -1.2819675747397143 -0.9022146501313074 0.5188110087927617
53 -0.0013460292907985106 -0.0006045929031479083 0.0009730685711565265 -0.5604204014611567 0.6294902790250949 0.30894138636009333
54 0.0016274959548552353 -0.00034228237517440935 -0.00033120130942141594 0.8479051878078213 1.2771867984242118 0.52164182542914
55 -0.0004834266647931496 -0.00020468767210863722 0.0005357651280403127 0.5748160751561723 0.8323411456475563 0.3520914227622347
56 0.0004006310009063323 0.0004333955160002978 -0.00029974077755727616 0.21614599123688852 -0.20213469273624976 1.228193321040514
57 0.00018436095379532414 0.0015151679397907168 -0.0008392194652949486 -1.3778465339123198 -0.08543711080164341 -1.3168477137462207
58 -0.00026831588288024627 0.0004916472396323976 -0.0003466761300936674 -1.927389116565991 0.9121987357722435 0.6675708203587036
59 -0.0006258690548135083 0.001297622079709614 -0.0008844486928368857 0.3311157072888594 0.7983313017995447 1.1270556542532257
60 -0.00018043015007094488 1.568633521465739e-05 2.4469889031939575e-06 0.6098608205841689 0.06719653600738755 -0.6226068737246789
61 0.0006670186871407943 0.0009368758878619058 -0.0006536612657749543 -0.08245254775216962 -0.13267665294317502 0.07402067490225707
62 0.00024971794567419547 -0.00022528002682063684 0.0010317709111284002 -0.9577657247991458 -0.465567893792205 0.5392831535575356
63 -0.00039872166876622647 0.001114681131409033 -0.00046664584809481623 0.5614397921385779 -0.03676601977717225 0.9239434081307943
64 -0.00022428609950955975 -0.0012092952670300532 0.0003990757469131255 -1.3388937939722194 0.4998474396687487 1.007959495302009
65 -0.0004760321453345616 -0.001118005263589924 -0.0018913930687617015 -0.004769150595413406 0.18816230253856664 0.8465936030278335
66 -0.000569604752461696 0.0013664722826310341 0.0011885134090689172 -1.2862730133083389 -1.725300067226994 0.2460409197199418
67 -0.0008303642114678211 -4.6765476279521475e-05 0.00013538897487258477 0.45014165664147954 -1.5560912795384267 0.49435961844291937
68 -0.0004166480989256062 0.0007419400328216953 0.001640065264820625 0.8519022828028688 0.7773786853644404 0.10107332851893677
69 0.000715049387221894 -0.0007845722675302896 0.00011171267588401845 1.4124312729529342 0.6732975396570777 -1.314868900890707
70 0.0002899597770195227 0.000960176245563633 -1.2369804764834543e-05 -0.32958544017179037 -2.194591749536253 -0.013996371604443652
71 -0.000784599438062652 -0.0007745814721290174 -0.0015598831332579418 -0.3116052477363819 0.16420020898354412 -1.6475074357573227
72 -0.0012109413821898103 -0.0010259792078996565 0.002009002297714139 0.9464894936396385 -0.38422490798865216 -0.11388633123866836
73 -0.0005770654505789276 0.0013960028145465113 -0.0009586405157593675 -2.2010719253995727 -0.5064523326977327 1.5912594523789898
74 0.00045897496166799693 -0.0003571250431536989 0.00013956166316199796 0.36653957339486676 0.7750720539917312 2.2825538122361007
75 -0.0007635787543225344 0.0009151095119275483 0.0003621989039139825 0.7533600338402616 -0.03709654588161272 -1.5048387303147006
76 -0.0017782702176303371 -0.0001422139697962813 3.268639826972334e-05 1.0766718044834034 0.22754200372682035 1.4094207128249334
77 -0.0009944633549961689 -2.7185643785831554e-05 0.00035935779588646224 -0.6249513355327749 0.026376668634114326 -0.5196033249835427
78 0.0014525047108631406 -0.0002635250122154471 0.0002946308782002014 -1.0671559183404153 -0.1420073799791104 -0.8090786443688043
79 -0.0001738312018541894 -0.0007956971705519024 0.0007051012709860657 0.9916562444273318 0.475176667924977 0.5186997764671554
80 0.00020560278909850191 -0.00023794602258757743 9.508202338166986e-05 -0.2755538757376673 -0.08313141332877286 0.1736802978231154
81 0.0007960466599558679 0.00019636226289575923 -0.00026344322077701926 0.1099307676035118 0.2970133171513775 -0.39383055555986834
82 -0.0006439151111143676 0.0007368202530057124 -0.00020757692084898483 0.46488765978295077 -0.9104435244182589 -0.7977412027945551
83 -0.0016373958881352256 -0.0008034248902800111 -0.0006475209926272188 -1.0629433685117573 0.32694393784433146 -0.38144155381771266
84 -9.349877721927945e-05 -0.0012837405933129888 -0.0006913804447077405 0.005372083699246987 -0.5390925149085727 -0.2777575459740771
85 7.175984873377987e-05 -8.188145840067058e-05 0.0002476795327649455 -0.4292240517999446 0.8471718983985552 -1.379191667891945
86 -0.0019361003225944666 0.0008281345158297657 0.0012385275618332736 0.40376229600085867 -0.2593622200277787 -0.17852822534847618
87 0.0013350477089695762 0.0016805760989646486 -0.00011902052738513388 0.6351408631430563 0.8905103709996127 0.6769065521869173
88 -0.0006559832276122308 0.001068966018238896 6.191198328022662e-05 0.7743332510873531 -0.5636639470178074 0.881565119273955
89 -0.000730455146994518 -0.0019469540223469542 0.00034279428798091206 -0.6705207281868615 0.6731271636970831 0.11003603539529515
90 0.0005181357116835608 -6.261673348842832e-05 -0.0012048597515897858 -1.616761818914026 -0.13934277940905304 0.39022517259497297
91 0.0006963262662605267 -7.783665730819486e-05 0.00011631757641122484 -0.3235934304904304 0.2505540998731511 -0.12891213834749454
92 0.0011733692549690815 0.0012573921682906917 -0.001115727606719598 2.0498551640221705 -0.21195045002905308 1.5462260089037279
93 0.0003012217343432592 0.001554968567194936 -0.00019150686295984871 -1.3764375241458235 -0.7169856499022497 -0.37962935868578923
94 -0.001071413456691653 -0.0004530890205228453 0.000676953628648073 0.04300759511723225 0.4315824556425482 -1.6513162225610292
95 -3.462073031939998e-05 -0.0007341336126085571 0.0007750028474385615 -0.01831437912190255 0.6452234717715252 0.5634104621702328
96 0.00016908537517974456 0.0006881867158179877 -9.660314652542665e-05 0.750539978335223 0.3644557523491205 -1.149167318038805
97 -0.0010727177207611647 -0.0002805275665690652 0.0009397207677218869 -0.6339140219416552 1.0638581171311459 0.4915823701624352
98 9.141003584129238e-05 -0.0001182773394138833 -0.00017713640126118887 1.4896363726120205 0.725712306523633 -0.6955334599959595
99 -0.0005329796862308534 -0.0002213644188271466 -0.0006880914995187214 1.3214262974710724 -0.5269665401199022 -0.5922300334343619
100 -0.0002782784640981771 0.0004974233985925297 -0.001010298225495541 -0.9078341914823335 -0.535657056472583 0.26649700017402456
101 0.000707029389827628 -0.0009053753028934495 -0.0005667802283044673 -0.6903835242905281 0.08929827857526158 0.89536066198302
102 -0.0005252229792661067 0.0016195606485275703 -0.0006118175800384144 0.590342438029956 0.9957317636289214 2.2899526993955805
103 0.0005513903544292183 -0.0006753190874512704 0.0008720377845095684 -1.8485190567648884 -0.5444534851188696 -0.049430494185178954
104 -0.0005963338052002674 0.0018664586177513723 -6.124459534834667e-05 -1.7400426438973087 -0.8933939097574652 1.3270715145663594
105 0.00018944831231515656 -0.0004257936154314862 -0.0002325330225103875 -0.20831100370485076 -0.31951119697135577 0.17363427769999923
106 -0.0011657683659422825 0.00021341203878020944 -0.0016036743084162136 -0.8547196577896573 -0.2022779049615188 -0.2585575583483525
107 -0.00014071663978679116 4.368679354729772e-05 0.0005913271451610716 0.26393148141343503 0.5118496584862787 -0.19630947726526438
108 0.0008526353343687424 -0.0007047116463317371 -0.0003338667680450761 -0.8678172295210281 0.4772470148640593 -1.1972264029793078
109 -0.00010998013637344678 -0.0012808467322045288 -0.00019333442850743478 0.35516627827753844 0.4812786306277344 -0.5845962387823183
110 0.0013189714183481668 -0.0003625633061155731 0.00041103542234669806 0.7863916775761682 0.5066269134009194 0.22665104319035512
111 -0.00013336910129714763 0.00015696055100528249 0.00029023065307822766 0.34873734012781815 1.5661898034091826 0.3776293771733237
112 0.002163162431439717 0.00010327477645835898 0.00036287818767705284 -0.14951073355663014 -0.07190162661891987 -1.289133432993426
113 -0.000686179472822298 -0.0005734723083885262 0.000596645854960574 -0.40297446498764145 -0.868123584934036 0.6091868845217895
114 -0.00044255825584144006 9.173141744053142e-05 0.0010119556193854276 -0.8523759721019909 -0.21029695275901308 0.7202085310387388
115 -0.0024321958386118937 0.00012828266889842094 -0.00012253996872963992 -0.06461511751249392 -0.6845316306479935 0.369115498378376
116 -0.0007522288798272324 -0.001134542992781188 -0.0014242747759699364 -0.785220133384427 -0.6844982300111426 1.3214875798125256
117 -0.001631336215163934 -0.0005620783715462203 0.000526273539346324 -0.6457028977302333 1.041323338492826 -1.5550332780972522
118 0.0006791212566566071 0.0010831088146151281 -0.00031665664113898745 0.14270976262848908 0.1863524646960678 -0.6863985478211646
119 -0.0005598304914650194 -0.0005445967376659685 0.00018420379420410263 0.18595611493782868 0.4422247424120456 -0.17695297797747686
120 0.0013043539626961254 0.00018519112197755528 -0.0012774569712626503 -0.6115604054405038 0.0895062618517034 -0.3309825750831735
121 -0.0009181250548043257 -4.111216227363675e-05 0.0008431381117500141 0.3336913187282888 -0.02587997063901842 -0.4563071067258067
122 7.770442848786119e-05 -8.104535350298567e-05 -0.0021257280290162047 -1.1480690276494463 0.1553316041533672 -0.7074712585692718
123 0.0011888332740761425 -0.000596477576403464 2.667537957250084e-05 -1.1276615053846293 -0.021528408791956666 -0.1224979914050052
124 0.0016536945498203726 0.0013076448975284146 -0.0005474343104989092 0.6571092201608782 -0.992841406684317 0.4358321480511963
125 -0.0010288694146039121 -0.0012382625011454933 0.0002513281797157498 -0.9551128980193431 -0.9127811121206568 0.8723771727888141
126 -0.00017738706389382623 0.0008443302346762141 -0.0003895671701940069 -1.839402192955252 0.7766673236745506 0.7924995277225501