LAMMPS (3 Aug 2022)
# initialisation

units             metal
dimension         3
boundary          p p s
atom_style        full
special_bonds     lj 1 1 1
neigh_modify      every 5 delay 0 check yes
newton            on

read_data         data.film_mesocnt
Reading data file ...
  orthogonal box = (-2500 -2500 -300) to (2500 2500 402.42)
  2 by 2 by 1 MPI processor grid
  reading atoms ...
  79596 atoms
  scanning bonds ...
  1 = max bonds/atom
  scanning angles ...
  1 = max angles/atom
  reading bonds ...
  79200 bonds
  reading angles ...
  78804 angles
Finding 1-2 1-3 1-4 neighbors ...
  special bond factors lj:    1        1        1       
  special bond factors coul:  0        0        0       
     2 = max # of 1-2 neighbors
     2 = max # of 1-3 neighbors
     4 = max # of 1-4 neighbors
     6 = max # of special neighbors
  special bonds CPU = 0.005 seconds
  read_data CPU = 0.154 seconds

# force field

bond_style        mesocnt
bond_coeff        1 C 10 10 10

angle_style       mesocnt
angle_coeff       1 buckling C 10 10 10

pair_style        mesocnt 30 chain
pair_coeff        * * C_10_10.mesocnt 1
Reading mesocnt potential file C_10_10.mesocnt with DATE: 2022-07-12

# output

thermo          100

compute         epair all pe pair
compute         ebond all pe bond
compute         eangle all pe angle

compute         epair_atom all pe/atom pair
compute         ebond_atom all pe/atom bond
compute         eangle_atom all pe/atom angle

fix             angle_mesocnt_buckled all property/atom i_buckled ghost yes

thermo_style    custom step time cpu temp etotal ke pe c_ebond c_eangle c_epair
dump            custom all custom 1000 film_mesocnt.lmp id mol type x y z c_ebond_atom c_eangle_atom c_epair_atom i_buckled

# simulation setup

velocity        all create 600.0 2022
timestep        0.01
fix             nvt all nvt temp 300.0 300.0 1

run             100
Neighbor list info ...
  update: every = 5 steps, delay = 0 steps, check = yes
  max neighbors/atom: 2000, page size: 100000
  master list distance cutoff = 32
  ghost atom cutoff = 32
  binsize = 16, bins = 313 313 6
  1 neighbor lists, perpetual/occasional/extra = 1 0 0
  (1) pair mesocnt, perpetual
      attributes: full, newton on
      pair build: full/bin
      stencil: full/bin/3d
      bin: standard
Per MPI rank memory allocation (min/avg/max) = 21.56 | 21.57 | 21.6 Mbytes
   Step          Time           CPU            Temp          TotEng         KinEng         PotEng        c_ebond        c_eangle       c_epair    
         0   0              0              600            1355.9473      6173.0767     -4817.1294      28.668731      21.29199      -4867.0901    
       100   1              0.92993546     322.71889      1293.8436      3320.2808     -2026.4371      1107.7962      2093.0006     -5227.234     
Loop time of 0.929957 on 4 procs for 100 steps with 79596 atoms

Performance: 92.908 ns/day, 0.258 hours/ns, 107.532 timesteps/s
98.0% CPU use with 4 MPI tasks x no OpenMP threads

MPI task timing breakdown:
Section |  min time  |  avg time  |  max time  |%varavg| %total
---------------------------------------------------------------
Pair    | 0.58144    | 0.67551    | 0.78613    |   9.0 | 72.64
Bond    | 0.072245   | 0.077166   | 0.085344   |   1.8 |  8.30
Neigh   | 0.016299   | 0.016303   | 0.016308   |   0.0 |  1.75
Comm    | 0.011498   | 0.13156    | 0.23472    |  22.2 | 14.15
Output  | 6.3584e-05 | 6.9594e-05 | 8.0167e-05 |   0.0 |  0.01
Modify  | 0.020663   | 0.026031   | 0.028517   |   1.9 |  2.80
Other   |            | 0.003318   |            |       |  0.36

Nlocal:          19899 ave       21952 max       18667 min
Histogram: 1 1 0 1 0 0 0 0 0 1
Nghost:        1000.75 ave        1070 max         947 min
Histogram: 1 0 0 1 1 0 0 0 0 1
Neighs:              0 ave           0 max           0 min
Histogram: 4 0 0 0 0 0 0 0 0 0
FullNghs:       164894 ave      187180 max      151353 min
Histogram: 1 0 2 0 0 0 0 0 0 1

Total # of neighbors = 659576
Ave neighs/atom = 8.2865471
Ave special neighs/atom = 5.9402985
Neighbor list builds = 2
Dangerous builds = 0
Total wall time: 0:00:02
