LAMMPS data file via write_data, version 16 Feb 2016, timestep = 0

1000 atoms
1 atom types

-2.0691700000000001e+01 2.0691700000000001e+01 xlo xhi
-2.0691700000000001e+01 2.0691700000000001e+01 ylo yhi
-2.0691700000000001e+01 2.0691700000000001e+01 zlo zhi

Masses

1 32.041

Atoms # full

1 1 1 0.0000000000000000e+00 -1.5593921000000000e+01 -1.1920230999999999e+01 -1.6031569000000001e+01 0 0 0
2 2 1 0.0000000000000000e+00 -1.3660368999999999e+01 -1.0364788000000001e+01 -1.4014725000000000e+01 0 0 0
3 3 1 0.0000000000000000e+00 -1.8826898000000000e+01 -1.4728209000000000e+01 -1.4068210000000001e+01 0 0 0
4 4 1 0.0000000000000000e+00 -1.5255044000000000e+01 -1.1849049000000001e+01 -1.9471126999999999e+01 0 0 0
5 5 1 0.0000000000000000e+00 -1.8299728000000002e+01 -8.2305879999999991e+00 -2.0100093999999999e+01 0 0 0
6 6 1 0.0000000000000000e+00 -9.9681359999999994e+00 -9.1407699999999998e+00 -1.7918043000000001e+01 0 0 0
7 7 1 0.0000000000000000e+00 -1.5811384000000000e+01 -1.4094695000000000e+01 -1.2782418000000000e+01 0 0 0
8 8 1 0.0000000000000000e+00 -1.1159478000000000e+01 -2.0432182000000001e+01 -1.2281843000000000e+01 0 0 0
9 9 1 0.0000000000000000e+00 -1.3841578000000000e+01 -1.5721743999999999e+01 -1.8784098000000000e+01 0 0 0
10 10 1 0.0000000000000000e+00 -1.5142260000000000e+01 -1.8290419000000000e+01 -1.3975963000000000e+01 0 0 0
11 11 1 0.0000000000000000e+00 -1.9950782000000000e+01 -1.7873994000000000e+01 -1.5405072000000001e+01 0 0 0
12 12 1 0.0000000000000000e+00 2.0006865999999999e+01 -1.2570667000000000e+01 -2.0009208000000001e+01 0 0 0
13 13 1 0.0000000000000000e+00 -1.1728263000000000e+01 -1.5176667000000000e+01 -1.5425433000000000e+01 0 0 0
14 14 1 0.0000000000000000e+00 -1.4427184000000000e+01 -1.9209232000000000e+01 -1.9016732000000001e+01 0 0 0
15 15 1 0.0000000000000000e+00 -1.1127583000000000e+01 -8.6180479999999999e+00 -1.4021029000000000e+01 0 0 0
16 16 1 0.0000000000000000e+00 -1.7830221999999999e+01 -1.9915600999999999e+01 -1.1679290999999999e+01 0 0 0
17 17 1 0.0000000000000000e+00 -1.8720151000000001e+01 -6.8943940000000001e+00 -1.6987594999999999e+01 0 0 0
18 18 1 0.0000000000000000e+00 -1.6778939999999999e+01 -1.6999091000000000e+01 -1.7967710000000000e+01 0 0 0
19 19 1 0.0000000000000000e+00 2.0656098000000000e+01 -9.6622869999999992e+00 -1.5906630000000000e+01 0 0 0
20 20 1 0.0000000000000000e+00 1.9648676999999999e+01 -1.1171288000000001e+01 -1.1653699000000000e+01 0 0 0
21 21 1 0.0000000000000000e+00 -1.0753321000000000e+01 -7.9295580000000001e+00 2.0283989999999999e+01 0 0 0
22 22 1 0.0000000000000000e+00 -1.5482430000000001e+01 -7.5168020000000002e+00 -1.2731190000000000e+01 0 0 0
23 23 1 0.0000000000000000e+00 -1.4518985000000001e+01 -1.7338455000000000e+01 -1.0538911000000001e+01 0 0 0
24 24 1 0.0000000000000000e+00 -1.8776268000000002e+01 -7.1439120000000003e+00 -1.2420792000000000e+01 0 0 0
25 25 1 0.0000000000000000e+00 -1.5462009000000000e+01 -7.4401830000000002e+00 -1.7317898000000000e+01 0 0 0
26 26 1 0.0000000000000000e+00 -1.6983205000000002e+01 -1.1202799000000001e+01 -1.0757879000000001e+01 0 0 0
27 27 1 0.0000000000000000e+00 -1.1516845000000000e+01 -1.3803931000000000e+01 -1.2494588000000000e+01 0 0 0
28 28 1 0.0000000000000000e+00 -9.6466569999999994e+00 -1.3570295000000000e+01 -1.7697028000000000e+01 0 0 0
29 29 1 0.0000000000000000e+00 -9.6589890000000000e+00 -1.8688925000000001e+01 -1.4531186999999999e+01 0 0 0
30 30 1 0.0000000000000000e+00 -1.9148714999999999e+01 -1.3533825000000000e+01 -9.4521809999999995e+00 0 0 0
31 31 1 0.0000000000000000e+00 -1.0072122999999999e+01 -1.7638892999999999e+01 -1.8963073999999999e+01 0 0 0
32 32 1 0.0000000000000000e+00 -1.4340941000000001e+01 -8.2465989999999998e+00 2.0050395000000002e+01 0 0 0
33 33 1 0.0000000000000000e+00 -1.1666757000000000e+01 -1.7912502000000000e+01 -9.4055199999999992e+00 0 0 0
34 34 1 0.0000000000000000e+00 -9.8344399999999998e-01 -1.0957105000000000e+01 -1.1271262000000000e+01 0 0 0
35 35 1 0.0000000000000000e+00 -2.6834259999999999e+00 -8.3161369999999994e+00 -2.0207861000000001e+01 0 0 0
36 36 1 0.0000000000000000e+00 -6.4771850000000004e+00 2.0232305000000000e+01 -1.8470540000000000e+01 0 0 0
37 37 1 0.0000000000000000e+00 -3.3271989999999998e+00 -1.8344943000000001e+01 -1.5252596000000000e+01 0 0 0
38 38 1 0.0000000000000000e+00 -2.0777200000000001e-01 -1.5757600999999999e+01 -1.2415119000000001e+01 0 0 0
39 39 1 0.0000000000000000e+00 -7.4550539999999996e+00 -8.0125240000000009e+00 -1.1237774999999999e+01 0 0 0
40 40 1 0.0000000000000000e+00 -6.9852400000000003e-01 -6.7103409999999997e+00 -1.3193422000000000e+01 0 0 0
41 41 1 0.0000000000000000e+00 -6.9491420000000002e+00 -2.0416975999999998e+01 -1.3755296000000000e+01 0 0 0
42 42 1 0.0000000000000000e+00 -4.7165299999999999e-01 -2.0351492000000000e+01 -1.8706664000000000e+01 0 0 0
43 43 1 0.0000000000000000e+00 -3.5541619999999998e+00 -1.7829062000000000e+01 -1.9669502999999999e+01 0 0 0
44 44 1 0.0000000000000000e+00 -7.4121360000000003e+00 -1.2682988000000000e+01 2.0382943000000001e+01 0 0 0
45 45 1 0.0000000000000000e+00 -1.5243409999999999e+00 -9.3117160000000005e+00 -1.6988365999999999e+01 0 0 0
46 46 1 0.0000000000000000e+00 -7.5220799999999999e+00 -6.8840120000000002e+00 -1.5536242000000000e+01 0 0 0
47 47 1 0.0000000000000000e+00 -5.7752999999999999e-02 -2.0007092000000000e+01 -1.2968301000000000e+01 0 0 0
48 48 1 0.0000000000000000e+00 -2.4546820000000000e+00 -1.2079990000000000e+01 -1.5394935000000000e+01 0 0 0
49 49 1 0.0000000000000000e+00 -7.6845590000000001e+00 -1.2185294000000001e+01 -1.2628177000000001e+01 0 0 0
50 50 1 0.0000000000000000e+00 -7.5153480000000004e+00 -1.1058051000000001e+01 -1.6532108000000001e+01 0 0 0
51 51 1 0.0000000000000000e+00 -5.5501269999999998e+00 -1.7671188000000001e+01 -1.0789781000000000e+01 0 0 0
52 52 1 0.0000000000000000e+00 5.8344700000000005e-01 -1.5664144000000000e+01 -1.9904727000000001e+01 0 0 0
53 53 1 0.0000000000000000e+00 -3.9393940000000001e+00 -1.5247188000000000e+01 -1.2951276999999999e+01 0 0 0
54 54 1 0.0000000000000000e+00 3.9648699999999998e-01 -1.8122022000000001e+01 -1.6310759000000001e+01 0 0 0
55 55 1 0.0000000000000000e+00 -5.5106240000000000e+00 -1.4047348000000000e+01 -1.8544616999999999e+01 0 0 0
56 56 1 0.0000000000000000e+00 -4.9605350000000001e+00 -1.0183391000000000e+01 -1.1865849000000001e+01 0 0 0
57 57 1 0.0000000000000000e+00 -6.6399249999999999e+00 -1.6914532000000001e+01 -1.6754923999999999e+01 0 0 0
58 58 1 0.0000000000000000e+00 -2.7066910000000002e+00 -6.3042470000000002e+00 -1.6142980999999999e+01 0 0 0
59 59 1 0.0000000000000000e+00 -7.8969379999999996e+00 -1.4388968999999999e+01 -9.9903919999999999e+00 0 0 0
60 60 1 0.0000000000000000e+00 -1.8182794999999999e+01 -1.7126304000000001e+01 -7.1705199999999998e+00 0 0 0
61 61 1 0.0000000000000000e+00 -1.3695879000000000e+01 -1.4085165999999999e+01 -8.8154629999999994e+00 0 0 0
62 62 1 0.0000000000000000e+00 -1.9041888000000000e+01 -1.6983184000000001e+01 -2.0677210000000001e+00 0 0 0
63 63 1 0.0000000000000000e+00 -1.5989129000000000e+01 -1.2575836000000001e+01 -2.5236179999999999e+00 0 0 0
64 64 1 0.0000000000000000e+00 -1.5841696000000001e+01 -9.2275089999999995e+00 -2.6627570000000000e+00 0 0 0
65 65 1 0.0000000000000000e+00 -1.6283059000000002e+01 -9.1045540000000003e+00 -7.0671670000000004e+00 0 0 0
66 66 1 0.0000000000000000e+00 -1.7823452000000000e+01 -1.2262269999999999e+01 -6.6869680000000002e+00 0 0 0
67 67 1 0.0000000000000000e+00 -1.5382716000000000e+01 -1.6300477999999998e+01 -5.1971150000000002e+00 0 0 0
68 68 1 0.0000000000000000e+00 -1.1482167000000000e+01 -9.3513730000000006e+00 -8.5241310000000006e+00 0 0 0
69 69 1 0.0000000000000000e+00 -1.6473987000000001e+01 -1.9034041999999999e+01 -3.1386870000000000e+00 0 0 0
70 70 1 0.0000000000000000e+00 -1.3740624000000000e+01 -1.1597287000000000e+01 -4.9088479999999999e+00 0 0 0
71 71 1 0.0000000000000000e+00 -2.0681220000000000e+01 -9.7832279999999994e+00 -3.3563760000000000e+00 0 0 0
72 72 1 0.0000000000000000e+00 2.0626117000000001e+01 -2.0616765999999998e+01 -1.8310139999999999e+00 0 0 0
73 73 1 0.0000000000000000e+00 -1.6898026999999999e+01 -6.6061969999999999e+00 -8.4106559999999995e+00 0 0 0
74 74 1 0.0000000000000000e+00 -1.2619032000000001e+01 -8.7269839999999999e+00 -8.7584700000000004e-01 0 0 0
75 75 1 0.0000000000000000e+00 -1.2101607000000000e+01 -1.3647429000000001e+01 -1.5192630000000000e+00 0 0 0
76 76 1 0.0000000000000000e+00 2.0439064999999999e+01 -1.3297008999999999e+01 -3.2265519999999999e+00 0 0 0
77 77 1 0.0000000000000000e+00 2.0135829999999999e+01 -2.0430081999999999e+01 -8.6870639999999995e+00 0 0 0
78 78 1 0.0000000000000000e+00 -2.0057549999999999e+01 -8.1722029999999997e+00 -9.0667329999999993e+00 0 0 0
79 79 1 0.0000000000000000e+00 -1.2407187000000000e+01 -1.7013373999999999e+01 -6.1515409999999999e+00 0 0 0
80 80 1 0.0000000000000000e+00 -1.0062790000000000e+01 -6.5016540000000003e+00 -7.3569449999999996e+00 0 0 0
81 81 1 0.0000000000000000e+00 -1.8500592999999999e+01 -6.2202190000000002e+00 -2.8509000000000000e-02 0 0 0
82 82 1 0.0000000000000000e+00 1.9770665999999999e+01 -1.7745048000000001e+01 -5.0787230000000001e+00 0 0 0
83 83 1 0.0000000000000000e+00 -1.5053293999999999e+01 1.9957834999999999e+01 -7.1536710000000001e+00 0 0 0
84 84 1 0.0000000000000000e+00 -1.3246217000000000e+01 -6.0712450000000002e+00 -1.0612012000000000e+01 0 0 0
85 85 1 0.0000000000000000e+00 -4.8265260000000003e+00 -2.0114132999999999e+01 -4.4398199999999999e-01 0 0 0
86 86 1 0.0000000000000000e+00 -4.2965289999999996e+00 -1.9914514000000000e+01 -7.5430450000000002e+00 0 0 0
87 87 1 0.0000000000000000e+00 -2.8951030000000002e+00 -7.7681370000000003e+00 -9.9150290000000005e+00 0 0 0
88 88 1 0.0000000000000000e+00 -1.2942370000000001e+00 -1.9097301000000002e+01 -8.8335480000000004e+00 0 0 0
89 89 1 0.0000000000000000e+00 -8.2649779999999993e+00 -2.0477018999999999e+01 5.9462899999999996e-01 0 0 0
90 90 1 0.0000000000000000e+00 -7.5756800000000002e+00 -1.2914879000000001e+01 -7.6194399999999995e-01 0 0 0
91 91 1 0.0000000000000000e+00 9.8994199999999999e-01 -1.8290485000000000e+01 -2.0753680000000001e+00 0 0 0
92 92 1 0.0000000000000000e+00 -7.4214549999999999e+00 -2.0268106000000000e+01 -4.3442900000000000e+00 0 0 0
93 93 1 0.0000000000000000e+00 6.2242100000000000e-01 -1.1174856000000000e+01 -7.3521900000000002e+00 0 0 0
94 94 1 0.0000000000000000e+00 -1.3381200000000000e+00 -9.0911609999999996e+00 -2.5528740000000001e+00 0 0 0
95 95 1 0.0000000000000000e+00 -2.9528700000000002e-01 -7.2447999999999997e+00 -6.9114959999999996e+00 0 0 0
96 96 1 0.0000000000000000e+00 -4.5785390000000001e+00 -1.8360385000000001e+01 -3.1726570000000001e+00 0 0 0
97 97 1 0.0000000000000000e+00 -2.9919069999999999e+00 -1.1313141999999999e+01 -7.6049720000000001e+00 0 0 0
98 98 1 0.0000000000000000e+00 -3.0681300000000000e-01 -2.0417563000000001e+01 -3.9466920000000001e+00 0 0 0
99 99 1 0.0000000000000000e+00 -5.2231069999999997e+00 -6.1240269999999999e+00 -6.4871850000000002e+00 0 0 0
100 100 1 0.0000000000000000e+00 -8.6537919999999993e+00 -1.0866021999999999e+01 -8.6250870000000006e+00 0 0 0
101 101 1 0.0000000000000000e+00 -6.9557479999999998e+00 -1.6201958999999999e+01 -4.1729999999999996e-03 0 0 0
102 102 1 0.0000000000000000e+00 -1.2060379999999999e+00 -1.6338837999999999e+01 -5.1101520000000002e+00 0 0 0
103 103 1 0.0000000000000000e+00 -1.3926440000000000e+00 -1.4310257000000000e+01 -7.8000389999999999e+00 0 0 0
104 104 1 0.0000000000000000e+00 -5.8097070000000004e+00 -8.8531669999999991e+00 -2.9271699999999998e+00 0 0 0
105 105 1 0.0000000000000000e+00 -5.0105870000000001e+00 -1.6222608999999999e+01 -7.1864830000000000e+00 0 0 0
106 106 1 0.0000000000000000e+00 -4.5832350000000002e+00 -1.1110530000000001e+01 -3.9622700000000000e-01 0 0 0
107 107 1 0.0000000000000000e+00 -6.7699299999999996e-01 -1.3307141000000000e+01 -1.1951550000000000e+00 0 0 0
108 108 1 0.0000000000000000e+00 -5.0920350000000001e+00 -1.1557525000000000e+01 -4.7739989999999999e+00 0 0 0
109 109 1 0.0000000000000000e+00 -7.6445860000000003e+00 -1.7244014000000000e+01 -5.4699739999999997e+00 0 0 0
110 110 1 0.0000000000000000e+00 -1.0054951000000001e+01 -1.5980503000000001e+01 2.3840700000000001e-01 0 0 0
111 111 1 0.0000000000000000e+00 -1.7249758000000000e+01 -1.9026026999999999e+01 4.5224950000000002e+00 0 0 0
112 112 1 0.0000000000000000e+00 -1.4586069999999999e+01 -1.7585633999999999e+01 6.5017649999999998e+00 0 0 0
113 113 1 0.0000000000000000e+00 -1.6670663999999999e+01 -1.7113548999999999e+01 1.4648690000000000e+00 0 0 0
114 114 1 0.0000000000000000e+00 -1.5050248000000000e+01 -1.4204488000000000e+01 2.7034699999999998e+00 0 0 0
115 115 1 0.0000000000000000e+00 -1.5895557000000000e+01 -1.1073129000000000e+01 5.8564499999999997e-01 0 0 0
116 116 1 0.0000000000000000e+00 -1.8659829999999999e+01 -6.8904870000000003e+00 4.4807689999999996e+00 0 0 0
117 117 1 0.0000000000000000e+00 -1.1901456000000000e+01 -9.3046710000000008e+00 6.0618650000000001e+00 0 0 0
118 118 1 0.0000000000000000e+00 -1.1864177000000000e+01 -1.2894431000000001e+01 6.5165749999999996e+00 0 0 0
119 119 1 0.0000000000000000e+00 -1.6102233999999999e+01 -1.4929607000000001e+01 6.0146179999999996e+00 0 0 0
120 120 1 0.0000000000000000e+00 -1.3016520999999999e+01 -7.8397280000000000e+00 9.2863670000000003e+00 0 0 0
121 121 1 0.0000000000000000e+00 -1.6203408000000000e+01 -1.1257643000000000e+01 8.1448289999999997e+00 0 0 0
122 122 1 0.0000000000000000e+00 -1.9538319999999999e+01 -1.8481614000000000e+01 1.6808280000000000e+00 0 0 0
123 123 1 0.0000000000000000e+00 -1.4975388000000001e+01 -1.0528399000000000e+01 5.0075219999999998e+00 0 0 0
124 124 1 0.0000000000000000e+00 -1.9850245999999999e+01 -9.2057420000000008e+00 2.2342219999999999e+00 0 0 0
125 125 1 0.0000000000000000e+00 -1.2115905000000000e+01 -1.1367794000000000e+01 1.7169690000000000e+00 0 0 0
126 126 1 0.0000000000000000e+00 -1.9859904000000000e+01 -1.7104821999999999e+01 1.0445301000000001e+01 0 0 0
127 127 1 0.0000000000000000e+00 -1.9359956000000000e+01 -1.1153801000000000e+01 8.1692409999999995e+00 0 0 0
128 128 1 0.0000000000000000e+00 -1.1451081000000000e+01 -1.8526779999999999e+01 3.1480809999999999e+00 0 0 0
129 129 1 0.0000000000000000e+00 -1.4099829000000000e+01 -8.0228169999999999e+00 2.2974890000000001e+00 0 0 0
130 130 1 0.0000000000000000e+00 -1.1484116000000000e+01 -1.4641294000000000e+01 1.0413596999999999e+01 0 0 0
131 131 1 0.0000000000000000e+00 -1.9001359000000001e+01 -1.4414847999999999e+01 2.4363809999999999e+00 0 0 0
132 132 1 0.0000000000000000e+00 2.0571529999999999e+01 -1.4331673000000000e+01 7.5396690000000000e+00 0 0 0
133 133 1 0.0000000000000000e+00 -1.7442615000000000e+01 -7.5199850000000001e+00 7.4637969999999996e+00 0 0 0
134 134 1 0.0000000000000000e+00 -1.0267543000000000e+01 -1.8068591999999999e+01 9.0298549999999995e+00 0 0 0
135 135 1 0.0000000000000000e+00 -1.8232026999999999e+01 -1.4186887000000000e+01 1.0778634000000000e+01 0 0 0
136 136 1 0.0000000000000000e+00 -1.7353359999999999e+01 -1.9499925999999999e+01 9.8088840000000008e+00 0 0 0
137 137 1 0.0000000000000000e+00 1.9947267000000000e+01 -1.8830639999999999e+01 6.6995579999999997e+00 0 0 0
138 138 1 0.0000000000000000e+00 1.9965240000000001e+01 -1.4110571999999999e+01 1.1585000000000000e-02 0 0 0
139 139 1 0.0000000000000000e+00 -8.9597219999999993e+00 -7.8785239999999996e+00 1.6402220000000001e+00 0 0 0
140 140 1 0.0000000000000000e+00 -9.7736059999999991e+00 -1.3909363000000001e+01 4.1940229999999996e+00 0 0 0
141 141 1 0.0000000000000000e+00 -1.0925974999999999e+01 -1.0837527000000000e+01 1.1057179000000000e+01 0 0 0
142 142 1 0.0000000000000000e+00 -1.3174059000000000e+01 1.9924596999999999e+01 2.7984199999999998e-01 0 0 0
143 143 1 0.0000000000000000e+00 -1.6781649999999999e+00 -1.6913667000000000e+01 9.5046799999999998e-01 0 0 0
144 144 1 0.0000000000000000e+00 -5.6759099999999996e-01 -9.2461970000000004e+00 1.4420620000000000e+00 0 0 0
145 145 1 0.0000000000000000e+00 -1.0592300000000000e-01 -1.2751329999999999e+01 1.0577121999999999e+01 0 0 0
146 146 1 0.0000000000000000e+00 -9.3184000000000005e+00 2.0061557000000001e+01 6.7427590000000004e+00 0 0 0
147 147 1 0.0000000000000000e+00 -5.7568979999999996e+00 -1.3644204999999999e+01 9.8557419999999993e+00 0 0 0
148 148 1 0.0000000000000000e+00 5.9727699999999995e-01 -6.7760129999999998e+00 5.4389500000000002e+00 0 0 0
149 149 1 0.0000000000000000e+00 -4.3592180000000003e+00 -9.7960270000000005e+00 5.6010720000000003e+00 0 0 0
150 150 1 0.0000000000000000e+00 -8.9748739999999998e+00 -1.8022828000000001e+01 5.9605660000000000e+00 0 0 0
151 151 1 0.0000000000000000e+00 -8.5487920000000006e+00 -6.1745720000000004e+00 5.8183980000000002e+00 0 0 0
152 152 1 0.0000000000000000e+00 -1.5325089999999999e+00 -1.2697271000000001e+01 1.9619120000000001e+00 0 0 0
153 153 1 0.0000000000000000e+00 -5.8964670000000003e+00 -1.6983301999999998e+01 2.7770519999999999e+00 0 0 0
154 154 1 0.0000000000000000e+00 -2.5638339999999999e+00 -1.4086392999999999e+01 6.2390780000000001e+00 0 0 0
155 155 1 0.0000000000000000e+00 -8.0277349999999998e+00 -1.0472856999999999e+01 6.8303019999999997e+00 0 0 0
156 156 1 0.0000000000000000e+00 -5.7644909999999996e+00 -7.8662500000000000e+00 1.4891589999999999e+00 0 0 0
157 157 1 0.0000000000000000e+00 -5.9814579999999999e+00 -1.8397068999999998e+01 8.8468879999999999e+00 0 0 0
158 158 1 0.0000000000000000e+00 -1.1745200000000000e+00 -9.2145390000000003e+00 6.6207940000000001e+00 0 0 0
159 159 1 0.0000000000000000e+00 -4.5375439999999996e+00 -1.4173055000000000e+01 3.5300289999999999e+00 0 0 0
160 160 1 0.0000000000000000e+00 -5.8964999999999997e-02 -1.7956647000000000e+01 3.7476820000000002e+00 0 0 0
161 161 1 0.0000000000000000e+00 -7.5235539999999999e+00 -1.1349403000000001e+01 3.1155840000000001e+00 0 0 0
162 162 1 0.0000000000000000e+00 -2.9360960000000000e+00 -1.0747541000000000e+01 1.0973686000000001e+01 0 0 0
163 163 1 0.0000000000000000e+00 -8.6131379999999993e+00 -1.4635446999999999e+01 8.6454599999999999e+00 0 0 0
164 164 1 0.0000000000000000e+00 -4.1817219999999997e+00 -5.8262640000000001e+00 9.6562149999999995e+00 0 0 0
165 165 1 0.0000000000000000e+00 1.2029820000000000e+00 -1.8185648000000000e+01 1.0547238999999999e+01 0 0 0
166 166 1 0.0000000000000000e+00 -1.5235319000000000e+01 -1.7032589999999999e+01 1.5537644000000000e+01 0 0 0
167 167 1 0.0000000000000000e+00 -1.5553925000000000e+01 -1.4383399000000001e+01 1.3527438000000000e+01 0 0 0
168 168 1 0.0000000000000000e+00 -1.9472546000000001e+01 -8.7125480000000000e+00 1.4800806000000000e+01 0 0 0
169 169 1 0.0000000000000000e+00 -1.8618414999999999e+01 -1.0842477000000001e+01 1.7123090000000001e+01 0 0 0
170 170 1 0.0000000000000000e+00 -1.7535845999999999e+01 -1.8757230000000000e+01 1.8539300000000001e+01 0 0 0
171 171 1 0.0000000000000000e+00 -1.3335404000000000e+01 -1.0820952999999999e+01 1.3280595999999999e+01 0 0 0
172 172 1 0.0000000000000000e+00 -1.3053485000000000e+01 -1.8457830999999999e+01 1.9351414999999999e+01 0 0 0
173 173 1 0.0000000000000000e+00 -1.0177992000000000e+01 -1.8646699999999999e+01 1.5172815999999999e+01 0 0 0
174 174 1 0.0000000000000000e+00 -1.5296067000000001e+01 -1.0527791000000001e+01 1.7662970000000001e+01 0 0 0
175 175 1 0.0000000000000000e+00 -1.8661355000000000e+01 -1.7715757000000000e+01 1.5256437000000000e+01 0 0 0
176 176 1 0.0000000000000000e+00 -1.1132123000000000e+01 -1.5319343999999999e+01 1.8994686000000002e+01 0 0 0
177 177 1 0.0000000000000000e+00 2.0072416000000000e+01 -2.0136244999999999e+01 -2.0656641000000000e+01 0 0 0
178 178 1 0.0000000000000000e+00 -1.9278880999999998e+01 -1.3121568999999999e+01 1.3659897000000001e+01 0 0 0
179 179 1 0.0000000000000000e+00 -1.7286673000000000e+01 2.0071480000000001e+01 1.3593415999999999e+01 0 0 0
180 180 1 0.0000000000000000e+00 -1.1240773000000001e+01 -1.4690685999999999e+01 1.5784973000000001e+01 0 0 0
181 181 1 0.0000000000000000e+00 -9.6200709999999994e+00 -1.1129661000000000e+01 1.7516824000000000e+01 0 0 0
182 182 1 0.0000000000000000e+00 -1.6367540000000002e+01 -1.3832637999999999e+01 1.9699293999999998e+01 0 0 0
183 183 1 0.0000000000000000e+00 -1.2264229000000000e+01 -1.9765046000000002e+01 1.2967518999999999e+01 0 0 0
184 184 1 0.0000000000000000e+00 -1.1877653000000000e+01 -6.8922920000000003e+00 1.7384437999999999e+01 0 0 0
185 185 1 0.0000000000000000e+00 2.0339697000000001e+01 -2.0347097000000002e+01 1.2117418000000001e+01 0 0 0
186 186 1 0.0000000000000000e+00 -1.9482040000000001e+01 -1.4730492000000000e+01 1.9478151000000000e+01 0 0 0
187 187 1 0.0000000000000000e+00 -1.3886165999999999e+01 -6.3879530000000004e+00 1.2164584000000000e+01 0 0 0
188 188 1 0.0000000000000000e+00 -1.8777595999999999e+01 -6.1890689999999999e+00 1.0033901999999999e+01 0 0 0
189 189 1 0.0000000000000000e+00 -4.6953820000000004e+00 -8.3714440000000003e+00 1.7730601000000000e+01 0 0 0
190 190 1 0.0000000000000000e+00 -6.8597500000000000e-01 -1.3080460000000000e+01 1.8931756000000000e+01 0 0 0
191 191 1 0.0000000000000000e+00 -4.9254499999999997e+00 1.9882066999999999e+01 1.6354804000000001e+01 0 0 0
192 192 1 0.0000000000000000e+00 -4.9667729999999999e+00 -2.0100075000000000e+01 1.1615011000000001e+01 0 0 0
193 193 1 0.0000000000000000e+00 -8.9893699999999992e+00 -6.7465060000000001e+00 1.5810836999999999e+01 0 0 0
194 194 1 0.0000000000000000e+00 -2.9063770000000000e+00 2.0661985000000001e+01 1.9948861000000001e+01 0 0 0
195 195 1 0.0000000000000000e+00 -8.9314730000000004e+00 -6.9998940000000003e+00 1.2184687000000000e+01 0 0 0
196 196 1 0.0000000000000000e+00 -9.1631339999999994e+00 -1.4073667000000000e+01 1.3601234000000000e+01 0 0 0
197 197 1 0.0000000000000000e+00 -7.6181900000000002e-01 -1.2706130999999999e+01 1.3985954000000000e+01 0 0 0
198 198 1 0.0000000000000000e+00 -8.1519349999999999e+00 -1.7176500000000001e+01 1.2550685000000000e+01 0 0 0
199 199 1 0.0000000000000000e+00 -7.2765940000000002e+00 -1.0196059999999999e+01 1.5329336000000000e+01 0 0 0
200 200 1 0.0000000000000000e+00 -1.6990769999999999e+00 -2.0140716999999999e+01 1.0610811999999999e+01 0 0 0
201 201 1 0.0000000000000000e+00 -6.4064839999999998e+00 -1.7238002000000002e+01 1.6407181999999999e+01 0 0 0
202 202 1 0.0000000000000000e+00 -3.5213719999999999e+00 -1.5749812000000000e+01 1.1495779000000001e+01 0 0 0
203 203 1 0.0000000000000000e+00 -3.1623690000000000e+00 -1.5361326999999999e+01 1.9581893999999998e+01 0 0 0
204 204 1 0.0000000000000000e+00 -6.7386010000000001e+00 -1.9011310999999999e+01 1.9437004000000002e+01 0 0 0
205 205 1 0.0000000000000000e+00 -2.7434560000000001e+00 -7.8986150000000004e+00 1.5356693000000000e+01 0 0 0
206 206 1 0.0000000000000000e+00 -3.4846130000000000e+00 -1.4403816000000001e+01 1.4823330000000000e+01 0 0 0
207 207 1 0.0000000000000000e+00 -2.9524530000000002e+00 -1.7515703999999999e+01 1.6434321000000001e+01 0 0 0
208 208 1 0.0000000000000000e+00 -7.0167169999999999e+00 -1.4076763000000000e+01 1.7542417000000000e+01 0 0 0
209 209 1 0.0000000000000000e+00 -6.8258380000000001e+00 -9.5880069999999993e+00 1.2073762000000000e+01 0 0 0
210 210 1 0.0000000000000000e+00 5.4124200000000000e-01 -1.6868096000000001e+01 1.4773987000000000e+01 0 0 0
211 211 1 0.0000000000000000e+00 9.1362399999999999e-01 -8.4507680000000001e+00 -2.0423120999999998e+01 0 0 0
212 212 1 0.0000000000000000e+00 -1.3873291999999999e+01 -3.0113289999999999e+00 -1.1934027000000000e+01 0 0 0
213 213 1 0.0000000000000000e+00 -2.0313220000000001e+01 -1.6236340000000000e+00 -1.8415935999999999e+01 0 0 0
214 214 1 0.0000000000000000e+00 -1.7264112000000001e+01 2.4111880000000001e+00 -1.1164816999999999e+01 0 0 0
215 215 1 0.0000000000000000e+00 -1.3756716000000001e+01 1.7231360000000000e+00 -1.2610564000000000e+01 0 0 0
216 216 1 0.0000000000000000e+00 -1.5682166000000000e+01 -4.1036250000000001e+00 -1.5924554000000001e+01 0 0 0
217 217 1 0.0000000000000000e+00 -1.9209955999999998e+01 -1.3815630000000001e+00 -1.2041895999999999e+01 0 0 0
218 218 1 0.0000000000000000e+00 -1.2082708000000000e+01 -3.6177399999999998e-01 -1.6126899999999999e+01 0 0 0
219 219 1 0.0000000000000000e+00 -1.6359083999999999e+01 6.0780870000000000e+00 -1.9436184000000001e+01 0 0 0
220 220 1 0.0000000000000000e+00 -1.0735920999999999e+01 -5.7256629999999999e+00 -1.8449708000000001e+01 0 0 0
221 221 1 0.0000000000000000e+00 -1.5862221999999999e+01 4.6830730000000003e+00 -1.3081614999999999e+01 0 0 0
222 222 1 0.0000000000000000e+00 1.9706443000000000e+01 7.6997099999999996e-01 -1.2655874000000001e+01 0 0 0
223 223 1 0.0000000000000000e+00 -1.9922325000000001e+01 2.8987409999999998e+00 -1.8093346000000000e+01 0 0 0
224 224 1 0.0000000000000000e+00 -1.3090441999999999e+01 4.7324650000000004e+00 -1.6104019000000001e+01 0 0 0
225 225 1 0.0000000000000000e+00 -1.6804131999999999e+01 2.2050730000000001e+00 -1.6973226000000000e+01 0 0 0
226 226 1 0.0000000000000000e+00 -1.0914198000000001e+01 -5.4346379999999996e+00 -1.4355653999999999e+01 0 0 0
227 227 1 0.0000000000000000e+00 -1.8133060000000000e+01 -1.8907200000000000e+00 -1.6062646999999998e+01 0 0 0
228 228 1 0.0000000000000000e+00 -1.9109655000000000e+01 7.2600290000000003e+00 -1.5293834000000000e+01 0 0 0
229 229 1 0.0000000000000000e+00 -1.9470624000000001e+01 7.1033840000000001e+00 -1.1991165000000001e+01 0 0 0
230 230 1 0.0000000000000000e+00 -1.0452806000000001e+01 2.4171939999999998e+00 -1.5286826000000000e+01 0 0 0
231 231 1 0.0000000000000000e+00 -1.0158555000000000e+01 4.5069340000000002e+00 -1.9748982000000002e+01 0 0 0
232 232 1 0.0000000000000000e+00 -1.4754065000000001e+01 2.9525519999999998e+00 -2.0065152999999999e+01 0 0 0
233 233 1 0.0000000000000000e+00 -1.2166145000000000e+01 6.5634920000000001e+00 -1.0694136000000000e+01 0 0 0
234 234 1 0.0000000000000000e+00 -1.5252558000000001e+01 -3.9773079999999998e+00 -1.9358791000000000e+01 0 0 0
235 235 1 0.0000000000000000e+00 -1.0969827000000000e+01 -1.0355790000000000e+00 -1.2071884000000001e+01 0 0 0
236 236 1 0.0000000000000000e+00 -1.1838498000000000e+01 7.5645330000000000e+00 -1.7736151000000000e+01 0 0 0
237 237 1 0.0000000000000000e+00 -9.9904989999999998e+00 -1.1385130000000001e+00 -1.8651395999999998e+01 0 0 0
238 238 1 0.0000000000000000e+00 -1.7512190000000000e+01 -1.8091599999999999e-01 1.9467072000000002e+01 0 0 0
239 239 1 0.0000000000000000e+00 -1.0096738999999999e+01 1.3860170000000001e+00 -1.0161718000000000e+01 0 0 0
240 240 1 0.0000000000000000e+00 -1.5962609999999999e+00 -3.2909739999999998e+00 -1.3470580999999999e+01 0 0 0
241 241 1 0.0000000000000000e+00 -5.1573760000000002e+00 -5.4180539999999997e+00 -1.2289203000000001e+01 0 0 0
242 242 1 0.0000000000000000e+00 -3.1801140000000001e+00 -5.0591010000000001e+00 -1.9647879000000000e+01 0 0 0
243 243 1 0.0000000000000000e+00 -5.4441110000000004e+00 7.0828230000000003e+00 -1.3970250000000000e+01 0 0 0
244 244 1 0.0000000000000000e+00 -2.4128150000000002e+00 5.8769099999999996e+00 -1.8626265000000000e+01 0 0 0
245 245 1 0.0000000000000000e+00 -5.4322999999999997e+00 5.8152689999999998e+00 2.0508488000000000e+01 0 0 0
246 246 1 0.0000000000000000e+00 -2.9173239999999998e+00 -2.3385680000000000e+00 -1.0418153999999999e+01 0 0 0
247 247 1 0.0000000000000000e+00 -7.8922920000000003e+00 3.8098450000000001e+00 -1.7866517999999999e+01 0 0 0
248 248 1 0.0000000000000000e+00 5.0123000000000001e-02 5.2352829999999999e+00 -1.1935791999999999e+01 0 0 0
249 249 1 0.0000000000000000e+00 -7.7449399999999997e+00 -3.4969880000000000e+00 -1.0827159999999999e+01 0 0 0
250 250 1 0.0000000000000000e+00 5.7065100000000002e-01 3.9455190000000000e+00 -1.5149141000000000e+01 0 0 0
251 251 1 0.0000000000000000e+00 -4.7620740000000001e+00 -2.1260899999999999e-01 1.9460384999999999e+01 0 0 0
252 252 1 0.0000000000000000e+00 -6.3592230000000001e+00 1.6520900000000001e+00 -9.9479889999999997e+00 0 0 0
253 253 1 0.0000000000000000e+00 6.4868000000000003e-01 -3.0825689999999999e+00 -1.7073384000000001e+01 0 0 0
254 254 1 0.0000000000000000e+00 -3.1315420000000000e+00 1.5021540000000000e+00 -1.7651047999999999e+01 0 0 0
255 255 1 0.0000000000000000e+00 -6.4171800000000001e+00 -3.3198170000000000e+00 -1.8522862000000000e+01 0 0 0
256 256 1 0.0000000000000000e+00 -2.8743170000000000e+00 1.6693140000000000e+00 -1.2225037000000000e+01 0 0 0
257 257 1 0.0000000000000000e+00 -9.3877919999999992e+00 7.1726669999999997e+00 -1.5450873000000000e+01 0 0 0
258 258 1 0.0000000000000000e+00 -3.0055809999999998e+00 3.4753400000000001e+00 -1.5063884000000000e+01 0 0 0
259 259 1 0.0000000000000000e+00 2.0865600000000001e-01 6.2320399999999998e-01 -1.6452375000000000e+01 0 0 0
260 260 1 0.0000000000000000e+00 -5.2249129999999999e+00 -1.1483650000000001e+00 -1.5933545000000001e+01 0 0 0
261 261 1 0.0000000000000000e+00 -7.5892520000000001e+00 5.0387209999999998e+00 -1.2038417000000001e+01 0 0 0
262 262 1 0.0000000000000000e+00 -6.7763609999999996e+00 3.3266979999999999e+00 -1.4977931000000000e+01 0 0 0
263 263 1 0.0000000000000000e+00 -1.1505611999999999e+01 -1.3324119999999999e+00 -2.2719420000000001e+00 0 0 0
264 264 1 0.0000000000000000e+00 -1.2335929999999999e+01 3.8716040000000000e+00 -5.7676429999999996e+00 0 0 0
265 265 1 0.0000000000000000e+00 -1.4986617000000001e+01 -1.0919960000000000e+00 -2.8423740000000000e+00 0 0 0
266 266 1 0.0000000000000000e+00 -1.6264455000000002e+01 3.8860760000000001e+00 -3.0223420000000001e+00 0 0 0
267 267 1 0.0000000000000000e+00 -1.2556243000000000e+01 -8.1150400000000000e-01 -7.6883039999999996e+00 0 0 0
268 268 1 0.0000000000000000e+00 -1.5838628000000000e+01 -4.7699220000000002e+00 -1.0629649999999999e+00 0 0 0
269 269 1 0.0000000000000000e+00 -1.9881387000000000e+01 -2.5629930000000001e+00 -5.9457839999999997e+00 0 0 0
270 270 1 0.0000000000000000e+00 -1.0922765999999999e+01 -5.8456720000000004e+00 -4.1389199999999997e+00 0 0 0
271 271 1 0.0000000000000000e+00 -1.8762726000000001e+01 -5.7461770000000003e+00 -5.3250229999999998e+00 0 0 0