LAMMPS (8 Feb 2023)
OMP_NUM_THREADS environment is not set. Defaulting to 1 thread. (src/comm.cpp:98)
  using 1 OpenMP thread(s) per MPI task
units real
atom_style full
pair_style zero 10.0

read_data data.meoh
Reading data file ...
  orthogonal box = (-20.6917 -20.6917 -20.6917) to (20.6917 20.6917 20.6917)
  1 by 1 by 1 MPI processor grid
  reading atoms ...
  1000 atoms
Finding 1-2 1-3 1-4 neighbors ...
  special bond factors lj:    0        0        0       
  special bond factors coul:  0        0        0       
     0 = max # of 1-2 neighbors
     0 = max # of 1-3 neighbors
     0 = max # of 1-4 neighbors
     1 = max # of special neighbors
  special bonds CPU = 0.000 seconds
  read_data CPU = 0.007 seconds
pair_coeff * *

thermo 1
thermo_style custom step

# Test 1a: range finder functionality
fix 1 all mscg 1 range on
rerun dump.meoh first 0 last 4500 every 250 dump x y z fx fy fz
WARNING: No fixes with time integration, atoms won't move (src/verlet.cpp:60)
Generated 0 of 0 mixed pair_coeff terms from geometric mixing rule
Neighbor list info ...
  update: every = 1 steps, delay = 0 steps, check = yes
  max neighbors/atom: 2000, page size: 100000
  master list distance cutoff = 12
  ghost atom cutoff = 12
  binsize = 6, bins = 7 7 7
  1 neighbor lists, perpetual/occasional/extra = 1 0 0
  (1) pair zero, perpetual
      attributes: half, newton on
      pair build: half/bin/newton
      stencil: half/bin/3d
      bin: standard
Per MPI rank memory allocation (min/avg/max) = 6.045 | 6.045 | 6.045 Mbytes
   Step    
         0 
       250 
       500 
       750 
      1000 
      1250 
      1500 
      1750 
      2000 
      2250 
      2500 
      2750 
      3000 
      3250 
      3500 
      3750 
      4000 
      4250 
      4500 
Loop time of 0.245891 on 1 procs for 19 steps with 1000 atoms

print "TEST_1a mscg range finder"
TEST_1a mscg range finder
unfix 1

# Test 1b: force matching functionality
fix 1 all mscg 1
rerun dump.meoh first 0 last 4500 every 250 dump x y z fx fy fz
WARNING: No fixes with time integration, atoms won't move (src/verlet.cpp:60)
Generated 0 of 0 mixed pair_coeff terms from geometric mixing rule
Per MPI rank memory allocation (min/avg/max) = 6.045 | 6.045 | 6.045 Mbytes
   Step    
         0 
       250 
       500 
       750 
      1000 
      1250 
      1500 
      1750 
      2000 
      2250 
      2500 
      2750 
      3000 
      3250 
      3500 
      3750 
      4000 
      4250 
      4500 
Loop time of 0.433986 on 1 procs for 19 steps with 1000 atoms

print "TEST_1b mscg force matching"
TEST_1b mscg force matching

print TEST_DONE
TEST_DONE
Total wall time: 0:00:00
