LAMMPS (27 Mar 2011)
Running on 3 partitions of processors
Step CPU N M Status Barrier Margin t_lo delt_lo
1000 0.000 0 0 E  0.000 0.000 0.000 0.000
1150 1.543 0 0 DF 2.957 0.000 0.000 17626.816
1550 4.348 0 1 DF 0.510 0.049 0.000 1251.448
1950 7.461 0 2 D  2.971 0.610 0.000 114049.225
2350 10.432 0 3 D  0.510 0.867 0.000 3071.754
2800 13.868 0 4 D  2.971 1.156 0.000 216085.667
1550 13.868 1 1 E  0.510 0.000 1251.448 1251.448
1650 14.838 1 0 DF 0.510 0.000 1251.448 227.532
1750 15.811 1 1 D  0.510 0.461 1251.448 455.047
1850 16.807 1 2 D  0.510 0.692 1251.448 682.596
1950 17.784 1 3 D  0.510 0.923 1251.448 910.144
2050 18.781 1 4 D  0.510 1.154 1251.448 1137.675
1650 18.781 2 0 E  0.510 0.000 1478.980 227.532
1850 20.399 2 0 DF 0.510 0.000 1478.980 455.054
2050 22.028 2 1 D  0.510 0.549 1478.980 910.140
2250 23.656 2 2 D  0.510 0.823 1478.980 1365.169
2450 25.304 2 3 D  0.510 1.098 1478.980 1820.232
1850 25.304 3 0 E  0.510 0.000 1934.033 455.054
1950 26.326 3 0 DF 0.510 0.000 1934.033 227.541
2050 27.381 3 1 D  0.510 0.461 1934.033 455.092
2150 28.410 3 2 D  0.510 0.692 1934.033 682.654
2250 29.439 3 3 D  0.510 0.923 1934.033 910.147
2350 30.618 3 4 D  0.510 1.154 1934.033 1137.725
1950 30.618 4 0 E  0.510 0.000 2161.574 227.541
2100 32.278 4 0 DF 2.518 0.000 2161.574 8681.348
2250 33.632 4 1 DF 0.510 0.045 2161.574 682.611
2400 35.322 4 2 D  2.518 0.455 2161.574 26042.889
2550 36.694 4 3 D  0.510 0.607 2161.574 1365.321
2700 38.417 4 4 D  2.518 0.759 2161.574 43403.531
2850 39.797 4 5 D  0.510 0.911 2161.574 2047.918
3000 41.603 4 6 D  2.518 1.063 2161.574 60770.044
2250 41.603 5 1 E  0.510 0.000 2844.185 682.611
2450 43.345 5 0 DF 0.510 0.000 2844.185 455.071
2700 45.402 5 1 D  0.510 0.617 2844.185 1023.952
2950 47.493 5 2 D  0.510 0.960 2844.185 1592.756
Loop time of 47.7979 on 3 procs for 2000 steps with 511 atoms
