LAMMPS (1 Feb 2014)
Processor partition = 2
# temperature accelerated dynamics model for a single vacancy in bulk Si
# events occur when a neighboring atom diffuses to the vacant site
# run this on multiple partitions as
#   mpirun -np 3 lmp_g++ -partition 3x1 -in in.tad

units           metal

atom_style      atomic
atom_modify     map array
boundary        p p p
atom_modify	sort 0 0.0

# temperatures
variable tlo equal 1800.0
variable thi equal 2400.0

# coordination number cutoff

variable r equal 2.835

# minimization parameters

variable etol equal 1.0e-5
variable ftol equal 1.0e-5
variable maxiter equal 100
variable maxeval equal 100
variable dmax equal 1.0e-1

# diamond unit cell

variable a equal 5.431
lattice         custom $a                               a1 1.0 0.0 0.0                          a2 0.0 1.0 0.0                          a3 0.0 0.0 1.0                          basis 0.0 0.0 0.0                       basis 0.0 0.5 0.5                       basis 0.5 0.0 0.5                       basis 0.5 0.5 0.0                       basis 0.25 0.25 0.25                    basis 0.25 0.75 0.75                    basis 0.75 0.25 0.75                    basis 0.75 0.75 0.25
lattice         custom 5.431                               a1 1.0 0.0 0.0                          a2 0.0 1.0 0.0                          a3 0.0 0.0 1.0                          basis 0.0 0.0 0.0                       basis 0.0 0.5 0.5                       basis 0.5 0.0 0.5                       basis 0.5 0.5 0.0                       basis 0.25 0.25 0.25                    basis 0.25 0.75 0.75                    basis 0.75 0.25 0.75                    basis 0.75 0.75 0.25
Lattice spacing in x,y,z = 5.431 5.431 5.431

region          myreg block     0 4                                 0 4                                 0 4
create_box      1 myreg
Created orthogonal box = (0 0 0) to (21.724 21.724 21.724)
  1 by 1 by 1 MPI processor grid
create_atoms    1 region myreg
Created 512 atoms

mass            1       28.06

group Si type 1
512 atoms in group Si

velocity all create ${thi} 5287286 mom yes rot yes dist gaussian
velocity all create 2400 5287286 mom yes rot yes dist gaussian

# make a vacancy

group del id 300
1 atoms in group del
delete_atoms group del
Deleted 1 atoms, new total = 511

pair_style      sw
pair_coeff * * Si.sw Si

thermo          10

fix             1 all nve
fix 		2 all langevin ${thi} ${thi} 0.1 48278
fix 		2 all langevin 2400 ${thi} 0.1 48278
fix 		2 all langevin 2400 2400 0.1 48278

timestep        1.0e-3
neighbor        1.0 bin
neigh_modify    every 1 delay 10 check yes

# equilibrate

run             1000
Memory usage per processor = 2.0318 Mbytes
Step Temp E_pair E_mol TotEng Press 
       0    2397.3877    -2211.666            0   -2053.6238    16437.395 
      10    1408.3954   -2139.6418            0   -2046.7966    19704.911 
      20    1093.6239   -2098.8191            0   -2026.7244    19039.499 
      30    1697.5623   -2125.7046            0   -2013.7967    14407.763 
      40    1432.3638   -2098.9446            0   -2004.5194    13762.586 
      50    1355.5121    -2075.899            0     -1986.54    15232.765 
      60    1740.8873   -2091.9136            0   -1977.1496    12856.126 
      70    1729.3154   -2080.3289            0   -1966.3278    13304.077 
      80    1544.9927   -2060.2808            0   -1958.4307    14545.574 
      90     1856.846   -2074.3867            0   -1951.9784    14679.213 
     100    1926.6837   -2075.6481            0   -1948.6359    15581.373 
     110    1952.0127   -2066.2941            0   -1937.6122    17867.407 
     120    2127.5273   -2070.5556            0   -1930.3033    18800.477 
     130    2263.2625   -2070.7786            0   -1921.5783    17480.258 
     140    2108.2074   -2055.1663            0   -1916.1876     18061.09 
     150    2108.0709   -2056.9914            0   -1918.0217    16185.697 
     160      2250.38   -2061.9776            0   -1913.6265    14775.208 
     170    2094.3406   -2051.5912            0   -1913.5267    15618.246 
     180    2133.2342   -2054.0585            0     -1913.43    14703.698 
     190    2167.8664   -2054.4793            0   -1911.5678    14412.634 
     200    2081.1592   -2044.2284            0   -1907.0328    16067.013 
     210    2193.7422   -2046.2424            0   -1901.6251    17491.305 
     220    2402.1726   -2058.7802            0   -1900.4225    16445.048 
     230    2236.7528    -2050.463            0   -1903.0103    15555.164 
     240    2073.9668   -2040.1169            0   -1903.3955    14943.188 
     250    2257.4854   -2050.8203            0   -1902.0008    15445.431 
     260     2315.568   -2051.1362            0   -1898.4877    16359.564 
     270    2262.0937   -2049.0576            0   -1899.9343    15948.584 
     280     2309.251   -2049.7917            0   -1897.5597    14754.994 
     290    2222.9618   -2047.2347            0   -1900.6911     14707.58 
     300    2150.8078   -2041.3575            0   -1899.5705    16172.518 
     310    2228.9047   -2040.8171            0   -1893.8817    17426.066 
     320    2376.2682   -2048.5423            0   -1891.8923    15802.606 
     330    2320.7227   -2042.4295            0   -1889.4413    16474.996 
     340    2310.4682    -2042.508            0   -1890.1957    16597.877 
     350    2466.8374   -2045.3922            0   -1882.7716    17771.513 
     360    2382.7707   -2044.9519            0   -1887.8733    16757.953 
     370    2318.9975   -2047.2097            0   -1894.3352    15267.698 
     380    2227.9435   -2038.9468            0   -1892.0748    15167.633 
     390     2241.238   -2035.6191            0   -1887.8707    16413.388 
     400    2298.3869   -2035.5143            0   -1883.9985    17573.361 
     410    2439.1094   -2041.2185            0   -1880.4259    17417.366 
     420    2438.0816   -2040.4181            0   -1879.6933    17000.799 
     430     2419.621   -2039.4524            0   -1879.9446    17277.841 
     440    2400.3962    -2036.392            0   -1878.1515    17353.749 
     450     2400.084   -2034.8541            0   -1876.6341    17301.395 
     460     2443.232   -2038.2591            0   -1877.1947    15880.125 
     470     2399.563   -2032.3026            0    -1874.117    14524.504 
     480    2379.1642   -2028.2813            0   -1871.4404    15080.571 
     490     2257.134   -2030.7105            0   -1881.9142    13267.538 
     500    2303.4365    -2033.254            0   -1881.4053    13303.626 
     510    2224.8834   -2029.9027            0   -1883.2324    15142.358 
     520    2259.6418   -2032.3898            0   -1883.4281    14426.825 
     530    2244.3528    -2036.563            0   -1888.6093    13611.835 
     540    2289.2186    -2033.577            0   -1882.6656    14593.524 
     550    2314.1805   -2030.4002            0   -1877.8432    16550.978 
     560    2434.1597   -2038.2171            0   -1877.7507    15320.174 
     570    2356.8023   -2033.9511            0   -1878.5843    15767.645 
     580    2448.0436   -2037.9988            0   -1876.6172    15958.914 
     590     2483.692   -2034.8435            0   -1871.1118    16533.816 
     600    2428.7684   -2032.2828            0   -1872.1719    17139.354 
     610    2369.1226   -2030.2599            0    -1874.081    15171.807 
     620    2351.8958   -2032.3817            0   -1877.3384    12759.907 
     630    2419.4363   -2037.1648            0   -1877.6691    12759.528 
     640    2306.8968   -2027.1601            0   -1875.0833    13699.543 
     650    2240.4669   -2023.1048            0   -1875.4073    14586.771 
     660    2303.5839   -2027.6735            0   -1875.8151    15077.465 
     670     2379.955   -2030.0505            0   -1873.1575     15633.06 
     680    2354.1404   -2030.6415            0   -1875.4502    16414.371 
     690    2427.7365   -2032.9922            0   -1872.9493    17097.223 
     700     2475.846    -2034.693            0   -1871.4786    18851.309 
     710    2456.3338   -2031.7442            0   -1869.8161    19487.645 
     720    2447.4768   -2037.4819            0   -1876.1377    17474.031 
     730    2435.1585   -2037.6942            0    -1877.162    16882.364 
     740    2391.3302   -2037.1798            0   -1879.5369    16071.534 
     750     2326.452   -2029.9922            0   -1876.6263    16117.229 
     760    2257.6714   -2022.4776            0   -1873.6458    17738.278 
     770    2371.2269   -2027.8008            0   -1871.4832    18100.791 
     780    2407.1838   -2030.3917            0   -1871.7037    17026.917 
     790    2367.9404   -2026.9448            0   -1870.8438    16038.578 
     800    2374.6123   -2033.0121            0   -1876.4713    14038.371 
     810    2424.6786   -2036.3506            0   -1876.5093    14206.078 
     820    2168.9017   -2026.7054            0   -1883.7256    16263.054 
     830    2323.0047   -2033.1056            0    -1879.967    17703.971 
     840    2498.7372    -2040.984            0   -1876.2606    17876.907 
     850    2460.7818   -2036.0467            0   -1873.8254    18545.104 
     860    2492.3205   -2034.6257            0   -1870.3253    19534.056 
     870    2575.2601   -2040.6532            0   -1870.8852     18719.18 
     880    2401.7961   -2030.4479            0   -1872.1151    17576.352 
     890    2386.7565   -2029.1495            0   -1871.8081     16681.21 
     900    2331.1129   -2028.8907            0   -1875.2175    14827.322 
     910    2414.7425   -2029.6198            0   -1870.4335    15192.331 
     920    2454.6751   -2027.6775            0   -1865.8587    15974.309 
     930    2428.2206   -2031.2363            0   -1871.1615    16206.415 
     940    2338.8519   -2027.1405            0   -1872.9572    15790.925 
     950    2342.8708   -2025.5463            0   -1871.0979    14662.456 
     960    2446.3658   -2027.9008            0   -1866.6298    16178.407 
     970    2479.8875   -2029.3424            0   -1865.8616     15827.32 
     980    2477.0203     -2028.29            0   -1864.9982    14789.439 
     990    2409.3478   -2024.9793            0   -1866.1486    14519.793 
    1000    2403.9699   -2022.9475            0   -1864.4714    15470.426 
Loop time of 2.32818 on 1 procs for 1000 steps with 511 atoms

Pair  time (%) = 2.24292 (96.338)
Neigh time (%) = 0.038924 (1.67186)
Comm  time (%) = 0.00952697 (0.409203)
Outpt time (%) = 0.00082469 (0.0354221)
Other time (%) = 0.0359831 (1.54555)

Nlocal:    511 ave 511 max 511 min
Histogram: 1 0 0 0 0 0 0 0 0 0
Nghost:    1021 ave 1021 max 1021 min
Histogram: 1 0 0 0 0 0 0 0 0 0
Neighs:    0 ave 0 max 0 min
Histogram: 1 0 0 0 0 0 0 0 0 0
FullNghs:  13046 ave 13046 max 13046 min
Histogram: 1 0 0 0 0 0 0 0 0 0

Total # of neighbors = 13046
Ave neighs/atom = 25.5303
Neighbor list builds = 56
Dangerous builds = 0

# Eliminate COM motion
velocity all zero linear

# only output atoms near vacancy

compute coord all coord/atom $r
compute coord all coord/atom 2.835

#dump events all custom 1 dump.prd id type x y z
#dump_modify events thresh c_coord != 4

compute  patom all pe/atom
compute  pe all reduce sum c_patom
compute  satom all stress/atom
compute  str all reduce sum c_satom[1] c_satom[2] c_satom[3]
variable press equal (c_str[1]+c_str[2]+c_str[3])/(3*vol)

thermo_style custom step temp pe c_pe press v_press

compute         event all event/displace 1.0

unfix 1
unfix 2
fix 		1 all nvt temp ${thi} ${thi} 0.1
fix 		1 all nvt temp 2400 ${thi} 0.1
fix 		1 all nvt temp 2400 2400 0.1

# tad nsteps nevent tlo thi delta_conf tmax compute
#     [min etol ftol niter neval]
#     [neb etol_neb ftol_neb n1steps n2steps nevery]
#     [neb_style min_style]
#     [neb_log logfile]

tad 2000 50 ${tlo} ${thi} 0.05 1.0 event     min ${etol} ${ftol} ${maxiter} ${maxeval}     neb 0.0 0.01 200 200 20 neb_style fire neb_log log.neb
tad 2000 50 1800 ${thi} 0.05 1.0 event     min ${etol} ${ftol} ${maxiter} ${maxeval}     neb 0.0 0.01 200 200 20 neb_style fire neb_log log.neb
tad 2000 50 1800 2400 0.05 1.0 event     min ${etol} ${ftol} ${maxiter} ${maxeval}     neb 0.0 0.01 200 200 20 neb_style fire neb_log log.neb
tad 2000 50 1800 2400 0.05 1.0 event     min 1e-05 ${ftol} ${maxiter} ${maxeval}     neb 0.0 0.01 200 200 20 neb_style fire neb_log log.neb
tad 2000 50 1800 2400 0.05 1.0 event     min 1e-05 1e-05 ${maxiter} ${maxeval}     neb 0.0 0.01 200 200 20 neb_style fire neb_log log.neb
tad 2000 50 1800 2400 0.05 1.0 event     min 1e-05 1e-05 100 ${maxeval}     neb 0.0 0.01 200 200 20 neb_style fire neb_log log.neb
tad 2000 50 1800 2400 0.05 1.0 event     min 1e-05 1e-05 100 100     neb 0.0 0.01 200 200 20 neb_style fire neb_log log.neb
Memory usage per processor = 4.28247 Mbytes
Step Temp PotEng pe Press press 
    1000     2402.628   -2022.9475   -2022.9475     15461.21    -15461.21 
    1010     2402.628   -2209.0552   -2209.0552     13124.77    -13124.77 
    1020     2402.628   -2213.2419   -2213.2419    13109.348   -13109.348 
    1022     2402.628   -2213.2803   -2213.2803    13111.643   -13111.643 
Loop time of 0.0572851 on 1 procs for 22 steps with 511 atoms

Minimization stats:
  Stopping criterion = energy tolerance
  Energy initial, next-to-last, final = 
        -2022.94753371     -2213.26863148     -2213.28029768
  Force two-norm initial, final = 70.3784 0.377272
  Force max component initial, final = 5.75308 0.037084
  Final line search alpha, max atom move = 0.0625 0.00231775
  Iterations, force evaluations = 22 50

Pair  time (%) = 2.29757 (4010.76)
Neigh time (%) = 0.0402651 (70.289)
Comm  time (%) = 0.00998044 (17.4224)
Outpt time (%) = 0.000959635 (1.67519)
Other time (%) = -2.29149 (-4000.14)

Nlocal:    511 ave 511 max 511 min
Histogram: 1 0 0 0 0 0 0 0 0 0
Nghost:    1017 ave 1017 max 1017 min
Histogram: 1 0 0 0 0 0 0 0 0 0
Neighs:    0 ave 0 max 0 min
Histogram: 1 0 0 0 0 0 0 0 0 0
FullNghs:  14256 ave 14256 max 14256 min
Histogram: 1 0 0 0 0 0 0 0 0 0

Total # of neighbors = 14256
Ave neighs/atom = 27.8982
Neighbor list builds = 2
Dangerous builds = 0
Memory usage per processor = 4.12988 Mbytes
Step Temp PotEng pe Press press 
    1000     2402.628   -2022.9475   -2022.9475     15461.21    -15461.21 
Memory usage per processor = 4.12988 Mbytes
Step Temp PotEng pe Press press 
    1150            0   -2210.3277   -2210.3277   -2894.1659    2894.1659 
    1160  0.045546186   -2210.3303   -2210.3303   -2888.8827    2888.8827 
    1170   0.22408906    -2210.342    -2210.342   -2849.8485    2849.8485 
    1180   0.32576846   -2210.3587   -2210.3587   -2889.0302    2889.0302 
    1190    1.6466557   -2210.2953   -2210.2953   -2853.5307    2853.5307 
    1200      1.62901   -2210.3667   -2210.3667   -2872.4503    2872.4503 
    1210  0.098334254   -2210.3767   -2210.3767   -2882.5374    2882.5374 
    1220  0.099325856   -2210.3776   -2210.3776   -2869.2007    2869.2007 
    1230   0.24054943   -2210.3781   -2210.3781   -2865.9151    2865.9151 
    1240   0.21405435   -2210.3783   -2210.3783   -2903.1924    2903.1924 
    1250  0.011952849   -2210.3557   -2210.3557   -2955.1853    2955.1853 
    1260  0.020229835   -2210.3779   -2210.3779   -2911.9658    2911.9658 
    1270  0.045461562   -2210.3796   -2210.3796   -2876.6379    2876.6379 
    1280  0.061069517    -2210.366    -2210.366   -2946.7737    2946.7737 
    1290  0.091391588   -2210.3795   -2210.3795   -2898.9097    2898.9097 
    1300 0.0073476116     -2210.38     -2210.38   -2887.8397    2887.8397 
    1310 0.00027778199   -2210.3796   -2210.3796   -2898.5456    2898.5456 
    1320 2.0186862e-05     -2210.38     -2210.38   -2889.6673    2889.6673 
    1330 9.4409234e-06     -2210.38     -2210.38    -2886.868     2886.868 
    1340 0.00011717411     -2210.38     -2210.38   -2885.2476    2885.2476 
    1350 0.0002291281     -2210.38     -2210.38    -2887.003     2887.003 
Loop time of 0.207195 on 1 procs for 200 steps with 511 atoms

Minimization stats:
  Stopping criterion = max iterations
  Energy initial, next-to-last, final = 
        -2210.32771293     -2210.37998452       -2210.379989
  Force two-norm initial, final = 0.761559 0.0217685
  Force max component initial, final = 0.141109 0.0111734
  Final line search alpha, max atom move = 0 0
  Iterations, force evaluations = 200 200

Pair  time (%) = 0.185635 (89.5944)
Neigh time (%) = 0 (0)
Comm  time (%) = 0.00158811 (0.766479)
Outpt time (%) = 0.0014019 (0.676609)
Other time (%) = 0.0185699 (8.96254)

Nlocal:    511 ave 511 max 511 min
Histogram: 1 0 0 0 0 0 0 0 0 0
Nghost:    1017 ave 1017 max 1017 min
Histogram: 1 0 0 0 0 0 0 0 0 0
Neighs:    0 ave 0 max 0 min
Histogram: 1 0 0 0 0 0 0 0 0 0
FullNghs:  14232 ave 14232 max 14232 min
Histogram: 1 0 0 0 0 0 0 0 0 0

Total # of neighbors = 14232
Ave neighs/atom = 27.8513
Neighbor list builds = 0
Dangerous builds = 0
Memory usage per processor = 4.12988 Mbytes
Step Temp PotEng pe Press press 
    1350            0     -2210.38     -2210.38   -2887.0046    2887.0046 
    1360 3.4226151e-05     -2210.38     -2210.38   -2887.2528    2887.2528 
    1365 8.5273308e-05     -2210.38     -2210.38   -2887.8494    2887.8494 
Loop time of 0.0162449 on 1 procs for 15 steps with 511 atoms

Minimization stats:
  Stopping criterion = force tolerance
  Energy initial, next-to-last, final = 
          -2210.379989     -2210.37999352     -2210.37999417
  Force two-norm initial, final = 0.0217685 0.00819984
  Force max component initial, final = 0.0111734 0.00419214
  Final line search alpha, max atom move = 0 0
  Iterations, force evaluations = 15 15

Pair  time (%) = 0.0149157 (91.8178)
Neigh time (%) = 0 (0)
Comm  time (%) = 0.000126362 (0.777856)
Outpt time (%) = 6.79493e-05 (0.418281)
Other time (%) = 0.00113487 (6.98603)

Nlocal:    511 ave 511 max 511 min
Histogram: 1 0 0 0 0 0 0 0 0 0
Nghost:    1017 ave 1017 max 1017 min
Histogram: 1 0 0 0 0 0 0 0 0 0
Neighs:    0 ave 0 max 0 min
Histogram: 1 0 0 0 0 0 0 0 0 0
FullNghs:  14232 ave 14232 max 14232 min
Histogram: 1 0 0 0 0 0 0 0 0 0

Total # of neighbors = 14232
Ave neighs/atom = 27.8513
Neighbor list builds = 0
Dangerous builds = 0
Memory usage per processor = 4.12988 Mbytes
Step Temp PotEng pe Press press 
    1550            0   -2213.2368   -2213.2368   -3396.2547    3396.2547 
    1560  0.017553826   -2213.2378   -2213.2378   -3395.5076    3395.5076 
    1570   0.18840366    -2213.247    -2213.247    -3389.484     3389.484 
    1580   0.71975322   -2213.2878   -2213.2878   -3386.1174    3386.1174 
    1590   0.17099262   -2213.3318   -2213.3318   -3385.0303    3385.0303 
    1600 0.00030807027   -2213.3329   -2213.3329   -3385.0577    3385.0577 
    1610  0.010638043   -2213.3335   -2213.3335   -3383.4929    3383.4929 
    1620   0.04133535   -2213.3359   -2213.3359   -3383.8146    3383.8146 
    1630 0.00025979093   -2213.3363   -2213.3363   -3383.9564    3383.9564 
    1640 0.0028240133   -2213.3365   -2213.3365   -3383.1854    3383.1854 
    1650 0.0003080049    -2213.337    -2213.337   -3383.2463    3383.2463 
    1660 0.00024316945    -2213.337    -2213.337   -3383.4398    3383.4398 
    1670 0.0021452615   -2213.3371   -2213.3371   -3383.4536    3383.4536 
    1680 0.0013817777   -2213.3374   -2213.3374   -3383.4174    3383.4174 
Loop time of 0.131215 on 1 procs for 130 steps with 511 atoms

Minimization stats:
  Stopping criterion = force tolerance
  Energy initial, next-to-last, final = 
        -2213.23675492     -2213.33734116     -2213.33736215
  Force two-norm initial, final = 0.469509 0.00903333
  Force max component initial, final = 0.0569166 0.000708199
  Final line search alpha, max atom move = 0 0
  Iterations, force evaluations = 130 130

Pair  time (%) = 0.114941 (87.5977)
Neigh time (%) = 0 (0)
Comm  time (%) = 0.00104594 (0.79712)
Outpt time (%) = 0.00079608 (0.606698)
Other time (%) = 0.0144317 (10.9985)

Nlocal:    511 ave 511 max 511 min
Histogram: 1 0 0 0 0 0 0 0 0 0
Nghost:    1017 ave 1017 max 1017 min
Histogram: 1 0 0 0 0 0 0 0 0 0
Neighs:    0 ave 0 max 0 min
Histogram: 1 0 0 0 0 0 0 0 0 0
FullNghs:  14256 ave 14256 max 14256 min
Histogram: 1 0 0 0 0 0 0 0 0 0

Total # of neighbors = 14256
Ave neighs/atom = 27.8982
Neighbor list builds = 0
Dangerous builds = 0
Memory usage per processor = 4.12988 Mbytes
Step Temp PotEng pe Press press 
    1680            0   -2213.3374   -2213.3374   -3383.4269    3383.4269 
    1681 5.3204055e-08   -2213.3374   -2213.3374   -3383.4269    3383.4269 
Loop time of 0.00214791 on 1 procs for 1 steps with 511 atoms

Minimization stats:
  Stopping criterion = force tolerance
  Energy initial, next-to-last, final = 
        -2213.33736215     -2213.33736215     -2213.33736215
  Force two-norm initial, final = 0.00903333 0.00903333
  Force max component initial, final = 0.000708199 0.000708199
  Final line search alpha, max atom move = 0 0
  Iterations, force evaluations = 1 1

Pair  time (%) = 0.00185823 (86.5135)
Neigh time (%) = 0 (0)
Comm  time (%) = 1.57356e-05 (0.732601)
Outpt time (%) = 0 (0)
Other time (%) = 0.000273943 (12.7539)

Nlocal:    511 ave 511 max 511 min
Histogram: 1 0 0 0 0 0 0 0 0 0
Nghost:    1017 ave 1017 max 1017 min
Histogram: 1 0 0 0 0 0 0 0 0 0
Neighs:    0 ave 0 max 0 min
Histogram: 1 0 0 0 0 0 0 0 0 0
FullNghs:  14256 ave 14256 max 14256 min
Histogram: 1 0 0 0 0 0 0 0 0 0

Total # of neighbors = 14256
Ave neighs/atom = 27.8982
Neighbor list builds = 0
Dangerous builds = 0
Memory usage per processor = 4.12988 Mbytes
Step Temp PotEng pe Press press 
    1950            0   -2210.3201   -2210.3201   -2984.6338    2984.6338 
    1960  0.013861641   -2210.3209   -2210.3209   -2987.1748    2987.1748 
    1970  0.093792212   -2210.3255   -2210.3255    -3002.387     3002.387 
    1980  0.011635204   -2210.3308   -2210.3308   -2996.1387    2996.1387 
    1990 0.00027978743    -2210.337    -2210.337    -2987.537     2987.537 
    2000  0.058574477   -2210.3397   -2210.3397   -2986.8033    2986.8033 
    2010 0.0016154609   -2210.3515   -2210.3515   -2974.0646    2974.0646 
    2020  0.066783969   -2210.3559   -2210.3559   -2966.1412    2966.1412 
    2030 7.0632173e-05   -2210.3589   -2210.3589   -2961.3173    2961.3173 
    2040  0.012923444   -2210.3595   -2210.3595   -2959.2601    2959.2601 
    2050  0.062253153   -2210.3637   -2210.3637   -2944.6213    2944.6213 
    2060 0.00011308861   -2210.3663   -2210.3663   -2925.7193    2925.7193 
    2070 7.8462036e-05   -2210.3664   -2210.3664   -2925.3413    2925.3413 
    2080 9.313444e-06   -2210.3665   -2210.3665   -2924.6479    2924.6479 
    2090 0.00030497145   -2210.3665   -2210.3665   -2924.3389    2924.3389 
    2100 0.0015156372   -2210.3666   -2210.3666   -2920.7061    2920.7061 
    2110 8.2443083e-06   -2210.3666   -2210.3666   -2918.6538    2918.6538 
    2120 0.00024131981   -2210.3666   -2210.3666   -2918.0428    2918.0428 
    2130 0.0010699525   -2210.3667   -2210.3667   -2912.9843    2912.9843 
    2134 2.7296435e-05   -2210.3667   -2210.3667   -2911.8308    2911.8308 
Loop time of 0.18685 on 1 procs for 184 steps with 511 atoms

Minimization stats:
  Stopping criterion = force tolerance
  Energy initial, next-to-last, final = 
        -2210.32008703     -2210.36673131     -2210.36673191
  Force two-norm initial, final = 0.420868 0.00515073
  Force max component initial, final = 0.164469 0.00106042
  Final line search alpha, max atom move = 0 0
  Iterations, force evaluations = 184 184

Pair  time (%) = 0.170303 (91.1444)
Neigh time (%) = 0 (0)
Comm  time (%) = 0.00148606 (0.795324)
Outpt time (%) = 0.001194 (0.639015)
Other time (%) = 0.0138667 (7.42128)

Nlocal:    511 ave 511 max 511 min
Histogram: 1 0 0 0 0 0 0 0 0 0
Nghost:    1017 ave 1017 max 1017 min
Histogram: 1 0 0 0 0 0 0 0 0 0
Neighs:    0 ave 0 max 0 min
Histogram: 1 0 0 0 0 0 0 0 0 0
FullNghs:  14222 ave 14222 max 14222 min
Histogram: 1 0 0 0 0 0 0 0 0 0

Total # of neighbors = 14222
Ave neighs/atom = 27.8317
Neighbor list builds = 0
Dangerous builds = 0
Memory usage per processor = 4.12988 Mbytes
Step Temp PotEng pe Press press 
    2134            0   -2210.3667   -2210.3667    -2911.831     2911.831 
    2135 1.7297653e-08   -2210.3667   -2210.3667    -2911.831     2911.831 
Loop time of 0.00218916 on 1 procs for 1 steps with 511 atoms

Minimization stats:
  Stopping criterion = force tolerance
  Energy initial, next-to-last, final = 
        -2210.36673191     -2210.36673191     -2210.36673191
  Force two-norm initial, final = 0.00515073 0.00515073
  Force max component initial, final = 0.00106042 0.00106042
  Final line search alpha, max atom move = 0 0
  Iterations, force evaluations = 1 1

Pair  time (%) = 0.0019598 (89.523)
Neigh time (%) = 0 (0)
Comm  time (%) = 1.57356e-05 (0.718798)
Outpt time (%) = 0 (0)
Other time (%) = 0.000213623 (9.75822)

Nlocal:    511 ave 511 max 511 min
Histogram: 1 0 0 0 0 0 0 0 0 0
Nghost:    1017 ave 1017 max 1017 min
Histogram: 1 0 0 0 0 0 0 0 0 0
Neighs:    0 ave 0 max 0 min
Histogram: 1 0 0 0 0 0 0 0 0 0
FullNghs:  14230 ave 14230 max 14230 min
Histogram: 1 0 0 0 0 0 0 0 0 0

Total # of neighbors = 14230
Ave neighs/atom = 27.8474
Neighbor list builds = 0
Dangerous builds = 0
Memory usage per processor = 4.12988 Mbytes
Step Temp PotEng pe Press press 
    2350            0   -2213.3234   -2213.3234   -3384.2624    3384.2624 
    2360  0.021147041   -2213.3247   -2213.3247   -3384.1653    3384.1653 
    2370   0.11096211   -2213.3304   -2213.3304   -3383.1015    3383.1015 
    2380   0.07433347   -2213.3334   -2213.3334   -3383.0791    3383.0791 
    2390 0.00028879764    -2213.335    -2213.335   -3383.6045    3383.6045 
    2400  0.018265242   -2213.3361   -2213.3361   -3383.2468    3383.2468 
    2410  0.014442352   -2213.3359   -2213.3359   -3382.5336    3382.5336 
    2420 0.0023103136   -2213.3369   -2213.3369   -3383.5229    3383.5229 
    2430 0.0071629319   -2213.3373   -2213.3373   -3383.4714    3383.4714 
    2440 0.0019261358   -2213.3373   -2213.3373   -3383.5031    3383.5031 
    2450 0.00078060631   -2213.3373   -2213.3373   -3383.3638    3383.3638 
    2460 0.00094126202   -2213.3373   -2213.3373   -3383.6061    3383.6061 
    2470  5.74295e-05   -2213.3374   -2213.3374   -3383.4876    3383.4876 
    2480 0.00022803071   -2213.3374   -2213.3374   -3383.3061    3383.3061 
    2490 6.098431e-05   -2213.3374   -2213.3374   -3383.3865    3383.3865 
    2500 0.00021613268   -2213.3374   -2213.3374   -3383.4454    3383.4454 
    2505 6.6755188e-05   -2213.3374   -2213.3374   -3383.3914    3383.3914 
Loop time of 0.154501 on 1 procs for 155 steps with 511 atoms

Minimization stats:
  Stopping criterion = force tolerance
  Energy initial, next-to-last, final = 
        -2213.32344578     -2213.33738474     -2213.33738533
  Force two-norm initial, final = 0.528632 0.0022528
  Force max component initial, final = 0.0645645 0.000205983
  Final line search alpha, max atom move = 0 0
  Iterations, force evaluations = 155 155

Pair  time (%) = 0.136355 (88.2548)
Neigh time (%) = 0 (0)
Comm  time (%) = 0.00125432 (0.811851)
Outpt time (%) = 0.00100398 (0.649821)
Other time (%) = 0.0158882 (10.2836)

Nlocal:    511 ave 511 max 511 min
Histogram: 1 0 0 0 0 0 0 0 0 0
Nghost:    1017 ave 1017 max 1017 min
Histogram: 1 0 0 0 0 0 0 0 0 0
Neighs:    0 ave 0 max 0 min
Histogram: 1 0 0 0 0 0 0 0 0 0
FullNghs:  14256 ave 14256 max 14256 min
Histogram: 1 0 0 0 0 0 0 0 0 0

Total # of neighbors = 14256
Ave neighs/atom = 27.8982
Neighbor list builds = 0
Dangerous builds = 0
Memory usage per processor = 4.12988 Mbytes
Step Temp PotEng pe Press press 
    2505            0   -2213.3374   -2213.3374   -3383.3919    3383.3919 
    2506 3.308969e-09   -2213.3374   -2213.3374   -3383.3919    3383.3919 
Loop time of 0.00214386 on 1 procs for 1 steps with 511 atoms

Minimization stats:
  Stopping criterion = force tolerance
  Energy initial, next-to-last, final = 
        -2213.33738533     -2213.33738533     -2213.33738533
  Force two-norm initial, final = 0.0022528 0.0022528
  Force max component initial, final = 0.000205983 0.000205983
  Final line search alpha, max atom move = 0 0
  Iterations, force evaluations = 1 1

Pair  time (%) = 0.0018611 (86.8105)
Neigh time (%) = 0 (0)
Comm  time (%) = 1.71661e-05 (0.800712)
Outpt time (%) = 0 (0)
Other time (%) = 0.000265598 (12.3888)

Nlocal:    511 ave 511 max 511 min
Histogram: 1 0 0 0 0 0 0 0 0 0
Nghost:    1017 ave 1017 max 1017 min
Histogram: 1 0 0 0 0 0 0 0 0 0
Neighs:    0 ave 0 max 0 min
Histogram: 1 0 0 0 0 0 0 0 0 0
FullNghs:  14256 ave 14256 max 14256 min
Histogram: 1 0 0 0 0 0 0 0 0 0

Total # of neighbors = 14256
Ave neighs/atom = 27.8982
Neighbor list builds = 0
Dangerous builds = 0
Memory usage per processor = 4.12988 Mbytes
Step Temp PotEng pe Press press 
    2800            0   -2210.2791   -2210.2791   -2897.8685    2897.8685 
    2810  0.055196749   -2210.2823   -2210.2823   -2896.5061    2896.5061 
    2820   0.42334092   -2210.3027   -2210.3027   -2883.5601    2883.5601 
    2830  0.032665693   -2210.3133   -2210.3133   -2879.5314    2879.5314 
    2840   0.29048201   -2210.3287   -2210.3287   -2883.4205    2883.4205 
    2850  0.041240012   -2210.3444   -2210.3444   -2886.0946    2886.0946 
    2860 0.0048994194    -2210.352    -2210.352   -2885.7211    2885.7211 
    2870   0.07808985   -2210.3569   -2210.3569   -2889.2821    2889.2821 
    2880 5.3891409e-05   -2210.3618   -2210.3618   -2891.9553    2891.9553 
    2890 0.0090531794   -2210.3624   -2210.3624   -2893.3718    2893.3718 
    2900 7.7295186e-05   -2210.3648   -2210.3648   -2896.7351    2896.7351 
    2910 0.00088421571   -2210.3649   -2210.3649   -2896.2499    2896.2499 
    2920  0.010484186   -2210.3655   -2210.3655    -2897.499     2897.499 
    2930 2.4767438e-05   -2210.3667   -2210.3667   -2902.7969    2902.7969 
    2940 0.00010008692   -2210.3667   -2210.3667   -2902.9066    2902.9066 
    2950 7.1077893e-06   -2210.3667   -2210.3667   -2903.5861    2903.5861 
    2956 7.606203e-05   -2210.3667   -2210.3667   -2903.7449    2903.7449 
Loop time of 0.158588 on 1 procs for 156 steps with 511 atoms

Minimization stats:
  Stopping criterion = force tolerance
  Energy initial, next-to-last, final = 
        -2210.27913224     -2210.36673821      -2210.3667393
  Force two-norm initial, final = 0.825084 0.00489118
  Force max component initial, final = 0.110945 0.000655369
  Final line search alpha, max atom move = 0 0
  Iterations, force evaluations = 156 156

Pair  time (%) = 0.145183 (91.5469)
Neigh time (%) = 0 (0)
Comm  time (%) = 0.00125718 (0.792733)
Outpt time (%) = 0.00101614 (0.640741)
Other time (%) = 0.0111322 (7.01959)

Nlocal:    511 ave 511 max 511 min
Histogram: 1 0 0 0 0 0 0 0 0 0
Nghost:    1017 ave 1017 max 1017 min
Histogram: 1 0 0 0 0 0 0 0 0 0
Neighs:    0 ave 0 max 0 min
Histogram: 1 0 0 0 0 0 0 0 0 0
FullNghs:  14230 ave 14230 max 14230 min
Histogram: 1 0 0 0 0 0 0 0 0 0

Total # of neighbors = 14230
Ave neighs/atom = 27.8474
Neighbor list builds = 0
Dangerous builds = 0
Memory usage per processor = 4.12988 Mbytes
Step Temp PotEng pe Press press 
    2956            0   -2210.3667   -2210.3667   -2903.7455    2903.7455 
    2957 1.5598239e-08   -2210.3667   -2210.3667   -2903.7455    2903.7455 
Loop time of 0.00216699 on 1 procs for 1 steps with 511 atoms

Minimization stats:
  Stopping criterion = force tolerance
  Energy initial, next-to-last, final = 
         -2210.3667393      -2210.3667393      -2210.3667393
  Force two-norm initial, final = 0.00489118 0.00489118
  Force max component initial, final = 0.000655369 0.000655369
  Final line search alpha, max atom move = 0 0
  Iterations, force evaluations = 1 1

Pair  time (%) = 0.00196528 (90.692)
Neigh time (%) = 0 (0)
Comm  time (%) = 1.69277e-05 (0.781164)
Outpt time (%) = 0 (0)
Other time (%) = 0.000184774 (8.52679)

Nlocal:    511 ave 511 max 511 min
Histogram: 1 0 0 0 0 0 0 0 0 0
Nghost:    1017 ave 1017 max 1017 min
Histogram: 1 0 0 0 0 0 0 0 0 0
Neighs:    0 ave 0 max 0 min
Histogram: 1 0 0 0 0 0 0 0 0 0
FullNghs:  14230 ave 14230 max 14230 min
Histogram: 1 0 0 0 0 0 0 0 0 0

Total # of neighbors = 14230
Ave neighs/atom = 27.8474
Neighbor list builds = 0
Dangerous builds = 0
Memory usage per processor = 4.12988 Mbytes
Step Temp PotEng pe Press press 
    1600            0   -2213.3006   -2213.3006    -3388.355     3388.355 
    1610  0.024904334    -2213.302    -2213.302   -3388.0528    3388.0528 
    1620   0.17393521   -2213.3116   -2213.3116   -3385.3608    3385.3608 
    1630    0.2853863   -2213.3253   -2213.3253   -3382.7654    3382.7654 
    1640  0.084084125   -2213.3077   -2213.3077    -3389.125     3389.125 
    1650  0.092294549   -2213.3356   -2213.3356   -3383.3091    3383.3091 
    1660   0.01116176   -2213.3362   -2213.3362   -3383.3982    3383.3982 
    1670 0.0001987559    -2213.337    -2213.337   -3383.5766    3383.5766 
    1680 0.00011721262   -2213.3372   -2213.3372   -3383.3141    3383.3141 
    1690 0.0010207951   -2213.3373   -2213.3373   -3383.3875    3383.3875 
    1700 0.0015522902   -2213.3373   -2213.3373   -3383.4571    3383.4571 
    1710 4.5862252e-05   -2213.3374   -2213.3374   -3383.4051    3383.4051 
    1719 0.00027787844   -2213.3374   -2213.3374   -3383.4055    3383.4055 
Loop time of 0.119257 on 1 procs for 119 steps with 511 atoms

Minimization stats:
  Stopping criterion = force tolerance
  Energy initial, next-to-last, final = 
        -2213.30055148     -2213.33737714     -2213.33737981
  Force two-norm initial, final = 0.56712 0.00690725
  Force max component initial, final = 0.0597908 0.000629412
  Final line search alpha, max atom move = 0 0
  Iterations, force evaluations = 119 119

Pair  time (%) = 0.105001 (88.0458)
Neigh time (%) = 0 (0)
Comm  time (%) = 0.000971079 (0.814273)
Outpt time (%) = 0.000755072 (0.633145)
Other time (%) = 0.0125301 (10.5068)

Nlocal:    511 ave 511 max 511 min
Histogram: 1 0 0 0 0 0 0 0 0 0
Nghost:    1017 ave 1017 max 1017 min
Histogram: 1 0 0 0 0 0 0 0 0 0
Neighs:    0 ave 0 max 0 min
Histogram: 1 0 0 0 0 0 0 0 0 0
FullNghs:  14256 ave 14256 max 14256 min
Histogram: 1 0 0 0 0 0 0 0 0 0

Total # of neighbors = 14256
Ave neighs/atom = 27.8982
Neighbor list builds = 0
Dangerous builds = 0
Memory usage per processor = 4.12988 Mbytes
Step Temp PotEng pe Press press 
    1719            0   -2213.3374   -2213.3374   -3383.4074    3383.4074 
    1720 3.110711e-08   -2213.3374   -2213.3374   -3383.4074    3383.4074 
    1730 4.8974483e-06   -2213.3374   -2213.3374    -3383.407     3383.407 
    1740 3.9267885e-05   -2213.3374   -2213.3374   -3383.4039    3383.4039 
    1750 0.0001017705   -2213.3374   -2213.3374   -3383.3961    3383.3961 
    1760 1.3224388e-05   -2213.3374   -2213.3374   -3383.3928    3383.3928 
    1770 2.1498068e-07   -2213.3374   -2213.3374    -3383.395     3383.395 
    1780 1.3730472e-06   -2213.3374   -2213.3374   -3383.3939    3383.3939 
    1790 7.310121e-08   -2213.3374   -2213.3374   -3383.3952    3383.3952 
    1800 4.3321842e-07   -2213.3374   -2213.3374   -3383.3943    3383.3943 
    1810 2.7572734e-08   -2213.3374   -2213.3374   -3383.3945    3383.3945 
    1820 7.3132811e-09   -2213.3374   -2213.3374   -3383.3945    3383.3945 
    1830 1.1486682e-09   -2213.3374   -2213.3374   -3383.3946    3383.3946 
    1840 7.674849e-09   -2213.3374   -2213.3374   -3383.3946    3383.3946 
    1850 6.7243141e-10   -2213.3374   -2213.3374   -3383.3946    3383.3946 
    1860 2.8260498e-10   -2213.3374   -2213.3374   -3383.3946    3383.3946 
    1870 1.0348422e-09   -2213.3374   -2213.3374   -3383.3946    3383.3946 
    1880 3.4183831e-10   -2213.3374   -2213.3374   -3383.3946    3383.3946 
    1890 4.4309163e-11   -2213.3374   -2213.3374   -3383.3946    3383.3946 
    1900 3.0520164e-12   -2213.3374   -2213.3374   -3383.3946    3383.3946 
    1910 3.5416723e-13   -2213.3374   -2213.3374   -3383.3946    3383.3946 
    1919 1.0442036e-11   -2213.3374   -2213.3374   -3383.3946    3383.3946 
Loop time of 0.200056 on 1 procs for 200 steps with 511 atoms

Minimization stats:
  Stopping criterion = max iterations
  Energy initial, next-to-last, final = 
        -2213.33737981      -2213.3373891      -2213.3373891
  Force two-norm initial, final = 0.00690725 3.52795e-06
  Force max component initial, final = 0.000629412 3.04112e-07
  Final line search alpha, max atom move = 0 0
  Iterations, force evaluations = 200 200

Pair  time (%) = 0.17532 (87.6357)
Neigh time (%) = 0 (0)
Comm  time (%) = 0.00159597 (0.797764)
Outpt time (%) = 0.00140595 (0.702781)
Other time (%) = 0.0217335 (10.8637)

Nlocal:    511 ave 511 max 511 min
Histogram: 1 0 0 0 0 0 0 0 0 0
Nghost:    1017 ave 1017 max 1017 min
Histogram: 1 0 0 0 0 0 0 0 0 0
Neighs:    0 ave 0 max 0 min
Histogram: 1 0 0 0 0 0 0 0 0 0
FullNghs:  14256 ave 14256 max 14256 min
Histogram: 1 0 0 0 0 0 0 0 0 0

Total # of neighbors = 14256
Ave neighs/atom = 27.8982
Neighbor list builds = 0
Dangerous builds = 0
Memory usage per processor = 4.12988 Mbytes
Step Temp PotEng pe Press press 
    1650            0   -2213.3239   -2213.3239   -3386.1773    3386.1773 
    1660 0.0073195324   -2213.3243   -2213.3243   -3385.9042    3385.9042 
    1670  0.034808767   -2213.3262   -2213.3262   -3383.8619    3383.8619 
    1680  0.086260095   -2213.3306   -2213.3306   -3385.0112    3385.0112 
    1690   0.23287764   -2213.3364   -2213.3364   -3382.4189    3382.4189 
    1700 0.00022645346   -2213.3367   -2213.3367   -3383.6451    3383.6451 
    1710 0.0024220359   -2213.3369   -2213.3369    -3383.163     3383.163 
    1720 0.0091637283   -2213.3371   -2213.3371   -3383.5561    3383.5561 
    1730 7.9032073e-05   -2213.3372   -2213.3372   -3383.4277    3383.4277 
    1740 0.00059108847   -2213.3372   -2213.3372   -3383.3729    3383.3729 
    1750 0.0033651771   -2213.3373   -2213.3373   -3383.4476    3383.4476 
    1760 0.00032229209   -2213.3374   -2213.3374   -3383.3983    3383.3983 
    1770 2.0327355e-05   -2213.3374   -2213.3374   -3383.4045    3383.4045 
    1778 6.2624972e-05   -2213.3374   -2213.3374   -3383.3969    3383.3969 
Loop time of 0.129143 on 1 procs for 128 steps with 511 atoms

Minimization stats:
  Stopping criterion = force tolerance
  Energy initial, next-to-last, final = 
        -2213.32390268     -2213.33737673     -2213.33737751
  Force two-norm initial, final = 0.312392 0.00416702
  Force max component initial, final = 0.0388694 0.000332204
  Final line search alpha, max atom move = 0 0
  Iterations, force evaluations = 128 128

Pair  time (%) = 0.11267 (87.2443)
Neigh time (%) = 0 (0)
Comm  time (%) = 0.00103927 (0.804741)
Outpt time (%) = 0.000793695 (0.614587)
Other time (%) = 0.0146401 (11.3363)

Nlocal:    511 ave 511 max 511 min
Histogram: 1 0 0 0 0 0 0 0 0 0
Nghost:    1017 ave 1017 max 1017 min
Histogram: 1 0 0 0 0 0 0 0 0 0
Neighs:    0 ave 0 max 0 min
Histogram: 1 0 0 0 0 0 0 0 0 0
FullNghs:  14256 ave 14256 max 14256 min
Histogram: 1 0 0 0 0 0 0 0 0 0

Total # of neighbors = 14256
Ave neighs/atom = 27.8982
Neighbor list builds = 0
Dangerous builds = 0
Memory usage per processor = 4.12988 Mbytes
Step Temp PotEng pe Press press 
    1778            0   -2213.3374   -2213.3374   -3383.3973    3383.3973 
    1779 1.1321371e-08   -2213.3374   -2213.3374   -3383.3973    3383.3973 
Loop time of 0.00214791 on 1 procs for 1 steps with 511 atoms

Minimization stats:
  Stopping criterion = force tolerance
  Energy initial, next-to-last, final = 
        -2213.33737751     -2213.33737751     -2213.33737751
  Force two-norm initial, final = 0.00416702 0.00416702
  Force max component initial, final = 0.000332204 0.000332204
  Final line search alpha, max atom move = 0 0
  Iterations, force evaluations = 1 1

Pair  time (%) = 0.00185013 (86.1361)
Neigh time (%) = 0 (0)
Comm  time (%) = 1.50204e-05 (0.699301)
Outpt time (%) = 0 (0)
Other time (%) = 0.000282764 (13.1646)

Nlocal:    511 ave 511 max 511 min
Histogram: 1 0 0 0 0 0 0 0 0 0
Nghost:    1017 ave 1017 max 1017 min
Histogram: 1 0 0 0 0 0 0 0 0 0
Neighs:    0 ave 0 max 0 min
Histogram: 1 0 0 0 0 0 0 0 0 0
FullNghs:  14256 ave 14256 max 14256 min
Histogram: 1 0 0 0 0 0 0 0 0 0

Total # of neighbors = 14256
Ave neighs/atom = 27.8982
Neighbor list builds = 0
Dangerous builds = 0
Memory usage per processor = 4.12988 Mbytes
Step Temp PotEng pe Press press 
    1700            0   -2213.2886   -2213.2886   -3394.8999    3394.8999 
    1710    0.0160429   -2213.2896   -2213.2896   -3394.1275    3394.1275 
    1720   0.15052697   -2213.2972   -2213.2972   -3387.9759    3387.9759 
    1730   0.46170608   -2213.3232   -2213.3232   -3386.2036    3386.2036 
    1740   0.23385306   -2213.3308   -2213.3308   -3382.6129    3382.6129 
    1750 0.00048817691   -2213.3326   -2213.3326   -3383.0056    3383.0056 
    1760  0.017512121   -2213.3336   -2213.3336   -3381.7248    3381.7248 
    1770  0.058785624   -2213.3369   -2213.3369   -3382.9073    3382.9073 
    1780 0.00018314105    -2213.337    -2213.337   -3383.3961    3383.3961 
    1790  0.001917536   -2213.3371   -2213.3371   -3383.2239    3383.2239 
    1800 0.0049773631   -2213.3373   -2213.3373   -3383.5606    3383.5606 
    1810 0.00047592996   -2213.3374   -2213.3374   -3383.4259    3383.4259 
    1820 0.00012077354   -2213.3374   -2213.3374   -3383.4429    3383.4429 
    1829 0.00032431061   -2213.3374   -2213.3374   -3383.4122    3383.4122 
Loop time of 0.132432 on 1 procs for 129 steps with 511 atoms

Minimization stats:
  Stopping criterion = force tolerance
  Energy initial, next-to-last, final = 
        -2213.28864614     -2213.33736935     -2213.33737237
  Force two-norm initial, final = 0.451586 0.00577365
  Force max component initial, final = 0.0517507 0.000818055
  Final line search alpha, max atom move = 0 0
  Iterations, force evaluations = 129 129

Pair  time (%) = 0.114317 (86.3215)
Neigh time (%) = 0 (0)
Comm  time (%) = 0.00104642 (0.790154)
Outpt time (%) = 0.000812054 (0.613184)
Other time (%) = 0.0162563 (12.2752)

Nlocal:    511 ave 511 max 511 min
Histogram: 1 0 0 0 0 0 0 0 0 0
Nghost:    1017 ave 1017 max 1017 min
Histogram: 1 0 0 0 0 0 0 0 0 0
Neighs:    0 ave 0 max 0 min
Histogram: 1 0 0 0 0 0 0 0 0 0
FullNghs:  14256 ave 14256 max 14256 min
Histogram: 1 0 0 0 0 0 0 0 0 0

Total # of neighbors = 14256
Ave neighs/atom = 27.8982
Neighbor list builds = 0
Dangerous builds = 0
Memory usage per processor = 4.12988 Mbytes
Step Temp PotEng pe Press press 
    1829            0   -2213.3374   -2213.3374   -3383.4144    3383.4144 
    1830 2.1734533e-08   -2213.3374   -2213.3374   -3383.4144    3383.4144 
Loop time of 0.00229192 on 1 procs for 1 steps with 511 atoms

Minimization stats:
  Stopping criterion = force tolerance
  Energy initial, next-to-last, final = 
        -2213.33737237     -2213.33737237     -2213.33737237
  Force two-norm initial, final = 0.00577365 0.00577365
  Force max component initial, final = 0.000818055 0.000818055
  Final line search alpha, max atom move = 0 0
  Iterations, force evaluations = 1 1

Pair  time (%) = 0.00198388 (86.5599)
Neigh time (%) = 0 (0)
Comm  time (%) = 1.5974e-05 (0.696973)
Outpt time (%) = 0 (0)
Other time (%) = 0.000292063 (12.7432)

Nlocal:    511 ave 511 max 511 min
Histogram: 1 0 0 0 0 0 0 0 0 0
Nghost:    1017 ave 1017 max 1017 min
Histogram: 1 0 0 0 0 0 0 0 0 0
Neighs:    0 ave 0 max 0 min
Histogram: 1 0 0 0 0 0 0 0 0 0
FullNghs:  14256 ave 14256 max 14256 min
Histogram: 1 0 0 0 0 0 0 0 0 0

Total # of neighbors = 14256
Ave neighs/atom = 27.8982
Neighbor list builds = 0
Dangerous builds = 0
Memory usage per processor = 4.12988 Mbytes
Step Temp PotEng pe Press press 
    1650            0   -2213.2904   -2213.2904   -3383.9979    3383.9979 
    1660  0.028681846    -2213.292    -2213.292   -3384.1664    3384.1664 
    1670   0.16883815   -2213.3007   -2213.3007   -3384.9638    3384.9638 
    1680   0.34191519   -2213.3183   -2213.3183   -3381.3142    3381.3142 
    1690  0.075198166   -2213.3293   -2213.3293   -3382.3171    3382.3171 
    1700  0.029127506   -2213.3311   -2213.3311   -3384.3679    3384.3679 
    1710  0.010502292   -2213.3317   -2213.3317   -3383.9809    3383.9809 
    1720  0.038083824   -2213.3337   -2213.3337   -3383.8479    3383.8479 
    1730 7.0533167e-05   -2213.3357   -2213.3357   -3383.8304    3383.8304 
    1740 0.0035774877   -2213.3359   -2213.3359   -3383.2554    3383.2554 
    1750  0.016630978   -2213.3367   -2213.3367   -3382.7199    3382.7199 
    1760 0.00088001615   -2213.3369   -2213.3369   -3383.6241    3383.6241 
    1770 0.0029331969   -2213.3371   -2213.3371   -3383.4271    3383.4271 
    1780 0.00061575894   -2213.3371   -2213.3371   -3383.2461    3383.2461 
    1790 0.0003319294   -2213.3372   -2213.3372   -3383.4444    3383.4444 
    1800 2.3467317e-05   -2213.3373   -2213.3373    -3383.595     3383.595 
    1810 2.4569194e-05   -2213.3373   -2213.3373    -3383.366     3383.366 
    1820 0.00027932729   -2213.3373   -2213.3373   -3383.4321    3383.4321 
    1822 0.0004309948   -2213.3373   -2213.3373    -3383.399     3383.399 
Loop time of 0.174798 on 1 procs for 172 steps with 511 atoms

Minimization stats:
  Stopping criterion = force tolerance
  Energy initial, next-to-last, final = 
        -2213.29035342     -2213.33730345     -2213.33730849
  Force two-norm initial, final = 0.613581 0.00968487
  Force max component initial, final = 0.0647895 0.000524498
  Final line search alpha, max atom move = 0 0
  Iterations, force evaluations = 172 172

Pair  time (%) = 0.151395 (86.6112)
Neigh time (%) = 0 (0)
Comm  time (%) = 0.00135231 (0.773642)
Outpt time (%) = 0.00114584 (0.655522)
Other time (%) = 0.0209053 (11.9597)

Nlocal:    511 ave 511 max 511 min
Histogram: 1 0 0 0 0 0 0 0 0 0
Nghost:    1017 ave 1017 max 1017 min
Histogram: 1 0 0 0 0 0 0 0 0 0
Neighs:    0 ave 0 max 0 min
Histogram: 1 0 0 0 0 0 0 0 0 0
FullNghs:  14256 ave 14256 max 14256 min
Histogram: 1 0 0 0 0 0 0 0 0 0

Total # of neighbors = 14256
Ave neighs/atom = 27.8982
Neighbor list builds = 0
Dangerous builds = 0
Memory usage per processor = 4.12988 Mbytes
Step Temp PotEng pe Press press 
    1822            0   -2213.3373   -2213.3373    -3383.402     3383.402 
    1823 6.1155662e-08   -2213.3373   -2213.3373    -3383.402     3383.402 
Loop time of 0.00220299 on 1 procs for 1 steps with 511 atoms

Minimization stats:
  Stopping criterion = force tolerance
  Energy initial, next-to-last, final = 
        -2213.33730849     -2213.33730849     -2213.33730849
  Force two-norm initial, final = 0.00968487 0.00968487
  Force max component initial, final = 0.000524498 0.000524498
  Final line search alpha, max atom move = 0 0
  Iterations, force evaluations = 1 1

Pair  time (%) = 0.00185013 (83.9827)
Neigh time (%) = 0 (0)
Comm  time (%) = 1.71661e-05 (0.779221)
Outpt time (%) = 0 (0)
Other time (%) = 0.000335693 (15.2381)

Nlocal:    511 ave 511 max 511 min
Histogram: 1 0 0 0 0 0 0 0 0 0
Nghost:    1017 ave 1017 max 1017 min
Histogram: 1 0 0 0 0 0 0 0 0 0
Neighs:    0 ave 0 max 0 min
Histogram: 1 0 0 0 0 0 0 0 0 0
FullNghs:  14256 ave 14256 max 14256 min
Histogram: 1 0 0 0 0 0 0 0 0 0

Total # of neighbors = 14256
Ave neighs/atom = 27.8982
Neighbor list builds = 0
Dangerous builds = 0
Memory usage per processor = 4.12988 Mbytes
Step Temp PotEng pe Press press 
    1700            0   -2213.2885   -2213.2885   -3393.6273    3393.6273 
    1710  0.016881612   -2213.2895   -2213.2895    -3393.062     3393.062 
    1720   0.16804598   -2213.2977   -2213.2977    -3388.326     3388.326 
    1730   0.43382952   -2213.3222   -2213.3222   -3384.7315    3384.7315 
    1740  0.059405884   -2213.3314   -2213.3314   -3385.5995    3385.5995 
    1750  0.018813582   -2213.3324   -2213.3324   -3382.5191    3382.5191 
    1760 0.0014850506   -2213.3345   -2213.3345   -3384.8486    3384.8486 
    1770 0.00079010163   -2213.3347   -2213.3347   -3383.1425    3383.1425 
    1780 0.0091134365   -2213.3353   -2213.3353    -3383.721     3383.721 
    1790  0.030375811   -2213.3371   -2213.3371   -3382.0801    3382.0801 
    1800 0.00072029968   -2213.3372   -2213.3372   -3383.5096    3383.5096 
    1810 0.00013952465   -2213.3372   -2213.3372   -3383.4199    3383.4199 
    1820 0.00099292041   -2213.3373   -2213.3373   -3383.3641    3383.3641 
    1830 0.00033341994   -2213.3374   -2213.3374    -3383.148     3383.148 
    1838 0.00018358252   -2213.3374   -2213.3374   -3383.3902    3383.3902 
Loop time of 0.139261 on 1 procs for 138 steps with 511 atoms

Minimization stats:
  Stopping criterion = force tolerance
  Energy initial, next-to-last, final = 
        -2213.28850602     -2213.33737525     -2213.33737621
  Force two-norm initial, final = 0.461338 0.0045987
  Force max component initial, final = 0.0845326 0.000569713
  Final line search alpha, max atom move = 0 0
  Iterations, force evaluations = 138 138

Pair  time (%) = 0.122032 (87.6282)
Neigh time (%) = 0 (0)
Comm  time (%) = 0.00111032 (0.797291)
Outpt time (%) = 0.000864267 (0.62061)
Other time (%) = 0.0152545 (10.9539)

Nlocal:    511 ave 511 max 511 min
Histogram: 1 0 0 0 0 0 0 0 0 0
Nghost:    1017 ave 1017 max 1017 min
Histogram: 1 0 0 0 0 0 0 0 0 0
Neighs:    0 ave 0 max 0 min
Histogram: 1 0 0 0 0 0 0 0 0 0
FullNghs:  14256 ave 14256 max 14256 min
Histogram: 1 0 0 0 0 0 0 0 0 0

Total # of neighbors = 14256
Ave neighs/atom = 27.8982
Neighbor list builds = 0
Dangerous builds = 0
Memory usage per processor = 4.12988 Mbytes
Step Temp PotEng pe Press press 
    1838            0   -2213.3374   -2213.3374   -3383.3915    3383.3915 
    1839 1.3788561e-08   -2213.3374   -2213.3374   -3383.3915    3383.3915 
Loop time of 0.00230813 on 1 procs for 1 steps with 511 atoms

Minimization stats:
  Stopping criterion = force tolerance
  Energy initial, next-to-last, final = 
        -2213.33737621     -2213.33737621     -2213.33737621
  Force two-norm initial, final = 0.0045987 0.0045987
  Force max component initial, final = 0.000569713 0.000569713
  Final line search alpha, max atom move = 0 0
  Iterations, force evaluations = 1 1

Pair  time (%) = 0.00198293 (85.9105)
Neigh time (%) = 0 (0)
Comm  time (%) = 1.50204e-05 (0.650759)
Outpt time (%) = 0 (0)
Other time (%) = 0.000310183 (13.4387)

Nlocal:    511 ave 511 max 511 min
Histogram: 1 0 0 0 0 0 0 0 0 0
Nghost:    1017 ave 1017 max 1017 min
Histogram: 1 0 0 0 0 0 0 0 0 0
Neighs:    0 ave 0 max 0 min
Histogram: 1 0 0 0 0 0 0 0 0 0
FullNghs:  14256 ave 14256 max 14256 min
Histogram: 1 0 0 0 0 0 0 0 0 0

Total # of neighbors = 14256
Ave neighs/atom = 27.8982
Neighbor list builds = 0
Dangerous builds = 0
Memory usage per processor = 4.12988 Mbytes
Step Temp PotEng pe Press press 
    1750            0   -2213.2882   -2213.2882   -3394.5698    3394.5698 
    1760  0.016308859   -2213.2892   -2213.2892    -3393.883     3393.883 
    1770   0.16485541   -2213.2972   -2213.2972   -3388.2409    3388.2409 
    1780   0.43511913    -2213.322    -2213.322   -3385.2498    3385.2498 
    1790  0.056499427   -2213.3313   -2213.3313   -3386.2547    3386.2547 
    1800  0.019943421   -2213.3323   -2213.3323   -3382.2196    3382.2196 
    1810 0.0018598279   -2213.3344   -2213.3344   -3385.2158    3385.2158 
    1820 0.00085022238   -2213.3347   -2213.3347   -3383.0435    3383.0435 
    1830 0.0092655488   -2213.3352   -2213.3352   -3383.7906    3383.7906 
    1840  0.031464521   -2213.3371   -2213.3371   -3381.8223    3381.8223 
    1850 0.00087205709   -2213.3372   -2213.3372   -3383.5217    3383.5217 
    1860 0.00014872844   -2213.3372   -2213.3372    -3383.414     3383.414 
    1870 0.0010147104   -2213.3373   -2213.3373   -3383.3513    3383.3513 
    1880 0.00041102962   -2213.3374   -2213.3374   -3383.0959    3383.0959 
    1888 0.00022233823   -2213.3374   -2213.3374   -3383.3922    3383.3922 
Loop time of 0.13923 on 1 procs for 138 steps with 511 atoms

Minimization stats:
  Stopping criterion = force tolerance
  Energy initial, next-to-last, final = 
        -2213.28822947     -2213.33737487     -2213.33737599
  Force two-norm initial, final = 0.453321 0.00464768
  Force max component initial, final = 0.0773247 0.000570748
  Final line search alpha, max atom move = 0 0
  Iterations, force evaluations = 138 138

Pair  time (%) = 0.122034 (87.6491)
Neigh time (%) = 0 (0)
Comm  time (%) = 0.00112319 (0.806715)
Outpt time (%) = 0.000859976 (0.617666)
Other time (%) = 0.015213 (10.9265)

Nlocal:    511 ave 511 max 511 min
Histogram: 1 0 0 0 0 0 0 0 0 0
Nghost:    1017 ave 1017 max 1017 min
Histogram: 1 0 0 0 0 0 0 0 0 0
Neighs:    0 ave 0 max 0 min
Histogram: 1 0 0 0 0 0 0 0 0 0
FullNghs:  14256 ave 14256 max 14256 min
Histogram: 1 0 0 0 0 0 0 0 0 0

Total # of neighbors = 14256
Ave neighs/atom = 27.8982
Neighbor list builds = 0
Dangerous builds = 0
Memory usage per processor = 4.12988 Mbytes
Step Temp PotEng pe Press press 
    1888            0   -2213.3374   -2213.3374   -3383.3937    3383.3937 
    1889 1.4083834e-08   -2213.3374   -2213.3374   -3383.3937    3383.3937 
Loop time of 0.00216413 on 1 procs for 1 steps with 511 atoms

Minimization stats:
  Stopping criterion = force tolerance
  Energy initial, next-to-last, final = 
        -2213.33737599     -2213.33737599     -2213.33737599
  Force two-norm initial, final = 0.00464768 0.00464768
  Force max component initial, final = 0.000570748 0.000570748
  Final line search alpha, max atom move = 0 0
  Iterations, force evaluations = 1 1

Pair  time (%) = 0.00185013 (85.4908)
Neigh time (%) = 0 (0)
Comm  time (%) = 1.62125e-05 (0.749146)
Outpt time (%) = 0 (0)
Other time (%) = 0.000297785 (13.7601)

Nlocal:    511 ave 511 max 511 min
Histogram: 1 0 0 0 0 0 0 0 0 0
Nghost:    1017 ave 1017 max 1017 min
Histogram: 1 0 0 0 0 0 0 0 0 0
Neighs:    0 ave 0 max 0 min
Histogram: 1 0 0 0 0 0 0 0 0 0
FullNghs:  14256 ave 14256 max 14256 min
Histogram: 1 0 0 0 0 0 0 0 0 0

Total # of neighbors = 14256
Ave neighs/atom = 27.8982
Neighbor list builds = 0
Dangerous builds = 0
Memory usage per processor = 4.12988 Mbytes
Step Temp PotEng pe Press press 
    1800            0   -2213.2882   -2213.2882   -3395.5242    3395.5242 
    1810  0.016168601   -2213.2891   -2213.2891   -3394.7048    3394.7048 
    1820   0.16263152    -2213.297    -2213.297   -3388.0778    3388.0778 
    1830   0.43493997    -2213.322    -2213.322   -3385.8481    3385.8481 
    1840  0.055282571   -2213.3312   -2213.3312   -3386.9723    3386.9723 
    1850  0.021086274   -2213.3323   -2213.3323   -3381.8708    3381.8708 
    1860 0.0024184997   -2213.3344   -2213.3344   -3385.6174    3385.6174 
    1870 0.0009253802   -2213.3347   -2213.3347   -3382.9241    3382.9241 
    1880 0.0092641356   -2213.3353   -2213.3353   -3383.8684    3383.8684 
    1890  0.032466369    -2213.337    -2213.337   -3381.5929    3381.5929 
    1900 0.0010810426   -2213.3372   -2213.3372   -3383.5312    3383.5312 
    1910 0.00016035014   -2213.3372   -2213.3372   -3383.4081    3383.4081 
    1920 0.0010286063   -2213.3373   -2213.3373   -3383.3397    3383.3397 
    1930 0.00053386217   -2213.3374   -2213.3374   -3383.0468    3383.0468 
    1938 0.00028508072   -2213.3374   -2213.3374   -3383.3939    3383.3939 
Loop time of 0.139102 on 1 procs for 138 steps with 511 atoms

Minimization stats:
  Stopping criterion = force tolerance
  Energy initial, next-to-last, final = 
        -2213.28819682     -2213.33737452     -2213.33737591
  Force two-norm initial, final = 0.451708 0.00467943
  Force max component initial, final = 0.0699404 0.000568692
  Final line search alpha, max atom move = 0 0
  Iterations, force evaluations = 138 138

Pair  time (%) = 0.12211 (87.7844)
Neigh time (%) = 0 (0)
Comm  time (%) = 0.00110364 (0.793403)
Outpt time (%) = 0.000868797 (0.624576)
Other time (%) = 0.0150197 (10.7976)

Nlocal:    511 ave 511 max 511 min
Histogram: 1 0 0 0 0 0 0 0 0 0
Nghost:    1017 ave 1017 max 1017 min
Histogram: 1 0 0 0 0 0 0 0 0 0
Neighs:    0 ave 0 max 0 min
Histogram: 1 0 0 0 0 0 0 0 0 0
FullNghs:  14256 ave 14256 max 14256 min
Histogram: 1 0 0 0 0 0 0 0 0 0

Total # of neighbors = 14256
Ave neighs/atom = 27.8982
Neighbor list builds = 0
Dangerous builds = 0
Memory usage per processor = 4.12988 Mbytes
Step Temp PotEng pe Press press 
    1938            0   -2213.3374   -2213.3374   -3383.3959    3383.3959 
    1939 1.4276951e-08   -2213.3374   -2213.3374   -3383.3959    3383.3959 
Loop time of 0.00214505 on 1 procs for 1 steps with 511 atoms

Minimization stats:
  Stopping criterion = force tolerance
  Energy initial, next-to-last, final = 
        -2213.33737591     -2213.33737591     -2213.33737591
  Force two-norm initial, final = 0.00467943 0.00467943
  Force max component initial, final = 0.000568692 0.000568692
  Final line search alpha, max atom move = 0 0
  Iterations, force evaluations = 1 1

Pair  time (%) = 0.00185013 (86.251)
Neigh time (%) = 0 (0)
Comm  time (%) = 1.66893e-05 (0.778037)
Outpt time (%) = 0 (0)
Other time (%) = 0.000278234 (12.971)

Nlocal:    511 ave 511 max 511 min
Histogram: 1 0 0 0 0 0 0 0 0 0
Nghost:    1017 ave 1017 max 1017 min
Histogram: 1 0 0 0 0 0 0 0 0 0
Neighs:    0 ave 0 max 0 min
Histogram: 1 0 0 0 0 0 0 0 0 0
FullNghs:  14256 ave 14256 max 14256 min
Histogram: 1 0 0 0 0 0 0 0 0 0

Total # of neighbors = 14256
Ave neighs/atom = 27.8982
Neighbor list builds = 0
Dangerous builds = 0
Memory usage per processor = 4.12988 Mbytes
Step Temp PotEng pe Press press 
    1850            0   -2213.2899   -2213.2899   -3395.9363    3395.9363 
    1860  0.017143071   -2213.2909   -2213.2909   -3395.0207    3395.0207 
    1870   0.16063817   -2213.2987   -2213.2987   -3387.7038    3387.7038 
    1880   0.42459925   -2213.3229   -2213.3229   -3386.4452    3386.4452 
    1890  0.058745744   -2213.3315   -2213.3315   -3387.4914    3387.4914 
    1900  0.021025219   -2213.3327   -2213.3327   -3381.5502    3381.5502 
    1910 0.0035099958   -2213.3346   -2213.3346   -3385.8758    3385.8758 
    1920 0.0010406631    -2213.335    -2213.335   -3382.8002    3382.8002 
    1930 0.0085156127   -2213.3355   -2213.3355    -3383.927     3383.927 
    1940  0.032510616    -2213.337    -2213.337   -3381.7368    3381.7368 
    1950 0.0015812365   -2213.3372   -2213.3372   -3383.5168    3383.5168 
    1960 0.00018830572   -2213.3372   -2213.3372    -3383.409     3383.409 
    1970 0.00099538246   -2213.3373   -2213.3373   -3383.3487    3383.3487 
    1980 0.00096989848   -2213.3373   -2213.3373   -3383.0774    3383.0774 
    1988 0.00052399385   -2213.3374   -2213.3374   -3383.3915    3383.3915 
Loop time of 0.139008 on 1 procs for 138 steps with 511 atoms

Minimization stats:
  Stopping criterion = force tolerance
  Energy initial, next-to-last, final = 
        -2213.28985687     -2213.33737411     -2213.33737642
  Force two-norm initial, final = 0.466853 0.00460811
  Force max component initial, final = 0.0685554 0.000552493
  Final line search alpha, max atom move = 0 0
  Iterations, force evaluations = 138 138

Pair  time (%) = 0.121938 (87.7203)
Neigh time (%) = 0 (0)
Comm  time (%) = 0.00113368 (0.81555)
Outpt time (%) = 0.000859022 (0.617966)
Other time (%) = 0.0150771 (10.8462)

Nlocal:    511 ave 511 max 511 min
Histogram: 1 0 0 0 0 0 0 0 0 0
Nghost:    1017 ave 1017 max 1017 min
Histogram: 1 0 0 0 0 0 0 0 0 0
Neighs:    0 ave 0 max 0 min
Histogram: 1 0 0 0 0 0 0 0 0 0
FullNghs:  14256 ave 14256 max 14256 min
Histogram: 1 0 0 0 0 0 0 0 0 0

Total # of neighbors = 14256
Ave neighs/atom = 27.8982
Neighbor list builds = 0
Dangerous builds = 0
Memory usage per processor = 4.12988 Mbytes
Step Temp PotEng pe Press press 
    1988            0   -2213.3374   -2213.3374   -3383.3951    3383.3951 
    1989 1.3845067e-08   -2213.3374   -2213.3374   -3383.3951    3383.3951 
Loop time of 0.00217986 on 1 procs for 1 steps with 511 atoms

Minimization stats:
  Stopping criterion = force tolerance
  Energy initial, next-to-last, final = 
        -2213.33737642     -2213.33737642     -2213.33737642
  Force two-norm initial, final = 0.00460811 0.00460811
  Force max component initial, final = 0.000552493 0.000552493
  Final line search alpha, max atom move = 0 0
  Iterations, force evaluations = 1 1

Pair  time (%) = 0.00185013 (84.8737)
Neigh time (%) = 0 (0)
Comm  time (%) = 1.71661e-05 (0.787488)
Outpt time (%) = 0 (0)
Other time (%) = 0.000312567 (14.3388)

Nlocal:    511 ave 511 max 511 min
Histogram: 1 0 0 0 0 0 0 0 0 0
Nghost:    1017 ave 1017 max 1017 min
Histogram: 1 0 0 0 0 0 0 0 0 0
Neighs:    0 ave 0 max 0 min
Histogram: 1 0 0 0 0 0 0 0 0 0
FullNghs:  14256 ave 14256 max 14256 min
Histogram: 1 0 0 0 0 0 0 0 0 0

Total # of neighbors = 14256
Ave neighs/atom = 27.8982
Neighbor list builds = 0
Dangerous builds = 0
Memory usage per processor = 4.12988 Mbytes
Step Temp PotEng pe Press press 
    1900            0   -2213.2887   -2213.2887   -3394.8138    3394.8138 
    1910  0.016298082   -2213.2897   -2213.2897   -3394.0656    3394.0656 
    1920   0.15768181   -2213.2973   -2213.2973   -3387.9985    3387.9985 
    1930   0.44883133   -2213.3235   -2213.3235   -3386.1246    3386.1246 
    1940  0.045387276   -2213.3318   -2213.3318   -3386.6586    3386.6586 
    1950  0.022872777   -2213.3331   -2213.3331   -3381.8144    3381.8144 
    1960 0.0048130855   -2213.3349   -2213.3349   -3385.3605    3385.3605 
    1970 0.0012392897   -2213.3353   -2213.3353   -3382.9047    3382.9047 
    1980  0.007681868   -2213.3357   -2213.3357   -3383.8091    3383.8091 
    1990  0.033033827   -2213.3369   -2213.3369   -3382.5727    3382.5727 
    2000 0.0024691094   -2213.3372   -2213.3372   -3383.4779    3383.4779 
    2010 0.00024732355   -2213.3372   -2213.3372   -3383.4362    3383.4362 
    2020 0.00096047687   -2213.3373   -2213.3373   -3383.3959    3383.3959 
    2030 0.0018296656   -2213.3373   -2213.3373   -3383.2618    3383.2618 
    2038 0.0010109569   -2213.3374   -2213.3374   -3383.3807    3383.3807 
Loop time of 0.139914 on 1 procs for 138 steps with 511 atoms

Minimization stats:
  Stopping criterion = force tolerance
  Energy initial, next-to-last, final = 
        -2213.28870784     -2213.33737273     -2213.33737687
  Force two-norm initial, final = 0.455311 0.00465063
  Force max component initial, final = 0.0524376 0.00060193
  Final line search alpha, max atom move = 0 0
  Iterations, force evaluations = 138 138

Pair  time (%) = 0.122099 (87.2674)
Neigh time (%) = 0 (0)
Comm  time (%) = 0.00111127 (0.794253)
Outpt time (%) = 0.000863791 (0.617373)
Other time (%) = 0.0158396 (11.321)

Nlocal:    511 ave 511 max 511 min
Histogram: 1 0 0 0 0 0 0 0 0 0
Nghost:    1017 ave 1017 max 1017 min
Histogram: 1 0 0 0 0 0 0 0 0 0
Neighs:    0 ave 0 max 0 min
Histogram: 1 0 0 0 0 0 0 0 0 0
FullNghs:  14256 ave 14256 max 14256 min
Histogram: 1 0 0 0 0 0 0 0 0 0

Total # of neighbors = 14256
Ave neighs/atom = 27.8982
Neighbor list builds = 0
Dangerous builds = 0
Memory usage per processor = 4.12988 Mbytes
Step Temp PotEng pe Press press 
    2038            0   -2213.3374   -2213.3374   -3383.3877    3383.3877 
    2039 1.4101703e-08   -2213.3374   -2213.3374   -3383.3877    3383.3877 
Loop time of 0.0021801 on 1 procs for 1 steps with 511 atoms

Minimization stats:
  Stopping criterion = force tolerance
  Energy initial, next-to-last, final = 
        -2213.33737687     -2213.33737687     -2213.33737687
  Force two-norm initial, final = 0.00465063 0.00465063
  Force max component initial, final = 0.00060193 0.00060193
  Final line search alpha, max atom move = 0 0
  Iterations, force evaluations = 1 1

Pair  time (%) = 0.00186324 (85.4659)
Neigh time (%) = 0 (0)
Comm  time (%) = 1.69277e-05 (0.776465)
Outpt time (%) = 0 (0)
Other time (%) = 0.000299931 (13.7577)

Nlocal:    511 ave 511 max 511 min
Histogram: 1 0 0 0 0 0 0 0 0 0
Nghost:    1017 ave 1017 max 1017 min
Histogram: 1 0 0 0 0 0 0 0 0 0
Neighs:    0 ave 0 max 0 min
Histogram: 1 0 0 0 0 0 0 0 0 0
FullNghs:  14256 ave 14256 max 14256 min
Histogram: 1 0 0 0 0 0 0 0 0 0

Total # of neighbors = 14256
Ave neighs/atom = 27.8982
Neighbor list builds = 0
Dangerous builds = 0
Memory usage per processor = 4.12988 Mbytes
Step Temp PotEng pe Press press 
    1700            0   -2213.3083   -2213.3083   -3384.0321    3384.0321 
    1710  0.013963578   -2213.3091   -2213.3091    -3384.093     3384.093 
    1720  0.094960087    -2213.314    -2213.314   -3384.1906    3384.1906 
    1730   0.22251373   -2213.3261   -2213.3261   -3382.2701    3382.2701 
    1740  0.087260634   -2213.3332   -2213.3332   -3382.9386    3382.9386 
    1750 0.00010071674   -2213.3343   -2213.3343   -3384.0134    3384.0134 
    1760 0.0088343893   -2213.3348   -2213.3348   -3383.9526    3383.9526 
    1770  0.028906775   -2213.3364   -2213.3364   -3383.3615    3383.3615 
    1780 0.0045284386   -2213.3369   -2213.3369    -3383.061     3383.061 
    1790 0.0023342069    -2213.337    -2213.337   -3383.3515    3383.3515 
    1800 0.0020425475   -2213.3373   -2213.3373   -3383.3114    3383.3114 
    1810 0.00012313568   -2213.3373   -2213.3373   -3383.3545    3383.3545 
    1820 0.00083569809   -2213.3373   -2213.3373   -3383.3684    3383.3684 
    1823 0.0012669047   -2213.3373   -2213.3373   -3383.3808    3383.3808 
Loop time of 0.12382 on 1 procs for 123 steps with 511 atoms

Minimization stats:
  Stopping criterion = force tolerance
  Energy initial, next-to-last, final = 
         -2213.3082919     -2213.33732928     -2213.33733914
  Force two-norm initial, final = 0.426782 0.00846375
  Force max component initial, final = 0.0429426 0.000536352
  Final line search alpha, max atom move = 0 0
  Iterations, force evaluations = 123 123

Pair  time (%) = 0.108517 (87.6412)
Neigh time (%) = 0 (0)
Comm  time (%) = 0.000967264 (0.781187)
Outpt time (%) = 0.000810146 (0.654295)
Other time (%) = 0.0135252 (10.9233)

Nlocal:    511 ave 511 max 511 min
Histogram: 1 0 0 0 0 0 0 0 0 0
Nghost:    1017 ave 1017 max 1017 min
Histogram: 1 0 0 0 0 0 0 0 0 0
Neighs:    0 ave 0 max 0 min
Histogram: 1 0 0 0 0 0 0 0 0 0
FullNghs:  14256 ave 14256 max 14256 min
Histogram: 1 0 0 0 0 0 0 0 0 0

Total # of neighbors = 14256
Ave neighs/atom = 27.8982
Neighbor list builds = 0
Dangerous builds = 0
Memory usage per processor = 4.12988 Mbytes
Step Temp PotEng pe Press press 
    1823            0   -2213.3373   -2213.3373   -3383.3895    3383.3895 
    1824 4.6706229e-08   -2213.3373   -2213.3373   -3383.3895    3383.3895 
Loop time of 0.0021081 on 1 procs for 1 steps with 511 atoms

Minimization stats:
  Stopping criterion = force tolerance
  Energy initial, next-to-last, final = 
        -2213.33733914     -2213.33733914     -2213.33733914
  Force two-norm initial, final = 0.00846375 0.00846375
  Force max component initial, final = 0.000536352 0.000536352
  Final line search alpha, max atom move = 0 0
  Iterations, force evaluations = 1 1

Pair  time (%) = 0.00184894 (87.7064)
Neigh time (%) = 0 (0)
Comm  time (%) = 1.81198e-05 (0.859534)
Outpt time (%) = 0 (0)
Other time (%) = 0.000241041 (11.4341)

Nlocal:    511 ave 511 max 511 min
Histogram: 1 0 0 0 0 0 0 0 0 0
Nghost:    1017 ave 1017 max 1017 min
Histogram: 1 0 0 0 0 0 0 0 0 0
Neighs:    0 ave 0 max 0 min
Histogram: 1 0 0 0 0 0 0 0 0 0
FullNghs:  14256 ave 14256 max 14256 min
Histogram: 1 0 0 0 0 0 0 0 0 0

Total # of neighbors = 14256
Ave neighs/atom = 27.8982
Neighbor list builds = 0
Dangerous builds = 0
Memory usage per processor = 4.12988 Mbytes
Step Temp PotEng pe Press press 
    1750            0   -2213.3267   -2213.3267   -3384.6823    3384.6823 
    1760 0.0047815097    -2213.327    -2213.327   -3384.6341    3384.6341 
    1770  0.029499113   -2213.3285   -2213.3285   -3384.2272    3384.2272 
    1780 0.0002690746    -2213.332    -2213.332   -3384.3034    3384.3034 
    1790 0.00024693746   -2213.3328   -2213.3328   -3383.8802    3383.8802 
    1800 0.0097130001   -2213.3333   -2213.3333   -3383.9259    3383.9259 
    1810 0.0011306039   -2213.3345   -2213.3345   -3383.7064    3383.7064 
    1820  0.014792724   -2213.3354   -2213.3354   -3383.5174    3383.5174 
    1830 9.4028209e-05   -2213.3357   -2213.3357   -3383.6191    3383.6191 
    1840 0.0027627054   -2213.3359   -2213.3359   -3383.5567    3383.5567 
    1850  0.018776782   -2213.3369   -2213.3369   -3383.3062    3383.3062 
    1860 3.296371e-05   -2213.3373   -2213.3373   -3383.3823    3383.3823 
    1870 0.00042768055   -2213.3373   -2213.3373    -3383.395     3383.395 
    1880 1.566541e-06   -2213.3373   -2213.3373   -3383.3965    3383.3965 
    1890  7.66226e-05   -2213.3373   -2213.3373   -3383.3938    3383.3938 
    1900 0.00056892944   -2213.3374   -2213.3374   -3383.3917    3383.3917 
    1903 0.00076325889   -2213.3374   -2213.3374   -3383.3903    3383.3903 
Loop time of 0.152962 on 1 procs for 153 steps with 511 atoms

Minimization stats:
  Stopping criterion = force tolerance
  Energy initial, next-to-last, final = 
        -2213.32670815     -2213.33737431     -2213.33737963
  Force two-norm initial, final = 0.250461 0.004418
  Force max component initial, final = 0.0268979 0.000344123
  Final line search alpha, max atom move = 0 0
  Iterations, force evaluations = 153 153

Pair  time (%) = 0.134904 (88.1947)
Neigh time (%) = 0 (0)
Comm  time (%) = 0.00122476 (0.800693)
Outpt time (%) = 0.000998259 (0.652619)
Other time (%) = 0.0158346 (10.352)

Nlocal:    511 ave 511 max 511 min
Histogram: 1 0 0 0 0 0 0 0 0 0
Nghost:    1017 ave 1017 max 1017 min
Histogram: 1 0 0 0 0 0 0 0 0 0
Neighs:    0 ave 0 max 0 min
Histogram: 1 0 0 0 0 0 0 0 0 0
FullNghs:  14256 ave 14256 max 14256 min
Histogram: 1 0 0 0 0 0 0 0 0 0

Total # of neighbors = 14256
Ave neighs/atom = 27.8982
Neighbor list builds = 0
Dangerous builds = 0
Memory usage per processor = 4.12988 Mbytes
Step Temp PotEng pe Press press 
    1903            0   -2213.3374   -2213.3374   -3383.3955    3383.3955 
    1904 1.272624e-08   -2213.3374   -2213.3374   -3383.3955    3383.3955 
Loop time of 0.00213504 on 1 procs for 1 steps with 511 atoms

Minimization stats:
  Stopping criterion = force tolerance
  Energy initial, next-to-last, final = 
        -2213.33737963     -2213.33737963     -2213.33737963
  Force two-norm initial, final = 0.004418 0.004418
  Force max component initial, final = 0.000344123 0.000344123
  Final line search alpha, max atom move = 0 0
  Iterations, force evaluations = 1 1

Pair  time (%) = 0.00184584 (86.4545)
Neigh time (%) = 0 (0)
Comm  time (%) = 1.52588e-05 (0.714685)
Outpt time (%) = 0 (0)
Other time (%) = 0.000273943 (12.8308)

Nlocal:    511 ave 511 max 511 min
Histogram: 1 0 0 0 0 0 0 0 0 0
Nghost:    1017 ave 1017 max 1017 min
Histogram: 1 0 0 0 0 0 0 0 0 0
Neighs:    0 ave 0 max 0 min
Histogram: 1 0 0 0 0 0 0 0 0 0
FullNghs:  14256 ave 14256 max 14256 min
Histogram: 1 0 0 0 0 0 0 0 0 0

Total # of neighbors = 14256
Ave neighs/atom = 27.8982
Neighbor list builds = 0
Dangerous builds = 0
Memory usage per processor = 4.12988 Mbytes
Step Temp PotEng pe Press press 
    1800            0   -2213.2525   -2213.2525   -3392.9731    3392.9731 
    1810   0.04012873   -2213.2548   -2213.2548   -3392.8418    3392.8418 
    1820   0.26060709   -2213.2681   -2213.2681   -3390.9917    3390.9917 
    1830 0.0018542266   -2213.2959   -2213.2959   -3387.4161    3387.4161 
    1840 0.0015825886   -2213.3015   -2213.3015   -3388.0388    3388.0388 
    1850   0.07479077   -2213.3053   -2213.3053   -3386.8875    3386.8875 
    1860  0.007433788   -2213.3148   -2213.3148   -3386.1873    3386.1873 
    1870   0.11633727   -2213.3221   -2213.3221   -3384.4724    3384.4724 
    1880 0.0003904346   -2213.3248   -2213.3248   -3384.8651    3384.8651 
    1890  0.022596406    -2213.326    -2213.326   -3384.6219    3384.6219 
    1900   0.11331994   -2213.3331   -2213.3331   -3383.1101    3383.1101 
    1910 0.00063277789   -2213.3335   -2213.3335    -3383.784     3383.784 
    1920  0.011853547   -2213.3342   -2213.3342   -3383.6684    3383.6684 
    1930 0.00057884118   -2213.3361   -2213.3361   -3383.5406    3383.5406 
    1940 0.00094924321   -2213.3362   -2213.3362   -3383.5067    3383.5067 
    1950 0.0079965979   -2213.3367   -2213.3367   -3383.3914    3383.3914 
    1960 0.00053571345   -2213.3373   -2213.3373   -3383.4274    3383.4274 
    1966 0.00017303503   -2213.3373   -2213.3373   -3383.3997    3383.3997 
Loop time of 0.164512 on 1 procs for 166 steps with 511 atoms

Minimization stats:
  Stopping criterion = force tolerance
  Energy initial, next-to-last, final = 
        -2213.25247143     -2213.33732764     -2213.33732898
  Force two-norm initial, final = 0.721694 0.00839746
  Force max component initial, final = 0.0962499 0.000577304
  Final line search alpha, max atom move = 0 0
  Iterations, force evaluations = 166 166

Pair  time (%) = 0.146635 (89.1331)
Neigh time (%) = 0 (0)
Comm  time (%) = 0.00131702 (0.800565)
Outpt time (%) = 0.00106168 (0.64535)
Other time (%) = 0.0154986 (9.42098)

Nlocal:    511 ave 511 max 511 min
Histogram: 1 0 0 0 0 0 0 0 0 0
Nghost:    1017 ave 1017 max 1017 min
Histogram: 1 0 0 0 0 0 0 0 0 0
Neighs:    0 ave 0 max 0 min
Histogram: 1 0 0 0 0 0 0 0 0 0
FullNghs:  14256 ave 14256 max 14256 min
Histogram: 1 0 0 0 0 0 0 0 0 0

Total # of neighbors = 14256
Ave neighs/atom = 27.8982
Neighbor list builds = 0
Dangerous builds = 0
Memory usage per processor = 4.12988 Mbytes
Step Temp PotEng pe Press press 
    1966            0   -2213.3373   -2213.3373   -3383.4009    3383.4009 
    1967 4.5977419e-08   -2213.3373   -2213.3373   -3383.4009    3383.4009 
Loop time of 0.00210905 on 1 procs for 1 steps with 511 atoms

Minimization stats:
  Stopping criterion = force tolerance
  Energy initial, next-to-last, final = 
        -2213.33732898     -2213.33732898     -2213.33732898
  Force two-norm initial, final = 0.00839746 0.00839746
  Force max component initial, final = 0.000577304 0.000577304
  Final line search alpha, max atom move = 0 0
  Iterations, force evaluations = 1 1

Pair  time (%) = 0.00185013 (87.7233)
Neigh time (%) = 0 (0)
Comm  time (%) = 1.43051e-05 (0.678273)
Outpt time (%) = 0 (0)
Other time (%) = 0.000244617 (11.5985)

Nlocal:    511 ave 511 max 511 min
Histogram: 1 0 0 0 0 0 0 0 0 0
Nghost:    1017 ave 1017 max 1017 min
Histogram: 1 0 0 0 0 0 0 0 0 0
Neighs:    0 ave 0 max 0 min
Histogram: 1 0 0 0 0 0 0 0 0 0
FullNghs:  14256 ave 14256 max 14256 min
Histogram: 1 0 0 0 0 0 0 0 0 0

Total # of neighbors = 14256
Ave neighs/atom = 27.8982
Neighbor list builds = 0
Dangerous builds = 0
Memory usage per processor = 4.12988 Mbytes
Step Temp PotEng pe Press press 
    1750            0   -2213.2325   -2213.2325   -3383.8766    3383.8766 
    1760  0.025204823    -2213.234    -2213.234    -3384.698     3384.698 
    1770   0.22052009   -2213.2458   -2213.2458   -3390.9118    3390.9118 
    1780   0.74249429   -2213.2854   -2213.2854   -3382.9405    3382.9405 
    1790  0.052361354   -2213.3306   -2213.3306   -3382.4948    3382.4948 
    1800  0.024449513    -2213.332    -2213.332   -3382.9719    3382.9719 
    1810 0.00040642758   -2213.3354   -2213.3354   -3383.0359    3383.0359 
    1820 0.0012928518   -2213.3358   -2213.3358   -3383.7297    3383.7297 
    1830 0.0089163394   -2213.3363   -2213.3363   -3383.5515    3383.5515 
    1840  0.002685045   -2213.3364   -2213.3364   -3383.3509    3383.3509 
    1850 0.00085478901   -2213.3367   -2213.3367   -3383.4599    3383.4599 
    1860 0.00010393806   -2213.3369   -2213.3369   -3383.5075    3383.5075 
    1870 0.0001029537    -2213.337    -2213.337   -3383.4269    3383.4269 
    1880 0.0013158087   -2213.3371   -2213.3371   -3383.4224    3383.4224 
    1889 0.0045710286   -2213.3373   -2213.3373   -3383.3892    3383.3892 
Loop time of 0.137774 on 1 procs for 139 steps with 511 atoms

Minimization stats:
  Stopping criterion = force tolerance
  Energy initial, next-to-last, final = 
        -2213.23252773     -2213.33729126     -2213.33732728
  Force two-norm initial, final = 0.565454 0.00890102
  Force max component initial, final = 0.0740596 0.000657619
  Final line search alpha, max atom move = 0 0
  Iterations, force evaluations = 139 139

Pair  time (%) = 0.122485 (88.9026)
Neigh time (%) = 0 (0)
Comm  time (%) = 0.00111914 (0.812299)
Outpt time (%) = 0.000871181 (0.632327)
Other time (%) = 0.013299 (9.65276)

Nlocal:    511 ave 511 max 511 min
Histogram: 1 0 0 0 0 0 0 0 0 0
Nghost:    1017 ave 1017 max 1017 min
Histogram: 1 0 0 0 0 0 0 0 0 0
Neighs:    0 ave 0 max 0 min
Histogram: 1 0 0 0 0 0 0 0 0 0
FullNghs:  14256 ave 14256 max 14256 min
Histogram: 1 0 0 0 0 0 0 0 0 0

Total # of neighbors = 14256
Ave neighs/atom = 27.8982
Neighbor list builds = 0
Dangerous builds = 0
Memory usage per processor = 4.12988 Mbytes
Step Temp PotEng pe Press press 
    1889            0   -2213.3373   -2213.3373   -3383.4206    3383.4206 
    1890 5.165696e-08   -2213.3373   -2213.3373   -3383.4206    3383.4206 
    1892 4.648822e-07   -2213.3373   -2213.3373   -3383.4204    3383.4204 
Loop time of 0.00423717 on 1 procs for 3 steps with 511 atoms

Minimization stats:
  Stopping criterion = force tolerance
  Energy initial, next-to-last, final = 
        -2213.33732728     -2213.33732729      -2213.3373273
  Force two-norm initial, final = 0.00890102 0.00889509
  Force max component initial, final = 0.000657619 0.000656958
  Final line search alpha, max atom move = 0 0
  Iterations, force evaluations = 3 3

Pair  time (%) = 0.00370002 (87.3228)
Neigh time (%) = 0 (0)
Comm  time (%) = 3.12328e-05 (0.737115)
Outpt time (%) = 7.48634e-05 (1.76682)
Other time (%) = 0.000431061 (10.1733)

Nlocal:    511 ave 511 max 511 min
Histogram: 1 0 0 0 0 0 0 0 0 0
Nghost:    1017 ave 1017 max 1017 min
Histogram: 1 0 0 0 0 0 0 0 0 0
Neighs:    0 ave 0 max 0 min
Histogram: 1 0 0 0 0 0 0 0 0 0
FullNghs:  14256 ave 14256 max 14256 min
Histogram: 1 0 0 0 0 0 0 0 0 0

Total # of neighbors = 14256
Ave neighs/atom = 27.8982
Neighbor list builds = 0
Dangerous builds = 0
Memory usage per processor = 4.12988 Mbytes
Step Temp PotEng pe Press press 
    1800            0   -2213.2985   -2213.2985   -3389.6701    3389.6701 
    1810 0.0074150489    -2213.299    -2213.299   -3389.4474    3389.4474 
    1820   0.06836189   -2213.3023   -2213.3023   -3387.4492    3387.4492 
    1830 0.00055606797   -2213.3159   -2213.3159   -3386.6283    3386.6283 
    1840 0.00067231252   -2213.3182   -2213.3182   -3385.4571    3385.4571 
    1850  0.039290753   -2213.3201   -2213.3201   -3385.5269    3385.5269 
    1860 0.0037498299   -2213.3252   -2213.3252   -3384.8189    3384.8189 
    1870  0.061394691   -2213.3291   -2213.3291   -3383.9445    3383.9445 
    1880 0.00020450381   -2213.3305   -2213.3305   -3384.2589    3384.2589 
    1890   0.01264336   -2213.3312   -2213.3312   -3384.0234    3384.0234 
    1900  0.057865332    -2213.335    -2213.335   -3383.2455    3383.2455 
    1910 0.00034063946   -2213.3352   -2213.3352   -3383.6266    3383.6266 
    1920 0.0065437977   -2213.3356   -2213.3356   -3383.5368    3383.5368 
    1930 0.00029901117   -2213.3367   -2213.3367   -3383.4668    3383.4668 
    1940 0.00053254013   -2213.3367   -2213.3367   -3383.4579    3383.4579 
    1950 0.0044267384    -2213.337    -2213.337   -3383.3992    3383.3992 
    1960 0.00027365754   -2213.3373   -2213.3373   -3383.4063    3383.4063 
    1966 9.8581973e-05   -2213.3374   -2213.3374   -3383.3967    3383.3967 
Loop time of 0.165069 on 1 procs for 166 steps with 511 atoms

Minimization stats:
  Stopping criterion = force tolerance
  Energy initial, next-to-last, final = 
        -2213.29853767     -2213.33735267      -2213.3373534
  Force two-norm initial, final = 0.307551 0.0065144
  Force max component initial, final = 0.0277577 0.000448096
  Final line search alpha, max atom move = 0 0
  Iterations, force evaluations = 166 166

Pair  time (%) = 0.146521 (88.7636)
Neigh time (%) = 0 (0)
Comm  time (%) = 0.00132918 (0.805229)
Outpt time (%) = 0.00106645 (0.646061)
Other time (%) = 0.0161521 (9.78508)

[...]
    2890  0.016425309   -2213.3362   -2213.3362   -3381.9879    3381.9879 
    2900 0.0036740577    -2213.337    -2213.337   -3383.0278    3383.0278 
    2910 0.00068718826   -2213.3372   -2213.3372    -3383.243     3383.243 
    2920 1.2210735e-05   -2213.3372   -2213.3372   -3383.1796    3383.1796 
    2930 0.00062648135   -2213.3373   -2213.3373   -3383.3937    3383.3937 
    2940 0.00020952687   -2213.3373   -2213.3373   -3383.4007    3383.4007 
    2950 2.3197768e-06   -2213.3374   -2213.3374    -3383.422     3383.422 
    2953 3.4134449e-05   -2213.3374   -2213.3374   -3383.3966    3383.3966 
Loop time of 0.102542 on 1 procs for 103 steps with 511 atoms

Minimization stats:
  Stopping criterion = force tolerance
  Energy initial, next-to-last, final = 
        -2213.29749871     -2213.33735594     -2213.33735665
  Force two-norm initial, final = 0.264156 0.00652339
  Force max component initial, final = 0.028943 0.000510343
  Final line search alpha, max atom move = 0 0
  Iterations, force evaluations = 103 103

Pair  time (%) = 0.0914626 (89.1953)
Neigh time (%) = 0 (0)
Comm  time (%) = 0.000837803 (0.817034)
Outpt time (%) = 0.000663996 (0.647536)
Other time (%) = 0.00957751 (9.34009)

Nlocal:    511 ave 511 max 511 min
Histogram: 1 0 0 0 0 0 0 0 0 0
Nghost:    1017 ave 1017 max 1017 min
Histogram: 1 0 0 0 0 0 0 0 0 0
Neighs:    0 ave 0 max 0 min
Histogram: 1 0 0 0 0 0 0 0 0 0
FullNghs:  14256 ave 14256 max 14256 min
Histogram: 1 0 0 0 0 0 0 0 0 0

Total # of neighbors = 14256
Ave neighs/atom = 27.8982
Neighbor list builds = 0
Dangerous builds = 0
Memory usage per processor = 4.12988 Mbytes
Step Temp PotEng pe Press press 
    2953            0   -2213.3374   -2213.3374   -3383.3968    3383.3968 
    2954 2.7745659e-08   -2213.3374   -2213.3374   -3383.3968    3383.3968 
Loop time of 0.00212383 on 1 procs for 1 steps with 511 atoms

Minimization stats:
  Stopping criterion = force tolerance
  Energy initial, next-to-last, final = 
        -2213.33735665     -2213.33735665     -2213.33735665
  Force two-norm initial, final = 0.00652339 0.00652339
  Force max component initial, final = 0.000510343 0.000510343
  Final line search alpha, max atom move = 0 0
  Iterations, force evaluations = 1 1

Pair  time (%) = 0.00184512 (86.877)
Neigh time (%) = 0 (0)
Comm  time (%) = 1.62125e-05 (0.763359)
Outpt time (%) = 0 (0)
Other time (%) = 0.000262499 (12.3597)

Nlocal:    511 ave 511 max 511 min
Histogram: 1 0 0 0 0 0 0 0 0 0
Nghost:    1017 ave 1017 max 1017 min
Histogram: 1 0 0 0 0 0 0 0 0 0
Neighs:    0 ave 0 max 0 min
Histogram: 1 0 0 0 0 0 0 0 0 0
FullNghs:  14256 ave 14256 max 14256 min
Histogram: 1 0 0 0 0 0 0 0 0 0

Total # of neighbors = 14256
Ave neighs/atom = 27.8982
Neighbor list builds = 0
Dangerous builds = 0
Memory usage per processor = 4.12988 Mbytes
Step Temp PotEng pe Press press 
    2900            0   -2213.2605   -2213.2605   -3387.5271    3387.5271 
    2910  0.023532648   -2213.2619   -2213.2619    -3387.715     3387.715 
    2920   0.21687818   -2213.2733   -2213.2733   -3388.6457    3388.6457 
    2930   0.52869335   -2213.3017   -2213.3017   -3381.5177    3381.5177 
    2940   0.11049193   -2213.3284   -2213.3284   -3376.6317    3376.6317 
    2950  0.045043611   -2213.3359   -2213.3359   -3381.1128    3381.1128 
    2960 0.0017087296   -2213.3369   -2213.3369   -3383.4991    3383.4991 
    2970 0.0031564971   -2213.3371   -2213.3371   -3383.4986    3383.4986 
    2980 0.0039539951   -2213.3373   -2213.3373   -3383.1731    3383.1731 
    2990 1.1694593e-05   -2213.3374   -2213.3374   -3383.4867    3383.4867 
    3000 0.00018348334   -2213.3374   -2213.3374   -3383.3741    3383.3741 
    3003 0.00020248882   -2213.3374   -2213.3374   -3383.3694    3383.3694 
Loop time of 0.102841 on 1 procs for 103 steps with 511 atoms

Minimization stats:
  Stopping criterion = force tolerance
  Energy initial, next-to-last, final = 
        -2213.26054891     -2213.33737575     -2213.33737684
  Force two-norm initial, final = 0.545811 0.00561559
  Force max component initial, final = 0.109345 0.000540844
  Final line search alpha, max atom move = 0 0
  Iterations, force evaluations = 103 103

Pair  time (%) = 0.0920005 (89.459)
Neigh time (%) = 0 (0)
Comm  time (%) = 0.000822067 (0.799358)
Outpt time (%) = 0.000674963 (0.656318)
Other time (%) = 0.00934339 (9.08528)

Nlocal:    511 ave 511 max 511 min
Histogram: 1 0 0 0 0 0 0 0 0 0
Nghost:    1017 ave 1017 max 1017 min
Histogram: 1 0 0 0 0 0 0 0 0 0
Neighs:    0 ave 0 max 0 min
Histogram: 1 0 0 0 0 0 0 0 0 0
FullNghs:  14256 ave 14256 max 14256 min
Histogram: 1 0 0 0 0 0 0 0 0 0

Total # of neighbors = 14256
Ave neighs/atom = 27.8982
Neighbor list builds = 0
Dangerous builds = 0
Memory usage per processor = 4.12988 Mbytes
Step Temp PotEng pe Press press 
    3003            0   -2213.3374   -2213.3374   -3383.3708    3383.3708 
    3004 2.0560756e-08   -2213.3374   -2213.3374   -3383.3708    3383.3708 
Loop time of 0.00212097 on 1 procs for 1 steps with 511 atoms

Minimization stats:
  Stopping criterion = force tolerance
  Energy initial, next-to-last, final = 
        -2213.33737684     -2213.33737684     -2213.33737684
  Force two-norm initial, final = 0.00561559 0.00561559
  Force max component initial, final = 0.000540844 0.000540844
  Final line search alpha, max atom move = 0 0
  Iterations, force evaluations = 1 1

Pair  time (%) = 0.00184917 (87.1853)
Neigh time (%) = 0 (0)
Comm  time (%) = 1.71661e-05 (0.809353)
Outpt time (%) = 0 (0)
Other time (%) = 0.000254631 (12.0054)

Nlocal:    511 ave 511 max 511 min
Histogram: 1 0 0 0 0 0 0 0 0 0
Nghost:    1017 ave 1017 max 1017 min
Histogram: 1 0 0 0 0 0 0 0 0 0
Neighs:    0 ave 0 max 0 min
Histogram: 1 0 0 0 0 0 0 0 0 0
FullNghs:  14256 ave 14256 max 14256 min
Histogram: 1 0 0 0 0 0 0 0 0 0

Total # of neighbors = 14256
Ave neighs/atom = 27.8982
Neighbor list builds = 0
Dangerous builds = 0
Memory usage per processor = 4.12988 Mbytes
Step Temp PotEng pe Press press 
    2850            0   -2213.2961   -2213.2961   -3380.1957    3380.1957 
    2860  0.048892097    -2213.299    -2213.299   -3380.8124    3380.8124 
    2870   0.18260649   -2213.3089   -2213.3089   -3385.0468    3385.0468 
    2880   0.22594599   -2213.3193   -2213.3193   -3380.4494    3380.4494 
    2890 0.00091708291   -2213.3274   -2213.3274   -3383.4338    3383.4338 
    2900  0.031330615   -2213.3297   -2213.3297   -3384.5608    3384.5608 
    2910   0.14249658   -2213.3339   -2213.3339   -3382.2378    3382.2378 
    2920  0.028916293   -2213.3352   -2213.3352   -3383.5586    3383.5586 
    2930  0.004500852   -2213.3356   -2213.3356   -3383.5761    3383.5761 
    2940  0.006799684   -2213.3364   -2213.3364   -3383.3971    3383.3971 
    2950 0.00064331715   -2213.3368   -2213.3368   -3383.4312    3383.4312 
    2960 0.0051186859   -2213.3371   -2213.3371   -3383.4023    3383.4023 
    2970 2.8527835e-05   -2213.3373   -2213.3373   -3383.4006    3383.4006 
    2980 0.0002665594   -2213.3373   -2213.3373   -3383.3936    3383.3936 
    2981 0.00038318659   -2213.3373   -2213.3373   -3383.3965    3383.3965 
Loop time of 0.131982 on 1 procs for 131 steps with 511 atoms

Minimization stats:
  Stopping criterion = force tolerance
  Energy initial, next-to-last, final = 
        -2213.29611812     -2213.33733346     -2213.33733865
  Force two-norm initial, final = 0.811616 0.00807336
  Force max component initial, final = 0.101858 0.000624444
  Final line search alpha, max atom move = 0 0
  Iterations, force evaluations = 131 131

Pair  time (%) = 0.115471 (87.4903)
Neigh time (%) = 0 (0)
Comm  time (%) = 0.00104737 (0.793573)
Outpt time (%) = 0.00086832 (0.657909)
Other time (%) = 0.0145948 (11.0582)

Nlocal:    511 ave 511 max 511 min
Histogram: 1 0 0 0 0 0 0 0 0 0
Nghost:    1017 ave 1017 max 1017 min
Histogram: 1 0 0 0 0 0 0 0 0 0
Neighs:    0 ave 0 max 0 min
Histogram: 1 0 0 0 0 0 0 0 0 0
FullNghs:  14256 ave 14256 max 14256 min
Histogram: 1 0 0 0 0 0 0 0 0 0

Total # of neighbors = 14256
Ave neighs/atom = 27.8982
Neighbor list builds = 0
Dangerous builds = 0
Memory usage per processor = 4.12988 Mbytes
Step Temp PotEng pe Press press 
    2981            0   -2213.3373   -2213.3373   -3383.3991    3383.3991 
    2982 4.2496903e-08   -2213.3373   -2213.3373   -3383.3991    3383.3991 
Loop time of 0.00216007 on 1 procs for 1 steps with 511 atoms

Minimization stats:
  Stopping criterion = force tolerance
  Energy initial, next-to-last, final = 
        -2213.33733865     -2213.33733865     -2213.33733865
  Force two-norm initial, final = 0.00807336 0.00807336
  Force max component initial, final = 0.000624444 0.000624444
  Final line search alpha, max atom move = 0 0
  Iterations, force evaluations = 1 1

Pair  time (%) = 0.0018537 (85.8168)
Neigh time (%) = 0 (0)
Comm  time (%) = 1.5974e-05 (0.739514)
Outpt time (%) = 0 (0)
Other time (%) = 0.000290394 (13.4437)

Nlocal:    511 ave 511 max 511 min
Histogram: 1 0 0 0 0 0 0 0 0 0
Nghost:    1017 ave 1017 max 1017 min
Histogram: 1 0 0 0 0 0 0 0 0 0
Neighs:    0 ave 0 max 0 min
Histogram: 1 0 0 0 0 0 0 0 0 0
FullNghs:  14256 ave 14256 max 14256 min
Histogram: 1 0 0 0 0 0 0 0 0 0

Total # of neighbors = 14256
Ave neighs/atom = 27.8982
Neighbor list builds = 0
Dangerous builds = 0
Memory usage per processor = 4.12988 Mbytes
Step Temp PotEng pe Press press 
    2900            0   -2213.3079   -2213.3079   -3383.9406    3383.9406 
    2910 0.0086761425   -2213.3084   -2213.3084   -3384.0733    3384.0733 
    2920   0.07727389   -2213.3125   -2213.3125   -3385.0182    3385.0182 
    2930   0.20826819   -2213.3239   -2213.3239   -3382.9613    3382.9613 
    2940  0.024661288   -2213.3348   -2213.3348   -3383.3869    3383.3869 
    2950 0.0094889886   -2213.3353   -2213.3353   -3383.5439    3383.5439 
    2960 0.00016262715   -2213.3366   -2213.3366   -3383.4541    3383.4541 
    2970 0.00052438096   -2213.3368   -2213.3368   -3383.4401    3383.4401 
    2980 0.0036855028    -2213.337    -2213.337   -3383.3971    3383.3971 
    2990 0.00094702197   -2213.3371   -2213.3371   -3383.4245    3383.4245 
    3000 0.00027191759   -2213.3371   -2213.3371   -3383.4147    3383.4147 
    3010 2.6868004e-05   -2213.3372   -2213.3372   -3383.4032    3383.4032 
    3020 3.4326287e-05   -2213.3372   -2213.3372   -3383.4119    3383.4119 
    3030 0.00046366645   -2213.3373   -2213.3373   -3383.4009    3383.4009 
    3039 0.0016517416   -2213.3374   -2213.3374   -3383.3868    3383.3868 
Loop time of 0.138398 on 1 procs for 139 steps with 511 atoms

Minimization stats:
  Stopping criterion = force tolerance
  Energy initial, next-to-last, final = 
        -2213.30793939     -2213.33735408      -2213.3373668
  Force two-norm initial, final = 0.331632 0.00521015
  Force max component initial, final = 0.044046 0.000358135
  Final line search alpha, max atom move = 0 0
  Iterations, force evaluations = 139 139

Pair  time (%) = 0.123294 (89.0865)
Neigh time (%) = 0 (0)
Comm  time (%) = 0.00112939 (0.816045)
Outpt time (%) = 0.000871181 (0.629476)
Other time (%) = 0.0131035 (9.46798)

Nlocal:    511 ave 511 max 511 min
Histogram: 1 0 0 0 0 0 0 0 0 0
Nghost:    1017 ave 1017 max 1017 min
Histogram: 1 0 0 0 0 0 0 0 0 0
Neighs:    0 ave 0 max 0 min
Histogram: 1 0 0 0 0 0 0 0 0 0
FullNghs:  14256 ave 14256 max 14256 min
Histogram: 1 0 0 0 0 0 0 0 0 0

Total # of neighbors = 14256
Ave neighs/atom = 27.8982
Neighbor list builds = 0
Dangerous builds = 0
Memory usage per processor = 4.12988 Mbytes
Step Temp PotEng pe Press press 
    3039            0   -2213.3374   -2213.3374   -3383.3981    3383.3981 
    3040 1.7699021e-08   -2213.3374   -2213.3374   -3383.3981    3383.3981 
Loop time of 0.00225902 on 1 procs for 1 steps with 511 atoms

Minimization stats:
  Stopping criterion = force tolerance
  Energy initial, next-to-last, final = 
         -2213.3373668      -2213.3373668      -2213.3373668
  Force two-norm initial, final = 0.00521015 0.00521015
  Force max component initial, final = 0.000358135 0.000358135
  Final line search alpha, max atom move = 0 0
  Iterations, force evaluations = 1 1

Pair  time (%) = 0.00198412 (87.8311)
Neigh time (%) = 0 (0)
Comm  time (%) = 1.66893e-05 (0.738786)
Outpt time (%) = 0 (0)
Other time (%) = 0.000258207 (11.4301)

Nlocal:    511 ave 511 max 511 min
Histogram: 1 0 0 0 0 0 0 0 0 0
Nghost:    1017 ave 1017 max 1017 min
Histogram: 1 0 0 0 0 0 0 0 0 0
Neighs:    0 ave 0 max 0 min
Histogram: 1 0 0 0 0 0 0 0 0 0
FullNghs:  14256 ave 14256 max 14256 min
Histogram: 1 0 0 0 0 0 0 0 0 0

Total # of neighbors = 14256
Ave neighs/atom = 27.8982
Neighbor list builds = 0
Dangerous builds = 0
Memory usage per processor = 4.12988 Mbytes
Step Temp PotEng pe Press press 
    2950            0   -2213.2979   -2213.2979    -3387.412     3387.412 
    2960  0.028387401   -2213.2996   -2213.2996   -3387.2817    3387.2817 
    2970   0.14256695   -2213.3072   -2213.3072   -3385.8522    3385.8522 
    2980   0.26567844     -2213.32     -2213.32   -3381.9087    3381.9087 
    2990   0.64422957   -2213.3322   -2213.3322   -3379.4801    3379.4801 
    3000 0.00069254843   -2213.3346   -2213.3346   -3384.3949    3384.3949 
    3010  0.013278119   -2213.3354   -2213.3354   -3383.4515    3383.4515 
    3020 0.0012860708   -2213.3364   -2213.3364   -3383.6295    3383.6295 
    3030 0.00038326977   -2213.3365   -2213.3365   -3383.3199    3383.3199 
    3040 0.0027352604   -2213.3367   -2213.3367   -3383.5489    3383.5489 
    3050  0.010506166   -2213.3372   -2213.3372   -3383.4402    3383.4402 
    3060 0.0003790136   -2213.3373   -2213.3373   -3383.4123    3383.4123 
    3070 9.7286885e-05   -2213.3373   -2213.3373   -3383.3482    3383.3482 
    3080 0.00048021413   -2213.3373   -2213.3373    -3383.398     3383.398 
Loop time of 0.1292 on 1 procs for 130 steps with 511 atoms

Minimization stats:
  Stopping criterion = force tolerance
  Energy initial, next-to-last, final = 
        -2213.29793187     -2213.33733144     -2213.33733655
  Force two-norm initial, final = 0.612798 0.00879314
  Force max component initial, final = 0.0619097 0.000782596
  Final line search alpha, max atom move = 0 0
  Iterations, force evaluations = 130 130

Pair  time (%) = 0.114885 (88.9202)
Neigh time (%) = 0 (0)
Comm  time (%) = 0.00104713 (0.810476)
Outpt time (%) = 0.000799894 (0.619113)
Other time (%) = 0.0124681 (9.65023)

Nlocal:    511 ave 511 max 511 min
Histogram: 1 0 0 0 0 0 0 0 0 0
Nghost:    1017 ave 1017 max 1017 min
Histogram: 1 0 0 0 0 0 0 0 0 0
Neighs:    0 ave 0 max 0 min
Histogram: 1 0 0 0 0 0 0 0 0 0
FullNghs:  14256 ave 14256 max 14256 min
Histogram: 1 0 0 0 0 0 0 0 0 0

Total # of neighbors = 14256
Ave neighs/atom = 27.8982
Neighbor list builds = 0
Dangerous builds = 0
Memory usage per processor = 4.12988 Mbytes
Step Temp PotEng pe Press press 
    3080            0   -2213.3373   -2213.3373   -3383.4013    3383.4013 
    3081 5.0412285e-08   -2213.3373   -2213.3373   -3383.4013    3383.4013 
Loop time of 0.00211906 on 1 procs for 1 steps with 511 atoms

Minimization stats:
  Stopping criterion = force tolerance
  Energy initial, next-to-last, final = 
        -2213.33733655     -2213.33733655     -2213.33733655
  Force two-norm initial, final = 0.00879314 0.00879314
  Force max component initial, final = 0.000782596 0.000782596
  Final line search alpha, max atom move = 0 0
  Iterations, force evaluations = 1 1

Pair  time (%) = 0.00185013 (87.3087)
Neigh time (%) = 0 (0)
Comm  time (%) = 1.5974e-05 (0.753825)
Outpt time (%) = 0 (0)
Other time (%) = 0.000252962 (11.9374)

Nlocal:    511 ave 511 max 511 min
Histogram: 1 0 0 0 0 0 0 0 0 0
Nghost:    1017 ave 1017 max 1017 min
Histogram: 1 0 0 0 0 0 0 0 0 0
Neighs:    0 ave 0 max 0 min
Histogram: 1 0 0 0 0 0 0 0 0 0
FullNghs:  14256 ave 14256 max 14256 min
Histogram: 1 0 0 0 0 0 0 0 0 0

Total # of neighbors = 14256
Ave neighs/atom = 27.8982
Neighbor list builds = 0
Dangerous builds = 0
Memory usage per processor = 4.12988 Mbytes
Step Temp PotEng pe Press press 
    3000            0    -2213.277    -2213.277   -3391.6365    3391.6365 
    3010   0.03530286   -2213.2791   -2213.2791   -3391.2779    3391.2779 
    3020   0.15913761   -2213.2876   -2213.2876   -3388.1048    3388.1048 
    3030   0.37569588   -2213.3063   -2213.3063   -3385.0763    3385.0763 
    3040    1.0275607   -2213.3322   -2213.3322   -3375.8678    3375.8678 
    3050 0.0010396951   -2213.3341   -2213.3341   -3383.8493    3383.8493 
    3060  0.011777798   -2213.3349   -2213.3349   -3382.7379    3382.7379 
    3070 0.0039130565   -2213.3352   -2213.3352   -3383.1142    3383.1142 
    3080  0.014196489   -2213.3359   -2213.3359   -3382.9828    3382.9828 
    3090 0.0021990272   -2213.3366   -2213.3366   -3383.2612    3383.2612 
    3100  0.001529451   -2213.3369   -2213.3369   -3383.5083    3383.5083 
    3110 0.00032865941   -2213.3369   -2213.3369   -3383.3875    3383.3875 
    3120 0.0025721497    -2213.337    -2213.337   -3383.3502    3383.3502 
    3130 0.00025569874   -2213.3373   -2213.3373   -3383.3815    3383.3815 
    3135 2.6274736e-05   -2213.3373   -2213.3373   -3383.4255    3383.4255 
Loop time of 0.13408 on 1 procs for 135 steps with 511 atoms

Minimization stats:
  Stopping criterion = force tolerance
  Energy initial, next-to-last, final = 
        -2213.27702968     -2213.33732752     -2213.33732812
  Force two-norm initial, final = 0.685513 0.00993284
  Force max component initial, final = 0.0928461 0.000788965
  Final line search alpha, max atom move = 0 0
  Iterations, force evaluations = 135 135

Pair  time (%) = 0.119282 (88.9635)
Neigh time (%) = 0 (0)
Comm  time (%) = 0.00109792 (0.818853)
Outpt time (%) = 0.000866413 (0.646191)
Other time (%) = 0.0128334 (9.57142)

Nlocal:    511 ave 511 max 511 min
Histogram: 1 0 0 0 0 0 0 0 0 0
Nghost:    1017 ave 1017 max 1017 min
Histogram: 1 0 0 0 0 0 0 0 0 0
Neighs:    0 ave 0 max 0 min
Histogram: 1 0 0 0 0 0 0 0 0 0
FullNghs:  14256 ave 14256 max 14256 min
Histogram: 1 0 0 0 0 0 0 0 0 0

Total # of neighbors = 14256
Ave neighs/atom = 27.8982
Neighbor list builds = 0
Dangerous builds = 0
Memory usage per processor = 4.12988 Mbytes
Step Temp PotEng pe Press press 
    3135            0   -2213.3373   -2213.3373   -3383.4257    3383.4257 
    3136 6.4327384e-08   -2213.3373   -2213.3373   -3383.4257    3383.4257 
Loop time of 0.00211 on 1 procs for 1 steps with 511 atoms

Minimization stats:
  Stopping criterion = force tolerance
  Energy initial, next-to-last, final = 
        -2213.33732812     -2213.33732812     -2213.33732812
  Force two-norm initial, final = 0.00993284 0.00993284
  Force max component initial, final = 0.000788965 0.000788965
  Final line search alpha, max atom move = 0 0
  Iterations, force evaluations = 1 1

Pair  time (%) = 0.00184989 (87.6723)
Neigh time (%) = 0 (0)
Comm  time (%) = 1.50204e-05 (0.711864)
Outpt time (%) = 0 (0)
Other time (%) = 0.000245094 (11.6158)

Nlocal:    511 ave 511 max 511 min
Histogram: 1 0 0 0 0 0 0 0 0 0
Nghost:    1017 ave 1017 max 1017 min
Histogram: 1 0 0 0 0 0 0 0 0 0
Neighs:    0 ave 0 max 0 min
Histogram: 1 0 0 0 0 0 0 0 0 0
FullNghs:  14256 ave 14256 max 14256 min
Histogram: 1 0 0 0 0 0 0 0 0 0

Total # of neighbors = 14256
Ave neighs/atom = 27.8982
Neighbor list builds = 0
Dangerous builds = 0
Loop time of 33.69 on 1 procs for 22 steps with 511 atoms

TAD stats:
  NEB      time (%) = 12.7309 (37.7882)
  Dynamics time (%) = 0 (0)
  Quench   time (%) = 0 (0)
  Comm     time (%) = 0 (0)
  Output   time (%) = 0 (0)
  Other    time (%) = 20.9592 (62.2118)

Nlocal:    511 ave 511 max 511 min
Histogram: 1 0 0 0 0 0 0 0 0 0
Nghost:    1017 ave 1017 max 1017 min
Histogram: 1 0 0 0 0 0 0 0 0 0
Neighs:    0 ave 0 max 0 min
Histogram: 1 0 0 0 0 0 0 0 0 0
FullNghs:  14256 ave 14256 max 14256 min
Histogram: 1 0 0 0 0 0 0 0 0 0

Total # of neighbors = 14256
Ave neighs/atom = 27.8982
Neighbor list builds = 0
Dangerous builds = 0
