LAMMPS (5 Oct 2016)
Running on 3 partitions of processors
Step CPU N M Status Barrier Margin t_lo delt_lo
1000 0.000 0 0 E  0.000 0.000 0.000 0.000
1150 0.931 0 0 DF 2.957 0.000 0.000 17626.822
1550 2.853 0 1 DF 0.510 0.049 0.000 1251.400
1950 4.872 0 2 D  2.971 0.610 0.000 114049.526
2350 6.783 0 3 D  0.510 0.867 0.000 3071.448
2800 9.005 0 4 D  2.971 1.156 0.000 216079.482
1550 9.005 1 1 E  0.510 0.000 1251.400 1251.400
1650 9.597 1 0 DF 0.510 0.000 1251.400 227.525
1750 10.191 1 1 D  0.510 0.461 1251.400 455.068
1850 10.778 1 2 D  0.510 0.692 1251.400 682.575
1950 11.378 1 3 D  0.510 0.923 1251.400 910.139
2050 11.984 1 4 D  0.510 1.154 1251.400 1137.620
1650 11.984 2 0 E  0.510 0.000 1478.925 227.525
1850 13.035 2 0 DF 0.510 0.000 1478.925 455.069
2050 14.075 2 1 D  0.510 0.549 1478.925 910.151
2250 15.111 2 2 D  0.510 0.823 1478.925 1365.187
2450 16.142 2 3 D  0.510 1.098 1478.925 1820.330
1850 16.142 3 0 E  0.510 0.000 1933.994 455.069
1950 16.756 3 0 DF 0.510 0.000 1933.994 227.535
2050 17.364 3 1 D  0.510 0.461 1933.994 455.048
2150 17.992 3 2 D  0.510 0.692 1933.994 682.547
2250 18.598 3 3 D  0.510 0.923 1933.994 910.098
2350 19.205 3 4 D  0.510 1.154 1933.994 1137.697
1950 19.205 4 0 E  0.510 0.000 2161.529 227.535
2100 20.068 4 0 DF 2.518 0.000 2161.529 8680.975
2250 20.885 4 1 DF 0.510 0.045 2161.529 682.601
2400 21.741 4 2 D  2.518 0.455 2161.529 26043.029
2550 22.568 4 3 D  0.510 0.607 2161.529 1365.124
2700 23.433 4 4 D  2.518 0.759 2161.529 43402.020
2850 24.247 4 5 D  0.510 0.911 2161.529 2047.724
3000 25.111 4 6 D  2.518 1.063 2161.529 60767.455
2250 25.111 5 1 E  0.510 0.000 2844.130 682.601
2450 26.137 5 0 DF 0.510 0.000 2844.130 455.061
2700 27.384 5 1 D  0.510 0.617 2844.130 1023.896
2950 28.658 5 2 D  0.510 0.960 2844.130 1592.629
Loop time of 28.8761 on 3 procs for 2000 steps with 511 atoms
