LAMMPS (1 Feb 2014)
Running on 3 partitions of processors
Step CPU N M Status Barrier Margin t_lo delt_lo
1000 0.000 0 0 E  0.000 0.000 0.000 0.000
1150 0.748 0 0 DF 2.957 0.000 0.000 17626.824
1550 2.331 0 1 DF 0.510 0.049 0.000 1251.430
1950 3.984 0 2 D  2.971 0.610 0.000 114047.616
2350 5.628 0 3 D  0.510 0.867 0.000 3071.554
2800 7.449 0 4 D  2.971 1.156 0.000 216084.662
1550 7.449 1 1 E  0.510 0.000 1251.430 1251.430
1600 7.958 1 0 DF 0.000 0.000 1251.430 50.030
1650 8.284 1 1 D  0.510 0.719 1251.430 227.518
1700 8.594 1 2 D  0.510 1.078 1251.430 341.286
1600 8.594 2 0 E  0.000 0.000 1301.460 50.030
1650 8.966 2 0 DF 0.510 0.000 1301.460 113.771
1700 9.285 2 1 D  0.510 0.388 1301.460 227.536
1750 9.602 2 2 D  0.510 0.582 1301.460 341.304
1800 9.920 2 3 D  0.510 0.776 1301.460 455.071
1850 10.237 2 4 D  0.510 0.970 1301.460 568.839
1900 10.557 2 5 D  0.510 1.164 1301.460 682.606
1650 10.557 3 0 E  0.510 0.000 1415.230 113.771
1700 10.880 3 0 DF 0.000 0.000 1415.230 50.000
1750 11.230 3 1 D  0.000 0.719 1415.230 100.000
1800 11.572 3 2 D  0.000 1.078 1415.230 150.007
1700 11.572 4 0 E  0.000 0.000 1465.230 50.000
1750 11.906 4 0 DF 0.000 0.000 1465.230 50.004
1800 12.258 4 1 D  0.000 0.719 1465.230 100.003
1850 12.604 4 2 D  0.000 1.078 1465.230 150.009
1750 12.604 5 0 E  0.000 0.000 1515.234 50.004
1800 12.936 5 0 DF 0.000 0.000 1515.234 50.002
1850 13.280 5 1 D  0.000 0.719 1515.234 100.000
1900 13.633 5 2 D  0.000 1.078 1515.234 150.005
1800 13.633 6 0 E  0.000 0.000 1565.236 50.002
1850 13.949 6 0 DF 0.510 0.000 1565.236 113.770
1900 14.298 6 1 DF 0.000 0.388 1565.236 100.003
1950 14.640 6 2 D  0.000 0.641 1565.236 150.005
2000 14.988 6 3 D  0.000 0.855 1565.236 200.014
2050 15.325 6 4 D  0.000 1.069 1565.236 250.017
1900 15.325 7 1 E  0.000 0.000 1665.239 100.003
1950 15.659 7 0 DF 0.000 0.000 1665.239 50.004
2000 15.987 7 1 D  0.000 0.719 1665.239 100.000
2050 16.317 7 2 D  0.000 1.078 1665.239 150.001
1950 16.317 8 0 E  0.000 0.000 1715.243 50.004
2000 16.633 8 0 DF 0.000 0.000 1715.243 50.001
2050 16.916 8 1 D  0.000 0.719 1715.243 100.000
2100 17.202 8 2 D  0.000 1.078 1715.243 150.000
2000 17.202 9 0 E  0.000 0.000 1765.244 50.001
2050 17.510 9 0 DF 0.000 0.000 1765.244 50.001
2100 17.816 9 1 D  0.000 0.719 1765.244 100.000
2150 18.120 9 2 D  0.000 1.078 1765.244 150.000
2050 18.120 10 0 E  0.000 0.000 1815.244 50.001
2100 18.428 10 0 DF 0.000 0.000 1815.244 50.004
2150 18.726 10 1 D  0.000 0.719 1815.244 100.000
2200 19.016 10 2 D  0.000 1.078 1815.244 150.000
2100 19.016 11 0 E  0.000 0.000 1865.248 50.004
2150 19.532 11 0 DF 0.025 0.000 1865.248 52.082
2200 19.847 11 1 D  0.000 0.697 1865.248 100.000
2250 20.166 11 2 D  0.000 1.046 1865.248 150.000
2150 20.166 12 0 E  0.025 0.000 1917.330 52.082
2200 20.690 12 0 DF 0.004 0.000 1917.330 50.349
2250 21.009 12 1 D  0.000 0.715 1917.330 100.000
2300 21.317 12 2 D  0.000 1.073 1917.330 150.000
2200 21.317 13 0 E  0.004 0.000 1967.679 50.349
2250 21.635 13 0 DF 0.000 0.000 1967.679 50.000
2300 21.916 13 1 D  0.000 0.719 1967.679 100.004
2350 22.198 13 2 D  0.000 1.078 1967.679 150.007
2250 22.198 14 0 E  0.000 0.000 2017.679 50.000
2300 22.517 14 0 DF 0.000 0.000 2017.679 50.003
2350 22.817 14 1 D  0.000 0.719 2017.679 100.003
2400 23.140 14 2 D  0.000 1.078 2017.679 150.009
2300 23.140 15 0 E  0.000 0.000 2067.682 50.003
2350 23.468 15 0 DF 0.000 0.000 2067.682 50.002
2400 23.793 15 1 D  0.000 0.719 2067.682 100.009
2450 24.099 15 2 D  0.000 1.078 2067.682 150.006
2350 24.099 16 0 E  0.000 0.000 2117.684 50.002
2400 24.413 16 0 DF 0.510 0.000 2117.684 113.775
2450 24.757 16 1 DF 0.000 0.388 2117.684 100.002
2500 25.061 16 2 D  0.000 0.641 2117.684 150.000
2550 25.393 16 3 D  0.000 0.855 2117.684 200.012
2600 25.707 16 4 D  0.000 1.069 2117.684 250.003
2450 25.707 17 1 E  0.000 0.000 2217.686 100.002
2500 26.032 17 0 DF 0.000 0.000 2217.686 50.002
2550 26.330 17 1 D  0.000 0.719 2217.686 100.002
2600 26.623 17 2 D  0.000 1.078 2217.686 150.002
2500 26.623 18 0 E  0.000 0.000 2267.688 50.002
2550 26.955 18 0 DF 0.000 0.000 2267.688 50.001
2600 27.295 18 1 D  0.000 0.719 2267.688 100.003
2650 27.611 18 2 D  0.000 1.078 2267.688 150.000
2550 27.611 19 0 E  0.000 0.000 2317.689 50.001
2600 27.948 19 0 DF 0.000 0.000 2317.689 50.000
2650 28.274 19 1 D  0.000 0.719 2317.689 100.006
2700 28.590 19 2 D  0.000 1.078 2317.689 150.002
2600 28.590 20 0 E  0.000 0.000 2367.689 50.000
2650 28.925 20 0 DF 0.000 0.000 2367.689 50.003
2700 29.251 20 1 D  0.000 0.719 2367.689 100.002
2750 29.590 20 2 D  0.000 1.078 2367.689 150.006
2650 29.590 21 0 E  0.000 0.000 2417.692 50.003
2700 29.919 21 0 DF 0.000 0.000 2417.692 50.000
2750 30.217 21 1 D  0.000 0.719 2417.692 100.000
2800 30.530 21 2 D  0.000 1.078 2417.692 150.000
2700 30.530 22 0 E  0.000 0.000 2467.692 50.000
2750 30.874 22 0 DF 0.000 0.000 2467.692 50.000
2800 31.190 22 1 D  0.000 0.719 2467.692 100.006
2850 31.511 22 2 D  0.000 1.078 2467.692 150.000
2750 31.511 23 0 E  0.000 0.000 2517.692 50.000
2800 31.842 23 0 DF 0.000 0.000 2517.692 50.004
2850 32.134 23 1 D  0.000 0.719 2517.692 100.006
2900 32.415 23 2 D  0.000 1.078 2517.692 150.007
2800 32.415 24 0 E  0.000 0.000 2567.696 50.004
2850 32.741 24 0 DF 0.510 0.000 2567.696 113.770
2900 33.068 24 1 DF 0.000 0.388 2567.696 100.000
2950 33.382 24 2 D  0.000 0.641 2567.696 150.000
3000 33.697 24 3 D  0.000 0.855 2567.696 200.007
Loop time of 33.6969 on 3 procs for 2000 steps with 511 atoms
