LAMMPS (18 Feb 2013)
Running on 3 partitions of processors
Step CPU N M Status Barrier Margin t_lo delt_lo
1000 0.000 0 0 E  0.000 0.000 0.000 0.000
1150 0.902 0 0 DF 2.957 0.000 0.000 17626.816
1550 2.531 0 1 DF 0.510 0.049 0.000 1251.448
1950 4.331 0 2 D  2.971 0.610 0.000 114049.225
2350 6.048 0 3 D  0.510 0.867 0.000 3071.754
2800 8.014 0 4 D  2.971 1.156 0.000 216085.667
1550 8.014 1 1 E  0.510 0.000 1251.448 1251.448
1600 8.570 1 0 DF 0.004 0.000 1251.448 50.293
1650 8.933 1 1 D  0.510 0.716 1251.448 227.529
1700 9.286 1 2 D  0.510 1.074 1251.448 341.298
1600 9.286 2 0 E  0.004 0.000 1301.740 50.293
1650 9.662 2 0 DF 0.510 0.000 1301.740 113.769
1700 10.021 2 1 D  0.510 0.388 1301.740 227.536
1750 10.376 2 2 D  0.510 0.582 1301.740 341.308
1800 10.742 2 3 D  0.510 0.776 1301.740 455.073
1850 11.102 2 4 D  0.510 0.970 1301.740 568.841
1900 11.466 2 5 D  0.510 1.164 1301.740 682.598
1650 11.466 3 0 E  0.510 0.000 1415.510 113.769
1700 11.842 3 0 DF 0.000 0.000 1415.510 50.000
1750 12.435 3 1 D  1.567 0.719 1415.510 1250.573
1800 13.054 3 2 D  76.180 1.078 1415.510 31613081566057115238226786648460034882806574434213691392.000
1700 13.054 4 0 E  0.000 0.000 1465.510 50.000
1750 13.606 4 0 DF 0.002 0.000 1465.510 50.195
1800 14.079 4 1 D  0.000 0.717 1465.510 100.004
1850 14.544 4 2 D  0.000 1.075 1465.510 150.012
1750 14.544 5 0 E  0.002 0.000 1515.705 50.195
1800 14.920 5 0 DF 0.000 0.000 1515.705 50.000
1850 15.398 5 1 D  0.000 0.719 1515.705 100.000
1900 15.867 5 2 D  0.000 1.078 1515.705 150.001
1800 15.867 6 0 E  0.000 0.000 1565.705 50.000
1850 16.230 6 0 DF 0.510 0.000 1565.705 113.770
1900 16.673 6 1 DF 0.000 0.388 1565.705 100.005
1950 17.138 6 2 D  0.000 0.641 1565.705 150.005
2000 17.603 6 3 D  0.000 0.855 1565.705 200.017
2050 18.214 6 4 D  76.670 1.069 1565.705 116027362857509849655775788102251808311739383313088905216.000
1900 18.214 7 1 E  0.000 0.000 1665.709 100.005
1950 18.591 7 0 DF 0.000 0.000 1665.709 50.004
2000 18.945 7 1 D  0.000 0.719 1665.709 100.000
2050 19.313 7 2 D  0.000 1.078 1665.709 150.006
1950 19.313 8 0 E  0.000 0.000 1715.714 50.004
2000 19.674 8 0 DF 0.000 0.000 1715.714 50.001
2050 20.019 8 1 D  0.000 0.719 1715.714 100.000
2100 20.436 8 2 D  0.000 1.078 1715.714 150.002
2000 20.436 9 0 E  0.000 0.000 1765.714 50.001
2050 20.790 9 0 DF 0.000 0.000 1765.714 50.002
2100 21.130 9 1 D  0.000 0.719 1765.714 100.000
2150 21.476 9 2 D  0.000 1.078 1765.714 150.000
2050 21.476 10 0 E  0.000 0.000 1815.716 50.002
2100 21.834 10 0 DF 0.000 0.000 1815.716 50.001
2150 22.180 10 1 D  0.000 0.719 1815.716 100.000
2200 22.521 10 2 D  0.000 1.078 1815.716 150.000
2100 22.521 11 0 E  0.000 0.000 1865.717 50.001
2150 23.074 11 0 DF 0.002 0.000 1865.717 50.166
2200 23.415 11 1 D  0.000 0.717 1865.717 100.005
2250 23.770 11 2 D  0.000 1.076 1865.717 150.000
2150 23.770 12 0 E  0.002 0.000 1915.884 50.166
2200 24.329 12 0 DF 0.001 0.000 1915.884 50.116
2250 24.668 12 1 D  0.000 0.718 1915.884 100.000
2300 25.021 12 2 D  0.000 1.076 1915.884 150.000
2200 25.021 13 0 E  0.001 0.000 1966.000 50.116
2250 25.370 13 0 DF 0.000 0.000 1966.000 50.003
2300 25.710 13 1 D  0.000 0.719 1966.000 100.005
2350 26.056 13 2 D  0.000 1.078 1966.000 150.000
2250 26.056 14 0 E  0.000 0.000 2016.003 50.003
2300 26.442 14 0 DF 0.000 0.000 2016.003 50.000
2350 26.776 14 1 D  0.000 0.719 2016.003 100.001
2400 27.120 14 2 D  0.000 1.078 2016.003 150.002
2300 27.120 15 0 E  0.000 0.000 2066.003 50.000
2350 27.482 15 0 DF 0.000 0.000 2066.003 50.001
2400 27.844 15 1 D  0.000 0.719 2066.003 100.003
2450 28.218 15 2 D  0.000 1.078 2066.003 150.005
2350 28.218 16 0 E  0.000 0.000 2116.004 50.001
2400 28.576 16 0 DF 0.510 0.000 2116.004 113.775
2450 28.924 16 1 DF 0.000 0.388 2116.004 100.008
2500 29.288 16 2 D  0.000 0.641 2116.004 150.000
2550 29.624 16 3 D  0.000 0.855 2116.004 200.019
2600 29.970 16 4 D  0.000 1.069 2116.004 250.001
2450 29.970 17 1 E  0.000 0.000 2216.012 100.008
2500 30.362 17 0 DF 0.000 0.000 2216.012 50.003
2550 30.703 17 1 D  0.000 0.719 2216.012 100.001
2600 31.058 17 2 D  0.000 1.078 2216.012 150.004
2500 31.058 18 0 E  0.000 0.000 2266.015 50.003
2550 31.429 18 0 DF 0.000 0.000 2266.015 50.000
2600 31.945 18 1 D  0.000 0.719 2266.015 100.006
2650 32.294 18 2 D  0.000 1.078 2266.015 150.002
2550 32.294 19 0 E  0.000 0.000 2316.015 50.000
2600 32.648 19 0 DF 0.000 0.000 2316.015 50.000
2650 32.990 19 1 D  0.000 0.719 2316.015 100.006
2700 33.331 19 2 D  0.000 1.078 2316.015 150.003
2600 33.331 20 0 E  0.000 0.000 2366.015 50.000
2650 33.697 20 0 DF 0.000 0.000 2366.015 50.003
2700 34.064 20 1 D  0.000 0.719 2366.015 100.010
2750 34.409 20 2 D  0.000 1.078 2366.015 150.009
2650 34.409 21 0 E  0.000 0.000 2416.018 50.003
2700 34.903 21 0 DF 0.000 0.000 2416.018 50.003
2750 35.250 21 1 D  0.000 0.719 2416.018 100.000
2800 35.583 21 2 D  0.000 1.078 2416.018 150.000
2700 35.583 22 0 E  0.000 0.000 2466.021 50.003
2750 35.948 22 0 DF 0.000 0.000 2466.021 50.000
2800 36.302 22 1 D  0.000 0.719 2466.021 100.005
2850 36.675 22 2 D  0.000 1.078 2466.021 150.003
2750 36.675 23 0 E  0.000 0.000 2516.021 50.000
2800 37.028 23 0 DF 0.000 0.000 2516.021 50.003
2850 37.359 23 1 D  0.000 0.719 2516.021 100.004
2900 37.695 23 2 D  0.000 1.078 2516.021 150.010
2800 37.695 24 0 E  0.000 0.000 2566.023 50.003
2850 38.149 24 0 DF 0.510 0.000 2566.023 113.771
2900 38.491 24 1 DF 0.000 0.388 2566.023 100.000
2950 38.848 24 2 D  0.000 0.641 2566.023 150.000
3000 39.198 24 3 D  0.000 0.855 2566.023 200.004
Loop time of 39.1984 on 3 procs for 2000 steps with 511 atoms
