LAMMPS (18 Feb 2013)
Processor partition = 1
# temperature accelerated dynamics model for a single vacancy in bulk Si
# events occur when a neighboring atom diffuses to the vacant site
# run this on multiple partitions as
#   mpirun -np 3 lmp_g++ -partition 3x1 -in in.tad

units           metal

atom_style      atomic
atom_modify     map array
boundary        p p p
atom_modify	sort 0 0.0

# temperatures
variable tlo equal 1800.0
variable thi equal 2400.0

# coordination number cutoff

variable r equal 2.835

# minimization parameters

variable etol equal 1.0e-5
variable ftol equal 1.0e-5
variable maxiter equal 100
variable maxeval equal 100
variable dmax equal 1.0e-1

# diamond unit cell

variable a equal 5.431
lattice         custom $a                               a1 1.0 0.0 0.0                          a2 0.0 1.0 0.0                          a3 0.0 0.0 1.0                          basis 0.0 0.0 0.0                       basis 0.0 0.5 0.5                       basis 0.5 0.0 0.5                       basis 0.5 0.5 0.0                       basis 0.25 0.25 0.25                    basis 0.25 0.75 0.75                    basis 0.75 0.25 0.75                    basis 0.75 0.75 0.25
lattice         custom 5.4310000000000000497                               a1 1.0 0.0 0.0                          a2 0.0 1.0 0.0                          a3 0.0 0.0 1.0                          basis 0.0 0.0 0.0                       basis 0.0 0.5 0.5                       basis 0.5 0.0 0.5                       basis 0.5 0.5 0.0                       basis 0.25 0.25 0.25                    basis 0.25 0.75 0.75                    basis 0.75 0.25 0.75                    basis 0.75 0.75 0.25
Lattice spacing in x,y,z = 5.431 5.431 5.431

region          myreg block     0 4                                 0 4                                 0 4
create_box      1 myreg
Created orthogonal box = (0 0 0) to (21.724 21.724 21.724)
  1 by 1 by 1 MPI processor grid
create_atoms    1 region myreg
Created 512 atoms

mass            1       28.06

group Si type 1
512 atoms in group Si

velocity all create ${thi} 5287286 mom yes rot yes dist gaussian
velocity all create 2400 5287286 mom yes rot yes dist gaussian

# make a vacancy

group del id 300
1 atoms in group del
delete_atoms group del
Deleted 1 atoms, new total = 511

pair_style      sw
pair_coeff * * Si.sw Si

thermo          10

fix             1 all nve
fix 		2 all langevin ${thi} ${thi} 0.1 48278
fix 		2 all langevin 2400 ${thi} 0.1 48278
fix 		2 all langevin 2400 2400 0.1 48278

timestep        1.0e-3
neighbor        1.0 bin
neigh_modify    every 1 delay 10 check yes

# equilibrate

run             1000
Memory usage per processor = 2.0318 Mbytes
Step Temp E_pair E_mol TotEng Press 
       0    2397.3877    -2211.666            0   -2053.6238    16437.395 
      10    1408.3954   -2139.6418            0   -2046.7966    19704.911 
      20    1093.6239   -2098.8191            0   -2026.7244    19039.499 
      30    1697.5623   -2125.7046            0   -2013.7967    14407.763 
      40    1432.3638   -2098.9446            0   -2004.5194    13762.586 
      50    1355.5121    -2075.899            0     -1986.54    15232.765 
      60    1740.8873   -2091.9136            0   -1977.1496    12856.126 
      70    1729.3154   -2080.3289            0   -1966.3278    13304.077 
      80    1544.9927   -2060.2808            0   -1958.4307    14545.574 
      90     1856.846   -2074.3867            0   -1951.9784    14679.213 
     100    1926.6837   -2075.6481            0   -1948.6359    15581.373 
     110    1952.0127   -2066.2941            0   -1937.6122    17867.407 
     120    2127.5273   -2070.5556            0   -1930.3033    18800.477 
     130    2263.2625   -2070.7786            0   -1921.5783    17480.258 
     140    2108.2074   -2055.1663            0   -1916.1876     18061.09 
     150    2108.0709   -2056.9914            0   -1918.0217    16185.697 
     160      2250.38   -2061.9776            0   -1913.6265    14775.208 
     170    2094.3406   -2051.5912            0   -1913.5267    15618.246 
     180    2133.2342   -2054.0585            0     -1913.43    14703.698 
     190    2167.8664   -2054.4793            0   -1911.5678    14412.634 
     200    2081.1592   -2044.2284            0   -1907.0328    16067.013 
     210    2193.7422   -2046.2424            0   -1901.6251    17491.305 
     220    2402.1726   -2058.7802            0   -1900.4225    16445.048 
     230    2236.7528    -2050.463            0   -1903.0103    15555.164 
     240    2073.9668   -2040.1169            0   -1903.3955    14943.188 
     250    2257.4854   -2050.8203            0   -1902.0008    15445.431 
     260     2315.568   -2051.1362            0   -1898.4877    16359.564 
     270    2262.0937   -2049.0576            0   -1899.9343    15948.584 
     280     2309.251   -2049.7917            0   -1897.5597    14754.994 
     290    2222.9618   -2047.2347            0   -1900.6911     14707.58 
     300    2150.8078   -2041.3575            0   -1899.5705    16172.518 
     310    2228.9047   -2040.8171            0   -1893.8817    17426.066 
     320    2376.2682   -2048.5423            0   -1891.8923    15802.606 
     330    2320.7227   -2042.4295            0   -1889.4413    16474.996 
     340    2310.4682    -2042.508            0   -1890.1957    16597.877 
     350    2466.8374   -2045.3922            0   -1882.7716    17771.513 
     360    2382.7707   -2044.9519            0   -1887.8733    16757.953 
     370    2318.9975   -2047.2097            0   -1894.3352    15267.698 
     380    2227.9435   -2038.9468            0   -1892.0748    15167.633 
     390     2241.238   -2035.6191            0   -1887.8707    16413.388 
     400    2298.3869   -2035.5143            0   -1883.9985    17573.361 
     410    2439.1094   -2041.2185            0   -1880.4259    17417.366 
     420    2438.0816   -2040.4181            0   -1879.6933    17000.799 
     430     2419.621   -2039.4524            0   -1879.9446    17277.841 
     440    2400.3962    -2036.392            0   -1878.1515    17353.749 
     450     2400.084   -2034.8541            0   -1876.6341    17301.395 
     460     2443.232   -2038.2591            0   -1877.1947    15880.125 
     470     2399.563   -2032.3026            0    -1874.117    14524.504 
     480    2379.1642   -2028.2813            0   -1871.4404    15080.571 
     490     2257.134   -2030.7105            0   -1881.9142    13267.538 
     500    2303.4365    -2033.254            0   -1881.4053    13303.626 
     510    2224.8834   -2029.9027            0   -1883.2324    15142.358 
     520    2259.6418   -2032.3898            0   -1883.4281    14426.825 
     530    2244.3528    -2036.563            0   -1888.6093    13611.835 
     540    2289.2186    -2033.577            0   -1882.6656    14593.524 
     550    2314.1805   -2030.4002            0   -1877.8432    16550.978 
     560    2434.1597   -2038.2171            0   -1877.7507    15320.174 
     570    2356.8023   -2033.9511            0   -1878.5843    15767.645 
     580    2448.0436   -2037.9988            0   -1876.6172    15958.914 
     590     2483.692   -2034.8435            0   -1871.1118    16533.816 
     600    2428.7684   -2032.2828            0   -1872.1719    17139.354 
     610    2369.1226   -2030.2599            0    -1874.081    15171.807 
     620    2351.8958   -2032.3817            0   -1877.3384    12759.907 
     630    2419.4363   -2037.1648            0   -1877.6691    12759.528 
     640    2306.8968   -2027.1601            0   -1875.0833    13699.543 
     650    2240.4669   -2023.1048            0   -1875.4073    14586.771 
     660    2303.5839   -2027.6735            0   -1875.8151    15077.465 
     670     2379.955   -2030.0505            0   -1873.1575     15633.06 
     680    2354.1404   -2030.6415            0   -1875.4502    16414.371 
     690    2427.7365   -2032.9922            0   -1872.9493    17097.223 
     700     2475.846    -2034.693            0   -1871.4786    18851.309 
     710    2456.3338   -2031.7442            0   -1869.8161    19487.645 
     720    2447.4768   -2037.4819            0   -1876.1377    17474.031 
     730    2435.1585   -2037.6942            0    -1877.162    16882.364 
     740    2391.3302   -2037.1798            0   -1879.5369    16071.534 
     750     2326.452   -2029.9922            0   -1876.6263    16117.229 
     760    2257.6714   -2022.4776            0   -1873.6458    17738.278 
     770    2371.2269   -2027.8008            0   -1871.4832    18100.791 
     780    2407.1838   -2030.3917            0   -1871.7037    17026.917 
     790    2367.9404   -2026.9448            0   -1870.8438    16038.578 
     800    2374.6123   -2033.0121            0   -1876.4713    14038.371 
     810    2424.6786   -2036.3506            0   -1876.5093    14206.078 
     820    2168.9017   -2026.7054            0   -1883.7256    16263.054 
     830    2323.0047   -2033.1056            0    -1879.967    17703.971 
     840    2498.7372    -2040.984            0   -1876.2606    17876.907 
     850    2460.7818   -2036.0467            0   -1873.8254    18545.104 
     860    2492.3205   -2034.6257            0   -1870.3253    19534.056 
     870    2575.2601   -2040.6532            0   -1870.8852     18719.18 
     880    2401.7961   -2030.4479            0   -1872.1151    17576.352 
     890    2386.7565   -2029.1495            0   -1871.8081     16681.21 
     900    2331.1129   -2028.8907            0   -1875.2175    14827.322 
     910    2414.7425   -2029.6198            0   -1870.4335    15192.331 
     920    2454.6751   -2027.6775            0   -1865.8587    15974.309 
     930    2428.2206   -2031.2363            0   -1871.1615    16206.415 
     940    2338.8519   -2027.1405            0   -1872.9572    15790.925 
     950    2342.8708   -2025.5463            0   -1871.0979    14662.456 
     960    2446.3658   -2027.9008            0   -1866.6298    16178.407 
     970    2479.8875   -2029.3424            0   -1865.8616     15827.32 
     980    2477.0203     -2028.29            0   -1864.9982    14789.439 
     990    2409.3478   -2024.9793            0   -1866.1486    14519.793 
    1000    2403.9699   -2022.9475            0   -1864.4714    15470.426 
Loop time of 2.32045 on 1 procs for 1000 steps with 511 atoms

Pair  time (%) = 2.23561 (96.3438)
Neigh time (%) = 0.0379391 (1.63499)
Comm  time (%) = 0.00937676 (0.404093)
Outpt time (%) = 0.00080061 (0.0345024)
Other time (%) = 0.0367236 (1.58261)

Nlocal:    511 ave 511 max 511 min
Histogram: 1 0 0 0 0 0 0 0 0 0
Nghost:    1021 ave 1021 max 1021 min
Histogram: 1 0 0 0 0 0 0 0 0 0
Neighs:    0 ave 0 max 0 min
Histogram: 1 0 0 0 0 0 0 0 0 0
FullNghs:  13046 ave 13046 max 13046 min
Histogram: 1 0 0 0 0 0 0 0 0 0

Total # of neighbors = 13046
Ave neighs/atom = 25.5303
Neighbor list builds = 56
Dangerous builds = 0

# Eliminate COM motion
velocity all zero linear

# only output atoms near vacancy

compute coord all coord/atom $r
compute coord all coord/atom 2.8349999999999999645

#dump events all custom 1 dump.prd id type x y z
#dump_modify events thresh c_coord != 4

compute  patom all pe/atom
compute  pe all reduce sum c_patom
compute  satom all stress/atom
compute  str all reduce sum c_satom[1] c_satom[2] c_satom[3]
variable press equal (c_str[1]+c_str[2]+c_str[3])/(3*vol)

thermo_style custom step temp pe c_pe press v_press

compute         event all event/displace 1.0

unfix 1
unfix 2
fix 		1 all nvt temp ${thi} ${thi} 0.1
fix 		1 all nvt temp 2400 ${thi} 0.1
fix 		1 all nvt temp 2400 2400 0.1

# tad nsteps nevent tlo thi delta_conf tmax compute
#     [min etol ftol niter neval]
#     [neb etol_neb ftol_neb n1steps n2steps nevery]
#     [min_style min_style]
#     [neb_style min_style]
#     [neb_log logfile]

tad 2000 50 ${tlo} ${thi} 0.05 1.0 event     min ${etol} ${ftol} ${maxiter} ${maxeval}     neb 0.0 0.01 200 200 20     min_style cg     neb_style fire     neb_log log.neb
tad 2000 50 1800 ${thi} 0.05 1.0 event     min ${etol} ${ftol} ${maxiter} ${maxeval}     neb 0.0 0.01 200 200 20     min_style cg     neb_style fire     neb_log log.neb
tad 2000 50 1800 2400 0.05 1.0 event     min ${etol} ${ftol} ${maxiter} ${maxeval}     neb 0.0 0.01 200 200 20     min_style cg     neb_style fire     neb_log log.neb
tad 2000 50 1800 2400 0.05 1.0 event     min 1.0000000000000000818e-05 ${ftol} ${maxiter} ${maxeval}     neb 0.0 0.01 200 200 20     min_style cg     neb_style fire     neb_log log.neb
tad 2000 50 1800 2400 0.05 1.0 event     min 1.0000000000000000818e-05 1.0000000000000000818e-05 ${maxiter} ${maxeval}     neb 0.0 0.01 200 200 20     min_style cg     neb_style fire     neb_log log.neb
tad 2000 50 1800 2400 0.05 1.0 event     min 1.0000000000000000818e-05 1.0000000000000000818e-05 100 ${maxeval}     neb 0.0 0.01 200 200 20     min_style cg     neb_style fire     neb_log log.neb
tad 2000 50 1800 2400 0.05 1.0 event     min 1.0000000000000000818e-05 1.0000000000000000818e-05 100 100     neb 0.0 0.01 200 200 20     min_style cg     neb_style fire     neb_log log.neb
Memory usage per processor = 4.43506 Mbytes
Step Temp PotEng pe Press press 
    1000     2402.628   -2022.9475   -2022.9475     15461.21    -15461.21 
    1010     2402.628   -2209.0552   -2209.0552     13124.77    -13124.77 
    1020     2402.628   -2213.2419   -2213.2419    13109.348   -13109.348 
    1022     2402.628   -2213.2803   -2213.2803    13111.643   -13111.643 
Loop time of 0.05654 on 1 procs for 22 steps with 511 atoms

Minimization stats:
  Stopping criterion = energy tolerance
  Energy initial, next-to-last, final = 
        -2022.94753371     -2213.26863148     -2213.28029768
  Force two-norm initial, final = 70.3784 0.377272
  Force max component initial, final = 5.75308 0.037084
  Final line search alpha, max atom move = 0.0625 0.00231775
  Iterations, force evaluations = 22 50

Pair  time (%) = 2.28957 (4049.46)
Neigh time (%) = 0.0392489 (69.418)
Comm  time (%) = 0.00982738 (17.3813)
Outpt time (%) = 0.000933647 (1.6513)
Other time (%) = -2.28304 (-4037.91)

Nlocal:    511 ave 511 max 511 min
Histogram: 1 0 0 0 0 0 0 0 0 0
Nghost:    1017 ave 1017 max 1017 min
Histogram: 1 0 0 0 0 0 0 0 0 0
Neighs:    0 ave 0 max 0 min
Histogram: 1 0 0 0 0 0 0 0 0 0
FullNghs:  14256 ave 14256 max 14256 min
Histogram: 1 0 0 0 0 0 0 0 0 0

Total # of neighbors = 14256
Ave neighs/atom = 27.8982
Neighbor list builds = 2
Dangerous builds = 0
Memory usage per processor = 4.28247 Mbytes
Step Temp PotEng pe Press press 
    1000     2402.628   -2022.9475   -2022.9475     15461.21    -15461.21 
Memory usage per processor = 4.28247 Mbytes
Step Temp PotEng pe Press press 
    1150            0   -2208.1718   -2208.1718   -3227.0211    3227.0211 
    1160 1.1733253e-07   -2208.1719   -2208.1719   -3227.0379    3227.0379 
    1170 1.2862776e-06   -2208.1726   -2208.1726   -3227.2138    3227.2138 
    1180 6.2760279e-06   -2208.1756   -2208.1756   -3227.9792    3227.9792 
    1190 3.3601038e-05   -2208.1922   -2208.1922   -3232.1574    3232.1574 
    1200 0.00013019566   -2208.2515   -2208.2515   -3247.1018    3247.1018 
    1210 0.00057570453   -2208.5222   -2208.5222   -3316.5011    3316.5011 
    1220 0.0016320654   -2209.1721   -2209.1721   -3492.6305    3492.6305 
    1230 0.0027148483   -2210.2729   -2210.2729   -3760.8155    3760.8155 
    1240 0.0024756439   -2211.5384   -2211.5384   -3542.7558    3542.7558 
    1250 0.0041839228   -2212.4358   -2212.4358   -3309.7579    3309.7579 
    1260 0.00019350505   -2209.2944   -2209.2944   -3498.3492    3498.3492 
    1270 0.0005266455    -2210.565    -2210.565   -3701.4099    3701.4099 
    1280 0.0013037694   -2211.6611   -2211.6611   -3514.6377    3514.6377 
    1290 0.00014758664   -2212.7112   -2212.7112   -3419.5491    3419.5491 
    1300 0.00056144907   -2213.0208   -2213.0208   -3366.2897    3366.2897 
    1310 1.2576152e-06   -2213.2324   -2213.2324   -3376.2886    3376.2886 
    1320 8.0337785e-05   -2213.2583   -2213.2583   -3398.8974    3398.8974 
    1330 7.8785645e-07   -2213.2969   -2213.2969   -3380.1374    3380.1374 
    1340 5.5694247e-06   -2213.2975   -2213.2975   -3385.1786    3385.1786 
    1350 6.9876434e-05   -2213.2909   -2213.2909   -3384.8581    3384.8581 
Loop time of 0.203291 on 1 procs for 200 steps with 511 atoms

Minimization stats:
  Stopping criterion = max iterations
  Energy initial, next-to-last, final = 
        -2208.17179808     -2213.29319585     -2213.29085797
  Force two-norm initial, final = 11.6554 0.335826
  Force max component initial, final = 6.62337 0.0362959
  Final line search alpha, max atom move = 0 0
  Iterations, force evaluations = 200 200

Pair  time (%) = 0.182448 (89.7474)
Neigh time (%) = 0.00127506 (0.627211)
Comm  time (%) = 0.00163937 (0.806414)
Outpt time (%) = 0.00131607 (0.647383)
Other time (%) = 0.0166121 (8.17157)

Nlocal:    511 ave 511 max 511 min
Histogram: 1 0 0 0 0 0 0 0 0 0
Nghost:    1017 ave 1017 max 1017 min
Histogram: 1 0 0 0 0 0 0 0 0 0
Neighs:    0 ave 0 max 0 min
Histogram: 1 0 0 0 0 0 0 0 0 0
FullNghs:  14258 ave 14258 max 14258 min
Histogram: 1 0 0 0 0 0 0 0 0 0

Total # of neighbors = 14258
Ave neighs/atom = 27.9022
Neighbor list builds = 2
Dangerous builds = 0
Memory usage per processor = 4.28247 Mbytes
Step Temp PotEng pe Press press 
    1350            0   -2213.2909   -2213.2909   -3384.8586    3384.8586 
    1360 9.740913e-11   -2213.2909   -2213.2909   -3384.8586    3384.8586 
    1370 1.0680847e-09   -2213.2909   -2213.2909   -3384.8586    3384.8586 
    1380 5.2164951e-09   -2213.2909   -2213.2909   -3384.8585    3384.8585 
    1390 2.8072894e-08   -2213.2909   -2213.2909   -3384.8579    3384.8579 
    1400 1.1094315e-07   -2213.2908   -2213.2908   -3384.8557    3384.8557 
    1410 5.3869668e-07   -2213.2907   -2213.2907   -3384.8451    3384.8451 
    1420 2.0968729e-06   -2213.2904   -2213.2904   -3384.8124    3384.8124 
    1430 9.9189874e-06   -2213.2886   -2213.2886   -3384.7473    3384.7473 
    1440 3.162191e-05   -2213.2813   -2213.2813   -3385.2135    3385.2135 
    1450 8.1692841e-05   -2213.2346   -2213.2346   -3388.5611    3388.5611 
    1460 5.5542794e-09   -2213.2194   -2213.2194   -3390.1489    3390.1489 
    1470 3.2030586e-07    -2213.222    -2213.222   -3389.9284    3389.9284 
    1480 8.5704734e-07   -2213.2313   -2213.2313   -3389.5386    3389.5386 
    1490 2.3162399e-10   -2213.2352   -2213.2352   -3389.2452    3389.2452 
    1500 4.2370897e-08   -2213.2356   -2213.2356   -3389.2006    3389.2006 
    1510 1.7640748e-07   -2213.2388   -2213.2388   -3388.9272    3388.9272 
Loop time of 0.160341 on 1 procs for 160 steps with 511 atoms

Minimization stats:
  Stopping criterion = force tolerance
  Energy initial, next-to-last, final = 
        -2213.29085797     -2213.23820957     -2213.23875112
  Force two-norm initial, final = 0.335826 0.00809973
  Force max component initial, final = 0.0362959 0.000736646
  Final line search alpha, max atom move = 0 0
  Iterations, force evaluations = 160 160

Pair  time (%) = 0.140505 (87.6286)
Neigh time (%) = 0 (0)
Comm  time (%) = 0.00129938 (0.810386)
Outpt time (%) = 0.000983715 (0.613514)
Other time (%) = 0.0175533 (10.9475)

Nlocal:    511 ave 511 max 511 min
Histogram: 1 0 0 0 0 0 0 0 0 0
Nghost:    1017 ave 1017 max 1017 min
Histogram: 1 0 0 0 0 0 0 0 0 0
Neighs:    0 ave 0 max 0 min
Histogram: 1 0 0 0 0 0 0 0 0 0
FullNghs:  14256 ave 14256 max 14256 min
Histogram: 1 0 0 0 0 0 0 0 0 0

Total # of neighbors = 14256
Ave neighs/atom = 27.8982
Neighbor list builds = 0
Dangerous builds = 0
Memory usage per processor = 4.28247 Mbytes
Step Temp PotEng pe Press press 
    1550            0   -2212.7878   -2212.7878   -3603.9978    3603.9978 
    1560 8.5937597e-10   -2212.7878   -2212.7878   -3603.9976    3603.9976 
    1570 9.4221974e-09   -2212.7878   -2212.7878   -3603.9952    3603.9952 
    1580 4.5997797e-08   -2212.7878   -2212.7878   -3603.9849    3603.9849 
    1590 2.4700006e-07   -2212.7879   -2212.7879   -3603.9283    3603.9283 
    1600 9.6740827e-07   -2212.7884   -2212.7884   -3603.7217    3603.7217 
    1610 4.5086458e-06   -2212.7905   -2212.7905   -3602.6662    3602.6662 
    1620 1.4938245e-05    -2212.797    -2212.797     -3598.91      3598.91 
    1630 3.368484e-05   -2212.8116   -2212.8116   -3581.0284    3581.0284 
    1640 2.2812554e-05    -2212.819    -2212.819   -3561.2473    3561.2473 
    1650 1.6694571e-05   -2212.8229   -2212.8229   -3537.3927    3537.3927 
    1660 1.178121e-05   -2212.8229   -2212.8229   -3524.9391    3524.9391 
    1670 6.2482459e-07   -2212.8265   -2212.8265   -3531.1619    3531.1619 
    1680 1.0890234e-06    -2212.827    -2212.827    -3534.188     3534.188 
    1690 3.986313e-08   -2212.8271   -2212.8271   -3540.0966    3540.0966 
    1700 3.6991708e-08   -2212.8272   -2212.8272   -3540.5581    3540.5581 
    1710 1.0460742e-07   -2212.8273   -2212.8273   -3539.2859    3539.2859 
    1716 9.1985495e-09   -2212.8273   -2212.8273   -3538.6767    3538.6767 
Loop time of 0.166743 on 1 procs for 166 steps with 511 atoms

Minimization stats:
  Stopping criterion = force tolerance
  Energy initial, next-to-last, final = 
        -2212.78775693     -2212.82728644       -2212.827288
  Force two-norm initial, final = 0.997487 0.00937149
  Force max component initial, final = 0.231841 0.00102351
  Final line search alpha, max atom move = 0 0
  Iterations, force evaluations = 166 166

Pair  time (%) = 0.152166 (91.2576)
Neigh time (%) = 0 (0)
Comm  time (%) = 0.0013783 (0.8266)
Outpt time (%) = 0.00105739 (0.634141)
Other time (%) = 0.0121417 (7.28169)

Nlocal:    511 ave 511 max 511 min
Histogram: 1 0 0 0 0 0 0 0 0 0
Nghost:    1017 ave 1017 max 1017 min
Histogram: 1 0 0 0 0 0 0 0 0 0
Neighs:    0 ave 0 max 0 min
Histogram: 1 0 0 0 0 0 0 0 0 0
FullNghs:  14248 ave 14248 max 14248 min
Histogram: 1 0 0 0 0 0 0 0 0 0

Total # of neighbors = 14248
Ave neighs/atom = 27.8826
Neighbor list builds = 0
Dangerous builds = 0
Memory usage per processor = 4.28247 Mbytes
Step Temp PotEng pe Press press 
    1716            0   -2212.8273   -2212.8273   -3538.6767    3538.6767 
    1717 6.1538879e-16   -2212.8273   -2212.8273   -3538.6767    3538.6767 
Loop time of 0.00216007 on 1 procs for 1 steps with 511 atoms

Minimization stats:
  Stopping criterion = force tolerance
  Energy initial, next-to-last, final = 
          -2212.827288       -2212.827288       -2212.827288
  Force two-norm initial, final = 0.00937371 0.00937371
  Force max component initial, final = 0.00102355 0.00102355
  Final line search alpha, max atom move = 0 0
  Iterations, force evaluations = 1 1

Pair  time (%) = 0.00194597 (90.0883)
Neigh time (%) = 0 (0)
Comm  time (%) = 1.5974e-05 (0.739514)
Outpt time (%) = 0 (0)
Other time (%) = 0.000198126 (9.17219)

Nlocal:    511 ave 511 max 511 min
Histogram: 1 0 0 0 0 0 0 0 0 0
Nghost:    1017 ave 1017 max 1017 min
Histogram: 1 0 0 0 0 0 0 0 0 0
Neighs:    0 ave 0 max 0 min
Histogram: 1 0 0 0 0 0 0 0 0 0
FullNghs:  14250 ave 14250 max 14250 min
Histogram: 1 0 0 0 0 0 0 0 0 0

Total # of neighbors = 14250
Ave neighs/atom = 27.8865
Neighbor list builds = 0
Dangerous builds = 0
Memory usage per processor = 4.28247 Mbytes
Step Temp PotEng pe Press press 
    1950            0   -2209.3761   -2209.3761   -3142.2135    3142.2135 
    1960 8.0693615e-08   -2209.3762   -2209.3762   -3142.2256    3142.2256 
    1970 8.8464021e-07   -2209.3766   -2209.3766   -3142.3526    3142.3526 
    1980 4.3168586e-06   -2209.3787   -2209.3787   -3142.9055    3142.9055 
    1990 2.3126608e-05   -2209.3902   -2209.3902   -3145.9262    3145.9262 
    2000 8.9819028e-05   -2209.4311   -2209.4311   -3156.7676    3156.7676 
    2010 0.00040151573   -2209.6209   -2209.6209   -3207.9128    3207.9128 
    2020 0.0011726103    -2210.098    -2210.098   -3344.7411    3344.7411 
    2030 0.0019560621   -2210.9298   -2210.9298   -3581.0137    3581.0137 
    2040 0.00078571943   -2211.5357   -2211.5357   -3446.0011    3446.0011 
    2050 6.3506492e-06   -2212.4197   -2212.4197     -3498.58      3498.58 
    2060 0.00024646572   -2212.3642   -2212.3642   -3493.4062    3493.4062 
    2070 7.9785049e-05   -2212.1449   -2212.1449   -3500.0533    3500.0533 
    2080 0.00014139966   -2211.6501   -2211.6501   -3498.8228    3498.8228 
    2090 8.8179033e-06   -2211.6034   -2211.6034   -3481.3701    3481.3701 
    2100 5.8560005e-07   -2211.4398   -2211.4398   -3463.5113    3463.5113 
    2110 5.9613318e-07   -2211.4379   -2211.4379   -3482.3939    3482.3939 
    2120 1.3118683e-06   -2211.4286   -2211.4286   -3475.6555    3475.6555 
    2130 2.1594801e-06   -2211.3815   -2211.3815   -3472.4272    3472.4272 
    2140 1.1837736e-07    -2211.358    -2211.358   -3476.0878    3476.0878 
    2150 6.016045e-08   -2211.3398   -2211.3398   -3473.3638    3473.3638 
Loop time of 0.203043 on 1 procs for 200 steps with 511 atoms

Minimization stats:
  Stopping criterion = max iterations
  Energy initial, next-to-last, final = 
        -2209.37612147     -2211.33982433     -2211.33982433
  Force two-norm initial, final = 9.66579 0.127962
  Force max component initial, final = 5.33469 0.0713942
  Final line search alpha, max atom move = 0 0
  Iterations, force evaluations = 200 200

Pair  time (%) = 0.183336 (90.2941)
Neigh time (%) = 0 (0)
Comm  time (%) = 0.00160146 (0.788728)
Outpt time (%) = 0.00134349 (0.661677)
Other time (%) = 0.0167623 (8.25552)

Nlocal:    511 ave 511 max 511 min
Histogram: 1 0 0 0 0 0 0 0 0 0
Nghost:    1017 ave 1017 max 1017 min
Histogram: 1 0 0 0 0 0 0 0 0 0
Neighs:    0 ave 0 max 0 min
Histogram: 1 0 0 0 0 0 0 0 0 0
FullNghs:  14232 ave 14232 max 14232 min
Histogram: 1 0 0 0 0 0 0 0 0 0

Total # of neighbors = 14232
Ave neighs/atom = 27.8513
Neighbor list builds = 0
Dangerous builds = 0
Memory usage per processor = 4.28247 Mbytes
Step Temp PotEng pe Press press 
    2150            0   -2211.3398   -2211.3398   -3473.3638    3473.3638 
    2160 1.4142515e-11   -2211.3398   -2211.3398   -3473.3639    3473.3639 
    2170 1.5504963e-10   -2211.3398   -2211.3398   -3473.3647    3473.3647 
    2180 7.5673771e-10   -2211.3398   -2211.3398   -3473.3681    3473.3681 
    2190 4.0578306e-09   -2211.3398   -2211.3398   -3473.3868    3473.3868 
    2200 1.5811818e-08   -2211.3398   -2211.3398   -3473.4548    3473.4548 
    2210 7.174816e-08   -2211.3398   -2211.3398    -3473.794     3473.794 
    2220 2.1504708e-07   -2211.3396   -2211.3396   -3474.8973    3474.8973 
    2230 1.4681933e-07   -2211.3381   -2211.3381   -3477.9351    3477.9351 
    2240 1.5319066e-07   -2211.3341   -2211.3341   -3475.7509    3475.7509 
    2250 3.8051471e-07   -2211.3205   -2211.3205   -3476.1759    3476.1759 
    2260 3.1536309e-09   -2211.3176   -2211.3176   -3476.7038    3476.7038 
    2263 7.436273e-09   -2211.3174   -2211.3174   -3476.4686    3476.4686 
Loop time of 0.116555 on 1 procs for 113 steps with 511 atoms

Minimization stats:
  Stopping criterion = force tolerance
  Energy initial, next-to-last, final = 
        -2211.33982433     -2211.31748495     -2211.31741581
  Force two-norm initial, final = 0.127962 0.00946178
  Force max component initial, final = 0.0713942 0.00261171
  Final line search alpha, max atom move = 0 0
  Iterations, force evaluations = 113 113

Pair  time (%) = 0.105618 (90.6167)
Neigh time (%) = 0 (0)
Comm  time (%) = 0.000988245 (0.847879)
Outpt time (%) = 0.000732183 (0.628187)
Other time (%) = 0.00921631 (7.90726)

Nlocal:    511 ave 511 max 511 min
Histogram: 1 0 0 0 0 0 0 0 0 0
Nghost:    1017 ave 1017 max 1017 min
Histogram: 1 0 0 0 0 0 0 0 0 0
Neighs:    0 ave 0 max 0 min
Histogram: 1 0 0 0 0 0 0 0 0 0
FullNghs:  14240 ave 14240 max 14240 min
Histogram: 1 0 0 0 0 0 0 0 0 0

Total # of neighbors = 14240
Ave neighs/atom = 27.8669
Neighbor list builds = 0
Dangerous builds = 0
Memory usage per processor = 4.28247 Mbytes
Step Temp PotEng pe Press press 
    2350            0   -2212.7804   -2212.7804   -3607.4239    3607.4239 
    2360 9.4000454e-10   -2212.7804   -2212.7804   -3607.4237    3607.4237 
    2370 1.0306238e-08   -2212.7804   -2212.7804   -3607.4212    3607.4212 
    2380 5.031458e-08   -2212.7804   -2212.7804   -3607.4106    3607.4106 
    2390 2.7020258e-07   -2212.7805   -2212.7805    -3607.352     3607.352 
    2400 1.058764e-06    -2212.781    -2212.781   -3607.1382    3607.1382 
    2410 4.9426779e-06   -2212.7834   -2212.7834   -3606.0444    3606.0444 
    2420 1.654706e-05   -2212.7905   -2212.7905   -3602.1273    3602.1273 
    2430 3.9147993e-05   -2212.8065   -2212.8065   -3582.9604    3582.9604 
    2440 2.599912e-05   -2212.8147   -2212.8147   -3562.2477    3562.2477 
    2450 1.9911897e-05   -2212.8202   -2212.8202   -3539.4891    3539.4891 
    2460 1.0451866e-05    -2212.825    -2212.825   -3537.3626    3537.3626 
    2470 1.2480977e-06   -2212.8265   -2212.8265   -3534.4046    3534.4046 
    2480 1.3635312e-06   -2212.8269   -2212.8269   -3537.8031    3537.8031 
    2490 2.854552e-07    -2212.827    -2212.827   -3538.2063    3538.2063 
    2500 4.1826301e-08    -2212.827    -2212.827   -3538.3754    3538.3754 
    2510 2.2559061e-07   -2212.8271   -2212.8271   -3539.1749    3539.1749 
    2520 3.613106e-07   -2212.8272   -2212.8272   -3540.6302    3540.6302 
    2527 2.7240166e-08   -2212.8273   -2212.8273   -3540.3483    3540.3483 
Loop time of 0.178356 on 1 procs for 177 steps with 511 atoms

Minimization stats:
  Stopping criterion = force tolerance
  Energy initial, next-to-last, final = 
        -2212.78036278     -2212.82727357     -2212.82727535
  Force two-norm initial, final = 1.04323 0.00967124
  Force max component initial, final = 0.23682 0.00197849
  Final line search alpha, max atom move = 0 0
  Iterations, force evaluations = 177 177

Pair  time (%) = 0.163089 (91.4403)
Neigh time (%) = 0 (0)
Comm  time (%) = 0.00141358 (0.792563)
Outpt time (%) = 0.00113106 (0.634158)
Other time (%) = 0.012722 (7.13294)

Nlocal:    511 ave 511 max 511 min
Histogram: 1 0 0 0 0 0 0 0 0 0
Nghost:    1017 ave 1017 max 1017 min
Histogram: 1 0 0 0 0 0 0 0 0 0
Neighs:    0 ave 0 max 0 min
Histogram: 1 0 0 0 0 0 0 0 0 0
FullNghs:  14248 ave 14248 max 14248 min
Histogram: 1 0 0 0 0 0 0 0 0 0

Total # of neighbors = 14248
Ave neighs/atom = 27.8826
Neighbor list builds = 0
Dangerous builds = 0
Memory usage per processor = 4.28247 Mbytes
Step Temp PotEng pe Press press 
    2527            0   -2212.8273   -2212.8273   -3540.3483    3540.3483 
    2530 6.5117747e-15   -2212.8273   -2212.8273   -3540.3483    3540.3483 
    2540 1.9545235e-13   -2212.8273   -2212.8273   -3540.3483    3540.3483 
    2550 1.6784108e-12   -2212.8273   -2212.8273   -3540.3483    3540.3483 
    2560 7.7534117e-12   -2212.8273   -2212.8273   -3540.3482    3540.3482 
    2570 4.0273262e-11   -2212.8273   -2212.8273   -3540.3478    3540.3478 
    2580 1.5728048e-10   -2212.8273   -2212.8273   -3540.3465    3540.3465 
    2584 2.9457297e-10   -2212.8273   -2212.8273   -3540.3449    3540.3449 
Loop time of 0.0581429 on 1 procs for 57 steps with 511 atoms

Minimization stats:
  Stopping criterion = force tolerance
  Energy initial, next-to-last, final = 
        -2212.82727535     -2212.82727544     -2212.82727546
  Force two-norm initial, final = 0.010164 0.00999439
  Force max component initial, final = 0.00221896 0.00221473
  Final line search alpha, max atom move = 0 0
  Iterations, force evaluations = 57 57

Pair  time (%) = 0.0530813 (91.2945)
Neigh time (%) = 0 (0)
Comm  time (%) = 0.000464678 (0.7992)
Outpt time (%) = 0.000439882 (0.756554)
Other time (%) = 0.00415707 (7.14974)

Nlocal:    511 ave 511 max 511 min
Histogram: 1 0 0 0 0 0 0 0 0 0
Nghost:    1017 ave 1017 max 1017 min
Histogram: 1 0 0 0 0 0 0 0 0 0
Neighs:    0 ave 0 max 0 min
Histogram: 1 0 0 0 0 0 0 0 0 0
FullNghs:  14250 ave 14250 max 14250 min
Histogram: 1 0 0 0 0 0 0 0 0 0

Total # of neighbors = 14250
Ave neighs/atom = 27.8865
Neighbor list builds = 0
Dangerous builds = 0
Memory usage per processor = 4.28247 Mbytes
Step Temp PotEng pe Press press 
    2800            0   -2208.8483   -2208.8483   -3052.5382    3052.5382 
    2810 1.0526723e-07   -2208.8484   -2208.8484    -3052.554     3052.554 
    2820 1.1540113e-06    -2208.849    -2208.849    -3052.719     3052.719 
    2830 5.6307037e-06   -2208.8517   -2208.8517   -3053.4377    3053.4377 
    2840 3.0146991e-05   -2208.8667   -2208.8667   -3057.3621    3057.3621 
    2850 0.00011682313   -2208.9199   -2208.9199    -3071.417     3071.417 
    2860 0.00051666017    -2209.163    -2209.163   -3137.0904    3137.0904 
    2870 0.0014589928   -2209.7452   -2209.7452   -3307.7773    3307.7773 
    2880 0.0021638981   -2210.6474   -2210.6474   -3593.9277    3593.9277 
    2890 0.00083599037   -2211.2809   -2211.2809   -3429.1378    3429.1378 
    2900  0.001071445   -2212.3606   -2212.3606   -3459.5023    3459.5023 
    2910 2.2055098e-05   -2212.4862   -2212.4862    -3480.818     3480.818 
    2920 0.00015499474   -2212.3629   -2212.3629   -3474.9632    3474.9632 
    2930 0.00024444951   -2211.5607   -2211.5607   -3445.2075    3445.2075 
    2940 1.2317244e-06   -2211.2116   -2211.2116   -3459.6284    3459.6284 
    2950 1.0919294e-05   -2211.2288   -2211.2288   -3486.2261    3486.2261 
    2960 1.6502675e-06   -2211.2494   -2211.2494    -3474.589     3474.589 
    2970 1.6690579e-07   -2211.2514   -2211.2514   -3477.3058    3477.3058 
    2980 4.4074837e-07   -2211.2592   -2211.2592   -3475.0467    3475.0467 
    2990 1.5269423e-06    -2211.284    -2211.284   -3473.9852    3473.9852 
    3000 8.0527694e-09   -2211.2972   -2211.2972   -3477.6674    3477.6674 
Loop time of 0.201283 on 1 procs for 200 steps with 511 atoms

Minimization stats:
  Stopping criterion = max iterations
  Energy initial, next-to-last, final = 
        -2208.84830981     -2211.29722847     -2211.29722847
  Force two-norm initial, final = 11.0399 0.0851206
  Force max component initial, final = 6.46908 0.0426169
  Final line search alpha, max atom move = 0 0
  Iterations, force evaluations = 200 200

Pair  time (%) = 0.179863 (89.3585)
Neigh time (%) = 0 (0)
Comm  time (%) = 0.00162697 (0.808299)
Outpt time (%) = 0.00133133 (0.661422)
Other time (%) = 0.0184612 (9.17178)

Nlocal:    511 ave 511 max 511 min
Histogram: 1 0 0 0 0 0 0 0 0 0
Nghost:    1017 ave 1017 max 1017 min
Histogram: 1 0 0 0 0 0 0 0 0 0
Neighs:    0 ave 0 max 0 min
Histogram: 1 0 0 0 0 0 0 0 0 0
FullNghs:  14232 ave 14232 max 14232 min
Histogram: 1 0 0 0 0 0 0 0 0 0

Total # of neighbors = 14232
Ave neighs/atom = 27.8513
Neighbor list builds = 0
Dangerous builds = 0
Memory usage per processor = 4.28247 Mbytes
Step Temp PotEng pe Press press 
    3000            0   -2211.2972   -2211.2972   -3477.6674    3477.6674 
    3010 6.2579993e-12   -2211.2972   -2211.2972   -3477.6674    3477.6674 
    3020 6.860886e-11   -2211.2972   -2211.2972   -3477.6668    3477.6668 
    3030 3.348551e-10   -2211.2972   -2211.2972   -3477.6645    3477.6645 
    3040  1.79564e-09   -2211.2972   -2211.2972   -3477.6519    3477.6519 
    3050 6.9975603e-09   -2211.2972   -2211.2972   -3477.6058    3477.6058 
    3060 3.1771832e-08   -2211.2972   -2211.2972   -3477.3753    3477.3753 
    3070 9.5376116e-08   -2211.2969   -2211.2969   -3476.6213    3476.6213 
    3080 9.2928516e-08   -2211.2953   -2211.2953   -3474.4887    3474.4887 
    3090 1.4617599e-07   -2211.2912   -2211.2912   -3476.0725    3476.0725 
    3100 2.7727432e-07   -2211.2813   -2211.2813   -3476.6436    3476.6436 
    3105 3.4708892e-08   -2211.2815   -2211.2815   -3475.5206    3475.5206 
Loop time of 0.106131 on 1 procs for 105 steps with 511 atoms

Minimization stats:
  Stopping criterion = force tolerance
  Energy initial, next-to-last, final = 
        -2211.29722847     -2211.28141339     -2211.28152071
  Force two-norm initial, final = 0.0851206 0.00924307
  Force max component initial, final = 0.0426169 0.00347619
  Final line search alpha, max atom move = 0 0
  Iterations, force evaluations = 105 105

Pair  time (%) = 0.0956087 (90.0855)
Neigh time (%) = 0 (0)
Comm  time (%) = 0.000867367 (0.81726)
Outpt time (%) = 0.000653505 (0.615753)
Other time (%) = 0.00900149 (8.48149)

Nlocal:    511 ave 511 max 511 min
Histogram: 1 0 0 0 0 0 0 0 0 0
Nghost:    1017 ave 1017 max 1017 min
Histogram: 1 0 0 0 0 0 0 0 0 0
Neighs:    0 ave 0 max 0 min
Histogram: 1 0 0 0 0 0 0 0 0 0
FullNghs:  14240 ave 14240 max 14240 min
Histogram: 1 0 0 0 0 0 0 0 0 0

Total # of neighbors = 14240
Ave neighs/atom = 27.8669
Neighbor list builds = 0
Dangerous builds = 0
Memory usage per processor = 4.28247 Mbytes
Step Temp PotEng pe Press press 
    1600            0   -2213.2863   -2213.2863   -3390.9484    3390.9484 
    1610 1.0802774e-10   -2213.2863   -2213.2863   -3390.9484    3390.9484 
    1620 1.1844524e-09   -2213.2863   -2213.2863    -3390.948     3390.948 
    1630 5.7831676e-09   -2213.2863   -2213.2863   -3390.9462    3390.9462 
    1640 3.1078516e-08   -2213.2863   -2213.2863   -3390.9364    3390.9364 
    1650 1.2208808e-07   -2213.2863   -2213.2863   -3390.9009    3390.9009 
    1660 5.7742399e-07   -2213.2866   -2213.2866   -3390.7223    3390.7223 
    1670 2.0298286e-06   -2213.2875   -2213.2875   -3390.1249    3390.1249 
    1680 6.8071172e-06   -2213.2906   -2213.2906   -3387.8788    3387.8788 
    1690 1.1261376e-05   -2213.2959   -2213.2959   -3387.3281    3387.3281 
    1700 4.6856155e-05   -2213.3154   -2213.3154   -3385.2442    3385.2442 
    1710 9.4116868e-07   -2213.3347   -2213.3347   -3383.6652    3383.6652 
    1720 4.4255215e-07   -2213.3354   -2213.3354   -3383.3107    3383.3107 
    1730 1.6727692e-06   -2213.3364   -2213.3364   -3383.0534    3383.0534 
    1740 7.8758207e-08    -2213.337    -2213.337   -3383.4068    3383.4068 
    1750 2.4727639e-08    -2213.337    -2213.337   -3383.3204    3383.3204 
    1760 1.7823084e-07   -2213.3371   -2213.3371   -3383.2652    3383.2652 
    1770 3.6028417e-09   -2213.3373   -2213.3373   -3383.2802    3383.2802 
    1772 1.1996531e-08   -2213.3373   -2213.3373   -3383.3726    3383.3726 
Loop time of 0.169733 on 1 procs for 172 steps with 511 atoms

Minimization stats:
  Stopping criterion = force tolerance
  Energy initial, next-to-last, final = 
        -2213.28625932     -2213.33727477     -2213.33727692
  Force two-norm initial, final = 0.353657 0.00966774
  Force max component initial, final = 0.0444147 0.000878499
  Final line search alpha, max atom move = 0 0
  Iterations, force evaluations = 172 172

Pair  time (%) = 0.154494 (91.0218)
Neigh time (%) = 0 (0)
Comm  time (%) = 0.00152445 (0.898145)
Outpt time (%) = 0.00113177 (0.666796)
Other time (%) = 0.0125828 (7.41328)

Nlocal:    511 ave 511 max 511 min
Histogram: 1 0 0 0 0 0 0 0 0 0
Nghost:    1017 ave 1017 max 1017 min
Histogram: 1 0 0 0 0 0 0 0 0 0
Neighs:    0 ave 0 max 0 min
Histogram: 1 0 0 0 0 0 0 0 0 0
FullNghs:  14256 ave 14256 max 14256 min
Histogram: 1 0 0 0 0 0 0 0 0 0

Total # of neighbors = 14256
Ave neighs/atom = 27.8982
Neighbor list builds = 0
Dangerous builds = 0
Memory usage per processor = 4.28247 Mbytes
Step Temp PotEng pe Press press 
    1772            0   -2213.3373   -2213.3373   -3383.3726    3383.3726 
    1780 8.6804618e-14   -2213.3373   -2213.3373   -3383.3726    3383.3726 
    1790 1.0956051e-12   -2213.3373   -2213.3373   -3383.3726    3383.3726 
    1800 6.0870408e-12   -2213.3373   -2213.3373   -3383.3726    3383.3726 
    1810 3.1462249e-11   -2213.3373   -2213.3373   -3383.3728    3383.3728 
    1820 1.3333439e-10   -2213.3373   -2213.3373   -3383.3734    3383.3734 
    1830 6.099352e-10   -2213.3373   -2213.3373   -3383.3761    3383.3761 
    1840 2.4806328e-09   -2213.3373   -2213.3373   -3383.3861    3383.3861 
    1850 1.1116394e-08   -2213.3373   -2213.3373   -3383.4177    3383.4177 
    1860 4.1573962e-08   -2213.3373   -2213.3373   -3383.4205    3383.4205 
    1870 1.8625256e-07   -2213.3372   -2213.3372   -3383.4593    3383.4593 
    1880 2.2607602e-08    -2213.337    -2213.337   -3383.6172    3383.6172 
    1890 2.3074993e-08    -2213.337    -2213.337   -3383.4198    3383.4198 
    1900 1.289123e-07    -2213.337    -2213.337    -3383.454     3383.454 
    1910 4.5748033e-07   -2213.3367   -2213.3367   -3383.4698    3383.4698 
    1920 3.7205062e-08   -2213.3366   -2213.3366   -3383.3878    3383.3878 
    1930 3.8853705e-07   -2213.3365   -2213.3365   -3383.4125    3383.4125 
    1940 1.9762349e-06   -2213.3354   -2213.3354     -3383.41      3383.41 
    1950 8.9280957e-08    -2213.334    -2213.334   -3383.2822    3383.2822 
    1960 9.879092e-07   -2213.3342   -2213.3342   -3384.1504    3384.1504 
    1970 2.5612794e-07   -2213.3337   -2213.3337   -3383.5982    3383.5982 
    1972 6.0480979e-07   -2213.3338   -2213.3338   -3383.7063    3383.7063 
Loop time of 0.196566 on 1 procs for 200 steps with 511 atoms

Minimization stats:
  Stopping criterion = max iterations
  Energy initial, next-to-last, final = 
        -2213.33727692     -2213.33375964     -2213.33376945
  Force two-norm initial, final = 0.013397 0.0794832
  Force max component initial, final = 0.00108968 0.0061053
  Final line search alpha, max atom move = 0 0
  Iterations, force evaluations = 200 200

Pair  time (%) = 0.177464 (90.2819)
Neigh time (%) = 0 (0)
Comm  time (%) = 0.00160575 (0.8169)
Outpt time (%) = 0.00138855 (0.706403)
Other time (%) = 0.0161083 (8.19484)

Nlocal:    511 ave 511 max 511 min
Histogram: 1 0 0 0 0 0 0 0 0 0
Nghost:    1017 ave 1017 max 1017 min
Histogram: 1 0 0 0 0 0 0 0 0 0
Neighs:    0 ave 0 max 0 min
Histogram: 1 0 0 0 0 0 0 0 0 0
FullNghs:  14256 ave 14256 max 14256 min
Histogram: 1 0 0 0 0 0 0 0 0 0

Total # of neighbors = 14256
Ave neighs/atom = 27.8982
Neighbor list builds = 0
Dangerous builds = 0
Memory usage per processor = 4.28247 Mbytes
Step Temp PotEng pe Press press 
    1650            0   -2212.7686   -2212.7686   -3602.6038    3602.6038 
    1660 8.7893572e-10   -2212.7686   -2212.7686   -3602.6036    3602.6036 
    1670 9.636669e-09   -2212.7686   -2212.7686   -3602.6013    3602.6013 
    1680 4.7045423e-08   -2212.7686   -2212.7686   -3602.5912    3602.5912 
    1690 2.5263936e-07   -2212.7687   -2212.7687   -3602.5355    3602.5355 
    1700 9.8977617e-07   -2212.7692   -2212.7692   -3602.3322    3602.3322 
    1710 4.6179887e-06   -2212.7714   -2212.7714   -3601.2931    3601.2931 
    1720 1.5399697e-05   -2212.7781   -2212.7781   -3597.5833    3597.5833 
    1730 3.6104985e-05   -2212.7933   -2212.7933   -3579.7199    3579.7199 
    1740 2.9861401e-05   -2212.8036   -2212.8036      -3559.9       3559.9 
    1750 3.8769575e-05   -2212.8185   -2212.8185   -3534.3793    3534.3793 
    1760 1.1851774e-05   -2212.8227   -2212.8227   -3524.4561    3524.4561 
    1770 7.1136162e-07   -2212.8264   -2212.8264   -3529.6454    3529.6454 
    1780 1.3451539e-06   -2212.8269   -2212.8269   -3533.1959    3533.1959 
    1790 2.3958683e-07   -2212.8272   -2212.8272   -3537.7174    3537.7174 
    1800 3.3161034e-08   -2212.8272   -2212.8272   -3538.0995    3538.0995 
    1810 8.4450515e-08   -2212.8273   -2212.8273   -3538.3761    3538.3761 
    1820 1.5827837e-08   -2212.8273   -2212.8273   -3538.3645    3538.3645 
    1821 1.9143207e-08   -2212.8273   -2212.8273    -3538.376     3538.376 
Loop time of 0.169756 on 1 procs for 171 steps with 511 atoms

Minimization stats:
  Stopping criterion = force tolerance
  Energy initial, next-to-last, final = 
        -2212.76856497     -2212.82727661     -2212.82727816
  Force two-norm initial, final = 1.00877 0.00819935
  Force max component initial, final = 0.258592 0.000878457
  Final line search alpha, max atom move = 0 0
  Iterations, force evaluations = 171 171

Pair  time (%) = 0.155079 (91.3542)
Neigh time (%) = 0 (0)
Comm  time (%) = 0.00137353 (0.80912)
Outpt time (%) = 0.00111413 (0.656313)
Other time (%) = 0.0121891 (7.1804)

Nlocal:    511 ave 511 max 511 min
Histogram: 1 0 0 0 0 0 0 0 0 0
Nghost:    1017 ave 1017 max 1017 min
Histogram: 1 0 0 0 0 0 0 0 0 0
Neighs:    0 ave 0 max 0 min
Histogram: 1 0 0 0 0 0 0 0 0 0
FullNghs:  14246 ave 14246 max 14246 min
Histogram: 1 0 0 0 0 0 0 0 0 0

Total # of neighbors = 14246
Ave neighs/atom = 27.8787
Neighbor list builds = 0
Dangerous builds = 0
Memory usage per processor = 4.28247 Mbytes
Step Temp PotEng pe Press press 
    1821            0   -2212.8273   -2212.8273    -3538.376     3538.376 
    1822 4.6826184e-16   -2212.8273   -2212.8273    -3538.376     3538.376 
Loop time of 0.00215316 on 1 procs for 1 steps with 511 atoms

Minimization stats:
  Stopping criterion = force tolerance
  Energy initial, next-to-last, final = 
        -2212.82727816     -2212.82727816     -2212.82727816
  Force two-norm initial, final = 0.00817676 0.00817676
  Force max component initial, final = 0.000881382 0.000881382
  Final line search alpha, max atom move = 0 0
  Iterations, force evaluations = 1 1

Pair  time (%) = 0.00192213 (89.2703)
Neigh time (%) = 0 (0)
Comm  time (%) = 1.69277e-05 (0.786181)
Outpt time (%) = 0 (0)
Other time (%) = 0.0002141 (9.94353)

Nlocal:    511 ave 511 max 511 min
Histogram: 1 0 0 0 0 0 0 0 0 0
Nghost:    1017 ave 1017 max 1017 min
Histogram: 1 0 0 0 0 0 0 0 0 0
Neighs:    0 ave 0 max 0 min
Histogram: 1 0 0 0 0 0 0 0 0 0
FullNghs:  14250 ave 14250 max 14250 min
Histogram: 1 0 0 0 0 0 0 0 0 0

Total # of neighbors = 14250
Ave neighs/atom = 27.8865
Neighbor list builds = 0
Dangerous builds = 0
Memory usage per processor = 4.28247 Mbytes
Step Temp PotEng pe Press press 
    1700            0   -2212.7595   -2212.7595   -3600.4028    3600.4028 
    1710 8.7015674e-10   -2212.7595   -2212.7595   -3600.4025    3600.4025 
    1720 9.540429e-09   -2212.7595   -2212.7595   -3600.4002    3600.4002 
    1730 4.6575687e-08   -2212.7595   -2212.7595     -3600.39      3600.39 
    1740 2.5012358e-07   -2212.7597   -2212.7597   -3600.3342    3600.3342 
    1750 9.7994321e-07   -2212.7601   -2212.7601   -3600.1303    3600.1303 
    1760 4.574271e-06   -2212.7623   -2212.7623   -3599.0894    3599.0894 
    1770 1.5255516e-05    -2212.769    -2212.769    -3595.394     3595.394 
    1780 3.6883641e-05   -2212.7851   -2212.7851   -3577.9685    3577.9685 
    1790 3.8159243e-05   -2212.7988   -2212.7988   -3558.3802    3558.3802 
    1800 5.1200792e-05   -2212.8186   -2212.8186   -3534.6019    3534.6019 
    1810 9.4830182e-06   -2212.8241   -2212.8241   -3529.0538    3529.0538 
    1820 1.0897834e-06   -2212.8255   -2212.8255   -3530.9746    3530.9746 
    1830 2.0851265e-06   -2212.8264   -2212.8264   -3533.3813    3533.3813 
    1840 3.3631323e-07    -2212.827    -2212.827   -3537.7112    3537.7112 
    1850 4.6638693e-08   -2212.8272   -2212.8272   -3538.5443    3538.5443 
    1860 1.3928263e-07   -2212.8272   -2212.8272   -3538.5303    3538.5303 
    1870 2.3270634e-07   -2212.8273   -2212.8273   -3538.2868    3538.2868 
    1874 2.269463e-08   -2212.8273   -2212.8273   -3538.3821    3538.3821 
Loop time of 0.173377 on 1 procs for 174 steps with 511 atoms

Minimization stats:
  Stopping criterion = force tolerance
  Energy initial, next-to-last, final = 
        -2212.75951715     -2212.82728046     -2212.82728326
  Force two-norm initial, final = 1.00372 0.00636652
  Force max component initial, final = 0.243856 0.000631606
  Final line search alpha, max atom move = 0 0
  Iterations, force evaluations = 174 174

Pair  time (%) = 0.158558 (91.4526)
Neigh time (%) = 0 (0)
Comm  time (%) = 0.0013845 (0.798547)
Outpt time (%) = 0.00111461 (0.64288)
Other time (%) = 0.01232 (7.10592)

Nlocal:    511 ave 511 max 511 min
Histogram: 1 0 0 0 0 0 0 0 0 0
Nghost:    1017 ave 1017 max 1017 min
Histogram: 1 0 0 0 0 0 0 0 0 0
Neighs:    0 ave 0 max 0 min
Histogram: 1 0 0 0 0 0 0 0 0 0
FullNghs:  14244 ave 14244 max 14244 min
Histogram: 1 0 0 0 0 0 0 0 0 0

Total # of neighbors = 14244
Ave neighs/atom = 27.8748
Neighbor list builds = 0
Dangerous builds = 0
Memory usage per processor = 4.28247 Mbytes
Step Temp PotEng pe Press press 
    1874            0   -2212.8273   -2212.8273   -3538.3821    3538.3821 
    1875 2.829222e-16   -2212.8273   -2212.8273   -3538.3821    3538.3821 
Loop time of 0.00213885 on 1 procs for 1 steps with 511 atoms

Minimization stats:
  Stopping criterion = force tolerance
  Energy initial, next-to-last, final = 
        -2212.82728326     -2212.82728326     -2212.82728326
  Force two-norm initial, final = 0.0063558 0.0063558
  Force max component initial, final = 0.000631226 0.000631226
  Final line search alpha, max atom move = 0 0
  Iterations, force evaluations = 1 1

Pair  time (%) = 0.00192404 (89.9565)
Neigh time (%) = 0 (0)
Comm  time (%) = 1.5974e-05 (0.746851)
Outpt time (%) = 0 (0)
Other time (%) = 0.000198841 (9.29662)

Nlocal:    511 ave 511 max 511 min
Histogram: 1 0 0 0 0 0 0 0 0 0
Nghost:    1017 ave 1017 max 1017 min
Histogram: 1 0 0 0 0 0 0 0 0 0
Neighs:    0 ave 0 max 0 min
Histogram: 1 0 0 0 0 0 0 0 0 0
FullNghs:  14250 ave 14250 max 14250 min
Histogram: 1 0 0 0 0 0 0 0 0 0

Total # of neighbors = 14250
Ave neighs/atom = 27.8865
Neighbor list builds = 0
Dangerous builds = 0
Memory usage per processor = 4.28247 Mbytes
Step Temp PotEng pe Press press 
    1650            0   -2212.7682   -2212.7682   -3599.2807    3599.2807 
    1660 9.268466e-10   -2212.7682   -2212.7682   -3599.2805    3599.2805 
    1670 1.0161993e-08   -2212.7682   -2212.7682   -3599.2783    3599.2783 
    1680 4.9610717e-08   -2212.7682   -2212.7682   -3599.2685    3599.2685 
    1690 2.664343e-07   -2212.7684   -2212.7684   -3599.2149    3599.2149 
    1700 1.0441327e-06   -2212.7689   -2212.7689    -3599.019     3599.019 
    1710 4.8784226e-06   -2212.7712   -2212.7712   -3598.0171    3598.0171 
    1720 1.6377278e-05   -2212.7783   -2212.7783   -3594.4355    3594.4355 
    1730 4.0569306e-05    -2212.795    -2212.795   -3576.9883    3576.9883 
    1740 3.2216852e-05   -2212.8058   -2212.8058   -3557.8087    3557.8087 
    1750 3.4142643e-05   -2212.8187   -2212.8187   -3535.0805    3535.0805 
    1760 9.7225873e-06   -2212.8248   -2212.8248   -3534.8424    3534.8424 
    1770 1.3829235e-06   -2212.8257   -2212.8257   -3532.4685    3532.4685 
    1780 1.6660152e-06   -2212.8263   -2212.8263   -3536.2211    3536.2211 
    1790 2.3469332e-07   -2212.8269   -2212.8269   -3539.3831    3539.3831 
    1800 5.409558e-08    -2212.827    -2212.827   -3539.2313    3539.2313 
    1810 2.0818443e-07   -2212.8271   -2212.8271   -3539.2075    3539.2075 
    1820 3.9870602e-07   -2212.8272   -2212.8272   -3538.7326    3538.7326 
    1830 5.808441e-09   -2212.8273   -2212.8273   -3538.7284    3538.7284 
    1832 9.2827974e-09   -2212.8273   -2212.8273   -3538.7293    3538.7293 
Loop time of 0.180799 on 1 procs for 182 steps with 511 atoms

Minimization stats:
  Stopping criterion = force tolerance
  Energy initial, next-to-last, final = 
        -2212.76821418     -2212.82725412     -2212.82725501
  Force two-norm initial, final = 1.0359 0.00869468
  Force max component initial, final = 0.212886 0.000758994
  Final line search alpha, max atom move = 0 0
  Iterations, force evaluations = 182 182

Pair  time (%) = 0.165241 (91.3949)
Neigh time (%) = 0 (0)
Comm  time (%) = 0.00146151 (0.808359)
Outpt time (%) = 0.00118852 (0.657369)
Other time (%) = 0.012908 (7.13941)

Nlocal:    511 ave 511 max 511 min
Histogram: 1 0 0 0 0 0 0 0 0 0
Nghost:    1017 ave 1017 max 1017 min
Histogram: 1 0 0 0 0 0 0 0 0 0
Neighs:    0 ave 0 max 0 min
Histogram: 1 0 0 0 0 0 0 0 0 0
FullNghs:  14248 ave 14248 max 14248 min
Histogram: 1 0 0 0 0 0 0 0 0 0

Total # of neighbors = 14248
Ave neighs/atom = 27.8826
Neighbor list builds = 0
Dangerous builds = 0
Memory usage per processor = 4.28247 Mbytes
Step Temp PotEng pe Press press 
    1832            0   -2212.8273   -2212.8273   -3538.7293    3538.7293 
    1833 5.384049e-16   -2212.8273   -2212.8273   -3538.7293    3538.7293 
Loop time of 0.002141 on 1 procs for 1 steps with 511 atoms

Minimization stats:
  Stopping criterion = force tolerance
  Energy initial, next-to-last, final = 
        -2212.82725501     -2212.82725501     -2212.82725501
  Force two-norm initial, final = 0.00876782 0.00876782
  Force max component initial, final = 0.000851202 0.000851202
  Final line search alpha, max atom move = 0 0
  Iterations, force evaluations = 1 1

Pair  time (%) = 0.00191808 (89.588)
Neigh time (%) = 0 (0)
Comm  time (%) = 1.81198e-05 (0.846325)
Outpt time (%) = 0 (0)
Other time (%) = 0.000204802 (9.5657)

Nlocal:    511 ave 511 max 511 min
Histogram: 1 0 0 0 0 0 0 0 0 0
Nghost:    1017 ave 1017 max 1017 min
Histogram: 1 0 0 0 0 0 0 0 0 0
Neighs:    0 ave 0 max 0 min
Histogram: 1 0 0 0 0 0 0 0 0 0
FullNghs:  14250 ave 14250 max 14250 min
Histogram: 1 0 0 0 0 0 0 0 0 0

Total # of neighbors = 14250
Ave neighs/atom = 27.8865
Neighbor list builds = 0
Dangerous builds = 0
Memory usage per processor = 4.28247 Mbytes
Step Temp PotEng pe Press press 
    1700            0   -2212.7706   -2212.7706    -3600.945     3600.945 
    1710 9.6223116e-10   -2212.7706   -2212.7706   -3600.9448    3600.9448 
    1720 1.0549943e-08   -2212.7706   -2212.7706   -3600.9425    3600.9425 
    1730 5.1504273e-08   -2212.7707   -2212.7707   -3600.9326    3600.9326 
    1740 2.7659629e-07   -2212.7708   -2212.7708    -3600.878     3600.878 
    1750 1.0837588e-06   -2212.7713   -2212.7713   -3600.6789    3600.6789 
    1760 5.0608001e-06   -2212.7737   -2212.7737    -3599.661     3599.661 
    1770 1.6923524e-05   -2212.7811   -2212.7811   -3596.0336    3596.0336 
    1780 4.1687166e-05   -2212.7987   -2212.7987   -3578.6059    3578.6059 
    1790 3.498365e-05   -2212.8105   -2212.8105   -3559.4096    3559.4096 
    1800 2.9547732e-05   -2212.8205   -2212.8205    -3536.032     3536.032 
    1810 7.0445297e-06   -2212.8246   -2212.8246   -3534.1361    3534.1361 
    1820 1.4793092e-06   -2212.8254   -2212.8254   -3536.9234    3536.9234 
    1830 2.3176094e-06   -2212.8263   -2212.8263   -3538.2009    3538.2009 
    1840 7.8037763e-07   -2212.8269   -2212.8269   -3541.9674    3541.9674 
    1850 6.5791673e-08    -2212.827    -2212.827   -3541.4509    3541.4509 
    1860 2.9677171e-07   -2212.8271   -2212.8271   -3540.0795    3540.0795 
    1870 5.1967199e-07   -2212.8273   -2212.8273   -3538.2186    3538.2186 
    1880 1.9779332e-08   -2212.8273   -2212.8273   -3538.4209    3538.4209 
    1881 2.3711328e-08   -2212.8273   -2212.8273   -3538.4474    3538.4474 
Loop time of 0.179999 on 1 procs for 181 steps with 511 atoms

Minimization stats:
  Stopping criterion = force tolerance
  Energy initial, next-to-last, final = 
        -2212.77062683     -2212.82728974     -2212.82729154
  Force two-norm initial, final = 1.05549 0.00576726
  Force max component initial, final = 0.270855 0.000718279
  Final line search alpha, max atom move = 0 0
  Iterations, force evaluations = 181 181

Pair  time (%) = 0.164816 (91.5652)
Neigh time (%) = 0 (0)
Comm  time (%) = 0.00146151 (0.811953)
Outpt time (%) = 0.00119638 (0.664662)
Other time (%) = 0.0125246 (6.95816)

Nlocal:    511 ave 511 max 511 min
Histogram: 1 0 0 0 0 0 0 0 0 0
Nghost:    1017 ave 1017 max 1017 min
Histogram: 1 0 0 0 0 0 0 0 0 0
Neighs:    0 ave 0 max 0 min
Histogram: 1 0 0 0 0 0 0 0 0 0
FullNghs:  14246 ave 14246 max 14246 min
Histogram: 1 0 0 0 0 0 0 0 0 0

Total # of neighbors = 14246
Ave neighs/atom = 27.8787
Neighbor list builds = 0
Dangerous builds = 0
Memory usage per processor = 4.28247 Mbytes
Step Temp PotEng pe Press press 
    1881            0   -2212.8273   -2212.8273   -3538.4474    3538.4474 
    1882 2.3601867e-16   -2212.8273   -2212.8273   -3538.4474    3538.4474 
Loop time of 0.00213408 on 1 procs for 1 steps with 511 atoms

Minimization stats:
  Stopping criterion = force tolerance
  Energy initial, next-to-last, final = 
        -2212.82729154     -2212.82729154     -2212.82729154
  Force two-norm initial, final = 0.00580511 0.00580511
  Force max component initial, final = 0.000718187 0.000718187
  Final line search alpha, max atom move = 0 0
  Iterations, force evaluations = 1 1

Pair  time (%) = 0.00192213 (90.0681)
Neigh time (%) = 0 (0)
Comm  time (%) = 1.62125e-05 (0.759692)
Outpt time (%) = 0 (0)
Other time (%) = 0.000195742 (9.17216)

Nlocal:    511 ave 511 max 511 min
Histogram: 1 0 0 0 0 0 0 0 0 0
Nghost:    1017 ave 1017 max 1017 min
Histogram: 1 0 0 0 0 0 0 0 0 0
Neighs:    0 ave 0 max 0 min
Histogram: 1 0 0 0 0 0 0 0 0 0
FullNghs:  14250 ave 14250 max 14250 min
Histogram: 1 0 0 0 0 0 0 0 0 0

Total # of neighbors = 14250
Ave neighs/atom = 27.8865
Neighbor list builds = 0
Dangerous builds = 0
Memory usage per processor = 4.28247 Mbytes
Step Temp PotEng pe Press press 
    1750            0   -2212.7706   -2212.7706   -3600.9604    3600.9604 
    1760 9.5814417e-10   -2212.7706   -2212.7706   -3600.9602    3600.9602 
    1770 1.0505133e-08   -2212.7706   -2212.7706   -3600.9579    3600.9579 
    1780 5.1285519e-08   -2212.7706   -2212.7706    -3600.948     3600.948 
    1790 2.754216e-07   -2212.7708   -2212.7708   -3600.8934    3600.8934 
    1800 1.0791585e-06   -2212.7713   -2212.7713   -3600.6941    3600.6941 
    1810 5.0393454e-06   -2212.7737   -2212.7737   -3599.6754    3599.6754 
    1820 1.6851779e-05    -2212.781    -2212.781   -3596.0458    3596.0458 
    1830 4.1480935e-05   -2212.7986   -2212.7986   -3578.6184    3578.6184 
    1840 3.5128842e-05   -2212.8104   -2212.8104   -3559.4279    3559.4279 
    1850 2.9742858e-05   -2212.8205   -2212.8205   -3536.0368    3536.0368 
    1860 1.0204024e-05   -2212.8222   -2212.8222    -3529.728     3529.728 
    1870 2.6810371e-06   -2212.8258   -2212.8258   -3533.1858    3533.1858 
    1880 2.2305278e-06   -2212.8266   -2212.8266   -3534.3792    3534.3792 
    1890 2.4498664e-07   -2212.8271   -2212.8271   -3537.7385    3537.7385 
    1900 3.8943798e-08   -2212.8272   -2212.8272   -3538.3822    3538.3822 
    1910 1.087021e-07   -2212.8273   -2212.8273   -3538.6225    3538.6225 
    1920 1.3894718e-08   -2212.8273   -2212.8273   -3538.6645    3538.6645 
    1922 2.2626357e-08   -2212.8273   -2212.8273   -3538.6747    3538.6747 
Loop time of 0.176228 on 1 procs for 172 steps with 511 atoms

Minimization stats:
  Stopping criterion = force tolerance
  Energy initial, next-to-last, final = 
        -2212.77061246     -2212.82727708     -2212.82727882
  Force two-norm initial, final = 1.05325 0.00808727
  Force max component initial, final = 0.270605 0.000828594
  Final line search alpha, max atom move = 0 0
  Iterations, force evaluations = 172 172

Pair  time (%) = 0.160968 (91.3409)
Neigh time (%) = 0 (0)
Comm  time (%) = 0.00140142 (0.795233)
Outpt time (%) = 0.00120258 (0.682402)
Other time (%) = 0.0126557 (7.18145)

Nlocal:    511 ave 511 max 511 min
Histogram: 1 0 0 0 0 0 0 0 0 0
Nghost:    1017 ave 1017 max 1017 min
Histogram: 1 0 0 0 0 0 0 0 0 0
Neighs:    0 ave 0 max 0 min
Histogram: 1 0 0 0 0 0 0 0 0 0
FullNghs:  14246 ave 14246 max 14246 min
Histogram: 1 0 0 0 0 0 0 0 0 0

Total # of neighbors = 14246
Ave neighs/atom = 27.8787
Neighbor list builds = 0
Dangerous builds = 0
Memory usage per processor = 4.28247 Mbytes
Step Temp PotEng pe Press press 
    1922            0   -2212.8273   -2212.8273   -3538.6747    3538.6747 
    1923 4.8847728e-16   -2212.8273   -2212.8273   -3538.6747    3538.6747 
Loop time of 0.00220394 on 1 procs for 1 steps with 511 atoms

Minimization stats:
  Stopping criterion = force tolerance
  Energy initial, next-to-last, final = 
        -2212.82727882     -2212.82727882     -2212.82727882
  Force two-norm initial, final = 0.0083514 0.0083514
  Force max component initial, final = 0.00132471 0.00132471
  Final line search alpha, max atom move = 0 0
  Iterations, force evaluations = 1 1

Pair  time (%) = 0.00198698 (90.1558)
Neigh time (%) = 0 (0)
Comm  time (%) = 1.38283e-05 (0.627434)
Outpt time (%) = 0 (0)
Other time (%) = 0.000203133 (9.21679)

Nlocal:    511 ave 511 max 511 min
Histogram: 1 0 0 0 0 0 0 0 0 0
Nghost:    1017 ave 1017 max 1017 min
Histogram: 1 0 0 0 0 0 0 0 0 0
Neighs:    0 ave 0 max 0 min
Histogram: 1 0 0 0 0 0 0 0 0 0
FullNghs:  14250 ave 14250 max 14250 min
Histogram: 1 0 0 0 0 0 0 0 0 0

Total # of neighbors = 14250
Ave neighs/atom = 27.8865
Neighbor list builds = 0
Dangerous builds = 0
Memory usage per processor = 4.28247 Mbytes
Step Temp PotEng pe Press press 
    1800            0   -2212.7707   -2212.7707   -3600.9416    3600.9416 
    1810 9.5571092e-10   -2212.7707   -2212.7707   -3600.9414    3600.9414 
    1820 1.0478455e-08   -2212.7707   -2212.7707   -3600.9391    3600.9391 
    1830 5.1155296e-08   -2212.7707   -2212.7707   -3600.9292    3600.9292 
    1840 2.7472257e-07   -2212.7708   -2212.7708   -3600.8746    3600.8746 
    1850 1.0764276e-06   -2212.7713   -2212.7713   -3600.6752    3600.6752 
    1860 5.026701e-06   -2212.7738   -2212.7738   -3599.6563    3599.6563 
    1870 1.6811378e-05   -2212.7811   -2212.7811   -3596.0256    3596.0256 
    1880 4.1356085e-05   -2212.7986   -2212.7986   -3578.5929    3578.5929 
    1890 3.518526e-05   -2212.8104   -2212.8104    -3559.406     3559.406 
    1900 2.976366e-05   -2212.8205   -2212.8205   -3536.0033    3536.0033 
    1910 7.056684e-06   -2212.8246   -2212.8246   -3534.1124    3534.1124 
    1920 1.4946329e-06   -2212.8254   -2212.8254   -3536.9156    3536.9156 
    1930 2.3349642e-06   -2212.8263   -2212.8263     -3538.19      3538.19 
    1940 7.9039489e-07   -2212.8269   -2212.8269   -3541.9617    3541.9617 
    1950 6.6535629e-08    -2212.827    -2212.827   -3541.4448    3541.4448 
    1960 2.9649382e-07   -2212.8271   -2212.8271   -3540.0757    3540.0757 
    1970 5.1705282e-07   -2212.8273   -2212.8273   -3538.1792    3538.1792 
    1980 2.0184438e-08   -2212.8273   -2212.8273   -3538.4317    3538.4317 
    1981 2.4190712e-08   -2212.8273   -2212.8273   -3538.4559    3538.4559 
Loop time of 0.186222 on 1 procs for 181 steps with 511 atoms

Minimization stats:
  Stopping criterion = force tolerance
  Energy initial, next-to-last, final = 
        -2212.77067863     -2212.82728967     -2212.82729148
  Force two-norm initial, final = 1.05191 0.00572582
  Force max component initial, final = 0.270509 0.000710928
  Final line search alpha, max atom move = 0 0
  Iterations, force evaluations = 181 181

Pair  time (%) = 0.170076 (91.3299)
Neigh time (%) = 0 (0)
Comm  time (%) = 0.00153089 (0.822075)
Outpt time (%) = 0.00118828 (0.638097)
Other time (%) = 0.0134265 (7.20996)

Nlocal:    511 ave 511 max 511 min
Histogram: 1 0 0 0 0 0 0 0 0 0
Nghost:    1017 ave 1017 max 1017 min
Histogram: 1 0 0 0 0 0 0 0 0 0
Neighs:    0 ave 0 max 0 min
Histogram: 1 0 0 0 0 0 0 0 0 0
FullNghs:  14246 ave 14246 max 14246 min
Histogram: 1 0 0 0 0 0 0 0 0 0

Total # of neighbors = 14246
Ave neighs/atom = 27.8787
Neighbor list builds = 0
Dangerous builds = 0
Memory usage per processor = 4.28247 Mbytes
Step Temp PotEng pe Press press 
    1981            0   -2212.8273   -2212.8273   -3538.4559    3538.4559 
    1982 2.3316598e-16   -2212.8273   -2212.8273   -3538.4559    3538.4559 
Loop time of 0.00213885 on 1 procs for 1 steps with 511 atoms

Minimization stats:
  Stopping criterion = force tolerance
  Energy initial, next-to-last, final = 
        -2212.82729148     -2212.82729148     -2212.82729148
  Force two-norm initial, final = 0.00576992 0.00576992
  Force max component initial, final = 0.000710828 0.000710828
  Final line search alpha, max atom move = 0 0
  Iterations, force evaluations = 1 1

Pair  time (%) = 0.00192308 (89.9119)
Neigh time (%) = 0 (0)
Comm  time (%) = 1.5974e-05 (0.746851)
Outpt time (%) = 0 (0)
Other time (%) = 0.000199795 (9.34121)

Nlocal:    511 ave 511 max 511 min
Histogram: 1 0 0 0 0 0 0 0 0 0
Nghost:    1017 ave 1017 max 1017 min
Histogram: 1 0 0 0 0 0 0 0 0 0
Neighs:    0 ave 0 max 0 min
Histogram: 1 0 0 0 0 0 0 0 0 0
FullNghs:  14250 ave 14250 max 14250 min
Histogram: 1 0 0 0 0 0 0 0 0 0

Total # of neighbors = 14250
Ave neighs/atom = 27.8865
Neighbor list builds = 0
Dangerous builds = 0
Memory usage per processor = 4.28247 Mbytes
Step Temp PotEng pe Press press 
    1850            0   -2212.7712   -2212.7712   -3600.7788    3600.7788 
    1860 9.6004416e-10   -2212.7712   -2212.7712   -3600.7786    3600.7786 
    1870 1.0525966e-08   -2212.7712   -2212.7712   -3600.7764    3600.7764 
    1880 5.1387302e-08   -2212.7712   -2212.7712   -3600.7664    3600.7664 
    1890 2.7596958e-07   -2212.7714   -2212.7714    -3600.712     3600.712 
    1900 1.0813419e-06   -2212.7719   -2212.7719   -3600.5131    3600.5131 
    1910 5.0500383e-06   -2212.7743   -2212.7743   -3599.4963    3599.4963 
    1920 1.6898172e-05   -2212.7816   -2212.7816   -3595.8701    3595.8701 
    1930 4.1564294e-05   -2212.7992   -2212.7992   -3578.4118    3578.4118 
    1940 3.472143e-05   -2212.8109   -2212.8109   -3559.2126    3559.2126 
    1950 2.8964331e-05   -2212.8206   -2212.8206   -3535.7979    3535.7979 
    1960 7.0904798e-06   -2212.8246   -2212.8246   -3534.0695    3534.0695 
    1970 1.5038271e-06   -2212.8255   -2212.8255   -3536.8473    3536.8473 
    1980 2.2908421e-06   -2212.8263   -2212.8263   -3538.1442    3538.1442 
    1990 8.0326403e-07   -2212.8269   -2212.8269   -3541.9252    3541.9252 
    2000 6.8185446e-08    -2212.827    -2212.827   -3541.4147    3541.4147 
    2010 2.899748e-07   -2212.8271   -2212.8271   -3540.0514    3540.0514 
    2020 5.0998536e-07   -2212.8272   -2212.8272   -3538.0818    3538.0818 
    2030 2.2838113e-08   -2212.8273   -2212.8273   -3538.4589    3538.4589 
    2031 2.7299721e-08   -2212.8273   -2212.8273   -3538.4762    3538.4762 
Loop time of 0.180184 on 1 procs for 181 steps with 511 atoms

Minimization stats:
  Stopping criterion = force tolerance
  Energy initial, next-to-last, final = 
        -2212.77119901      -2212.8272894     -2212.82729137
  Force two-norm initial, final = 1.05429 0.00563712
  Force max component initial, final = 0.271423 0.000667941
  Final line search alpha, max atom move = 0 0
  Iterations, force evaluations = 181 181

Pair  time (%) = 0.164623 (91.364)
Neigh time (%) = 0 (0)
Comm  time (%) = 0.00144482 (0.801856)
Outpt time (%) = 0.00119781 (0.664773)
Other time (%) = 0.012918 (7.16933)

Nlocal:    511 ave 511 max 511 min
Histogram: 1 0 0 0 0 0 0 0 0 0
Nghost:    1017 ave 1017 max 1017 min
Histogram: 1 0 0 0 0 0 0 0 0 0
Neighs:    0 ave 0 max 0 min
Histogram: 1 0 0 0 0 0 0 0 0 0
FullNghs:  14246 ave 14246 max 14246 min
Histogram: 1 0 0 0 0 0 0 0 0 0

Total # of neighbors = 14246
Ave neighs/atom = 27.8787
Neighbor list builds = 0
Dangerous builds = 0
Memory usage per processor = 4.28247 Mbytes
Step Temp PotEng pe Press press 
    2031            0   -2212.8273   -2212.8273   -3538.4762    3538.4762 
    2032 2.2685488e-16   -2212.8273   -2212.8273   -3538.4762    3538.4762 
Loop time of 0.0021379 on 1 procs for 1 steps with 511 atoms

Minimization stats:
  Stopping criterion = force tolerance
  Energy initial, next-to-last, final = 
        -2212.82729137     -2212.82729137     -2212.82729137
  Force two-norm initial, final = 0.00569129 0.00569129
  Force max component initial, final = 0.000667831 0.000667831
  Final line search alpha, max atom move = 0 0
  Iterations, force evaluations = 1 1

Pair  time (%) = 0.00191998 (89.8071)
Neigh time (%) = 0 (0)
Comm  time (%) = 1.5974e-05 (0.747184)
Outpt time (%) = 0 (0)
Other time (%) = 0.000201941 (9.44575)

Nlocal:    511 ave 511 max 511 min
Histogram: 1 0 0 0 0 0 0 0 0 0
Nghost:    1017 ave 1017 max 1017 min
Histogram: 1 0 0 0 0 0 0 0 0 0
Neighs:    0 ave 0 max 0 min
Histogram: 1 0 0 0 0 0 0 0 0 0
FullNghs:  14250 ave 14250 max 14250 min
Histogram: 1 0 0 0 0 0 0 0 0 0

Total # of neighbors = 14250
Ave neighs/atom = 27.8865
Neighbor list builds = 0
Dangerous builds = 0
Memory usage per processor = 4.28247 Mbytes
Step Temp PotEng pe Press press 
    1900            0   -2212.7717   -2212.7717   -3600.5952    3600.5952 
    1910 9.478401e-10   -2212.7717   -2212.7717    -3600.595     3600.595 
    1920 1.0392157e-08   -2212.7717   -2212.7717   -3600.5927    3600.5927 
    1930 5.0733975e-08   -2212.7717   -2212.7717   -3600.5827    3600.5827 
    1940 2.7245872e-07   -2212.7719   -2212.7719   -3600.5278    3600.5278 
    1950 1.0675529e-06   -2212.7724   -2212.7724   -3600.3274    3600.3274 
    1960 4.9848255e-06   -2212.7747   -2212.7747   -3599.3031    3599.3031 
    1970 1.6667175e-05    -2212.782    -2212.782   -3595.6512    3595.6512 
    1980 4.0669937e-05   -2212.7993   -2212.7993   -3578.1166    3578.1166 
    1990 3.5205111e-05   -2212.8111   -2212.8111   -3558.9549    3558.9549 
    2000 2.9282287e-05   -2212.8209   -2212.8209   -3535.4486    3535.4486 
    2010 7.0855024e-06   -2212.8246   -2212.8246    -3533.803     3533.803 
    2020 1.5192634e-06   -2212.8255   -2212.8255   -3536.6159    3536.6159 
    2030 2.3187283e-06   -2212.8264   -2212.8264   -3537.9453    3537.9453 
    2040 2.2113308e-07   -2212.8269   -2212.8269   -3541.0849    3541.0849 
    2050 2.9852832e-07    -2212.827    -2212.827   -3540.7432    3540.7432 
    2060 1.4152327e-07   -2212.8272   -2212.8272   -3539.8144    3539.8144 
    2070 3.5216349e-08   -2212.8272   -2212.8272   -3539.6709    3539.6709 
    2080 1.1674964e-07   -2212.8272   -2212.8272    -3539.607     3539.607 
    2087 4.1557362e-08   -2212.8273   -2212.8273   -3539.3305    3539.3305 
Loop time of 0.185696 on 1 procs for 187 steps with 511 atoms

Minimization stats:
  Stopping criterion = force tolerance
  Energy initial, next-to-last, final = 
        -2212.77170218     -2212.82725451     -2212.82725718
  Force two-norm initial, final = 1.04757 0.00710606
  Force max component initial, final = 0.271511 0.000585812
  Final line search alpha, max atom move = 0 0
  Iterations, force evaluations = 187 187

Pair  time (%) = 0.16998 (91.5367)
Neigh time (%) = 0 (0)
Comm  time (%) = 0.00150466 (0.810282)
Outpt time (%) = 0.00119543 (0.643757)
Other time (%) = 0.013016 (7.0093)

Nlocal:    511 ave 511 max 511 min
Histogram: 1 0 0 0 0 0 0 0 0 0
Nghost:    1017 ave 1017 max 1017 min
Histogram: 1 0 0 0 0 0 0 0 0 0
Neighs:    0 ave 0 max 0 min
Histogram: 1 0 0 0 0 0 0 0 0 0
FullNghs:  14246 ave 14246 max 14246 min
Histogram: 1 0 0 0 0 0 0 0 0 0

Total # of neighbors = 14246
Ave neighs/atom = 27.8787
Neighbor list builds = 0
Dangerous builds = 0
Memory usage per processor = 4.28247 Mbytes
Step Temp PotEng pe Press press 
    2087            0   -2212.8273   -2212.8273   -3539.3305    3539.3305 
    2088  3.71263e-16   -2212.8273   -2212.8273   -3539.3305    3539.3305 
Loop time of 0.00214219 on 1 procs for 1 steps with 511 atoms

Minimization stats:
  Stopping criterion = force tolerance
  Energy initial, next-to-last, final = 
        -2212.82725718     -2212.82725718     -2212.82725718
  Force two-norm initial, final = 0.00728078 0.00728078
  Force max component initial, final = 0.000741364 0.000741364
  Final line search alpha, max atom move = 0 0
  Iterations, force evaluations = 1 1

Pair  time (%) = 0.00192499 (89.8609)
Neigh time (%) = 0 (0)
Comm  time (%) = 1.40667e-05 (0.65665)
Outpt time (%) = 0 (0)
Other time (%) = 0.000203133 (9.48247)

Nlocal:    511 ave 511 max 511 min
Histogram: 1 0 0 0 0 0 0 0 0 0
Nghost:    1017 ave 1017 max 1017 min
Histogram: 1 0 0 0 0 0 0 0 0 0
Neighs:    0 ave 0 max 0 min
Histogram: 1 0 0 0 0 0 0 0 0 0
FullNghs:  14250 ave 14250 max 14250 min
Histogram: 1 0 0 0 0 0 0 0 0 0

Total # of neighbors = 14250
Ave neighs/atom = 27.8865
Neighbor list builds = 0
Dangerous builds = 0
Memory usage per processor = 4.28247 Mbytes
Step Temp PotEng pe Press press 
    1700            0   -2213.3089   -2213.3089   -3383.7152    3383.7152 
    1710 1.2706107e-10   -2213.3089   -2213.3089   -3383.7152    3383.7152 
    1720 1.3931188e-09   -2213.3089   -2213.3089   -3383.7154    3383.7154 
    1730 6.8015677e-09   -2213.3089   -2213.3089   -3383.7165    3383.7165 
    1740 3.6537919e-08   -2213.3089   -2213.3089    -3383.722     3383.722 
    1750 1.4335741e-07    -2213.309    -2213.309   -3383.7421    3383.7421 
    1760 6.7346641e-07   -2213.3093   -2213.3093   -3383.8412    3383.8412 
    1770 2.3197646e-06   -2213.3103   -2213.3103    -3384.149     3384.149 
    1780 7.069277e-06   -2213.3133   -2213.3133   -3384.9252    3384.9252 
    1790 1.2648725e-05   -2213.3184   -2213.3184   -3384.2334    3384.2334 
    1800 2.7057569e-05   -2213.3306   -2213.3306   -3383.7139    3383.7139 
    1810 1.1923999e-06   -2213.3352   -2213.3352   -3383.8118    3383.8118 
    1820 4.1259263e-07   -2213.3355   -2213.3355   -3383.8868    3383.8868 
    1830 1.2556148e-06   -2213.3361   -2213.3361   -3383.6101    3383.6101 
    1840 3.8549982e-08   -2213.3369   -2213.3369   -3383.2553    3383.2553 
    1850 3.8227485e-08    -2213.337    -2213.337   -3383.3721    3383.3721 
    1860 2.6570168e-07   -2213.3372   -2213.3372   -3383.3739    3383.3739 
    1870 4.5683563e-09   -2213.3373   -2213.3373   -3383.3274    3383.3274 
    1880 4.2561936e-09   -2213.3374   -2213.3374   -3383.4072    3383.4072 
    1882 6.2661024e-09   -2213.3374   -2213.3374   -3383.4038    3383.4038 
Loop time of 0.178704 on 1 procs for 182 steps with 511 atoms

Minimization stats:
  Stopping criterion = force tolerance
  Energy initial, next-to-last, final = 
        -2213.30891385     -2213.33735954     -2213.33736001
  Force two-norm initial, final = 0.38355 0.00653489
  Force max component initial, final = 0.0324658 0.000508704
  Final line search alpha, max atom move = 0 0
  Iterations, force evaluations = 182 182

Pair  time (%) = 0.161676 (90.4712)
Neigh time (%) = 0 (0)
Comm  time (%) = 0.00151253 (0.846387)
Outpt time (%) = 0.00117302 (0.656403)
Other time (%) = 0.0143428 (8.026)

Nlocal:    511 ave 511 max 511 min
Histogram: 1 0 0 0 0 0 0 0 0 0
Nghost:    1017 ave 1017 max 1017 min
Histogram: 1 0 0 0 0 0 0 0 0 0
Neighs:    0 ave 0 max 0 min
Histogram: 1 0 0 0 0 0 0 0 0 0
FullNghs:  14256 ave 14256 max 14256 min
Histogram: 1 0 0 0 0 0 0 0 0 0

Total # of neighbors = 14256
Ave neighs/atom = 27.8982
Neighbor list builds = 0
Dangerous builds = 0
Memory usage per processor = 4.28247 Mbytes
Step Temp PotEng pe Press press 
    1882            0   -2213.3374   -2213.3374   -3383.4038    3383.4038 
    1883 2.9909052e-16   -2213.3374   -2213.3374   -3383.4038    3383.4038 
Loop time of 0.00212884 on 1 procs for 1 steps with 511 atoms

Minimization stats:
  Stopping criterion = force tolerance
  Energy initial, next-to-last, final = 
        -2213.33736001     -2213.33736001     -2213.33736001
  Force two-norm initial, final = 0.00653489 0.00653489
  Force max component initial, final = 0.000508704 0.000508704
  Final line search alpha, max atom move = 0 0
  Iterations, force evaluations = 1 1

Pair  time (%) = 0.00190401 (89.4389)
Neigh time (%) = 0 (0)
Comm  time (%) = 1.40667e-05 (0.660768)
Outpt time (%) = 0 (0)
Other time (%) = 0.000210762 (9.90032)

Nlocal:    511 ave 511 max 511 min
Histogram: 1 0 0 0 0 0 0 0 0 0
Nghost:    1017 ave 1017 max 1017 min
Histogram: 1 0 0 0 0 0 0 0 0 0
Neighs:    0 ave 0 max 0 min
Histogram: 1 0 0 0 0 0 0 0 0 0
FullNghs:  14256 ave 14256 max 14256 min
Histogram: 1 0 0 0 0 0 0 0 0 0

Total # of neighbors = 14256
Ave neighs/atom = 27.8982
Neighbor list builds = 0
Dangerous builds = 0
Memory usage per processor = 4.28247 Mbytes
Step Temp PotEng pe Press press 
    1750            0   -2211.2102   -2211.2102   -3399.6586    3399.6586 
    1760 3.1471918e-08   -2211.2102   -2211.2102   -3399.6612    3399.6612 
    1770 3.4505774e-07   -2211.2104   -2211.2104   -3399.6891    3399.6891 
    1780 1.6845319e-06   -2211.2112   -2211.2112   -3399.8103    3399.8103 
    1790 9.0455856e-06   -2211.2157   -2211.2157   -3400.4736    3400.4736 
    1800 3.5435482e-05   -2211.2319   -2211.2319   -3402.8684    3402.8684 
    1810 0.00016525649    -2211.311    -2211.311     -3414.48      3414.48 
    1820 0.00055580036   -2211.5497   -2211.5497   -3448.3894    3448.3894 
    1830 0.0015841508   -2212.1917   -2212.1917   -3517.4228    3517.4228 
    1840 0.0022288654   -2212.9593   -2212.9593   -3404.7363    3404.7363 
    1850 3.4488788e-05    -2213.183    -2213.183   -3349.5867    3349.5867 
    1860 0.00018824307   -2213.2895   -2213.2895    -3412.431     3412.431 
    1870 1.4052632e-05   -2213.3039   -2213.3039   -3395.2493    3395.2493 
    1880 1.4914447e-07   -2213.3304   -2213.3304   -3397.1143    3397.1143 
    1890 4.8850734e-06   -2213.3337   -2213.3337   -3374.4081    3374.4081 
    1900 7.9084605e-08   -2213.3351   -2213.3351   -3378.7939    3378.7939 
    1910 1.247808e-06    -2213.336    -2213.336   -3385.5849    3385.5849 
    1920 2.8527285e-07   -2213.3366   -2213.3366   -3385.3427    3385.3427 
    1930 6.0812862e-08   -2213.3369   -2213.3369   -3382.2186    3382.2186 
    1940 1.7327896e-07    -2213.337    -2213.337   -3384.2483    3384.2483 
    1950 4.7909857e-07   -2213.3372   -2213.3372   -3384.6403    3384.6403 
Loop time of 0.199142 on 1 procs for 200 steps with 511 atoms

Minimization stats:
  Stopping criterion = max iterations
  Energy initial, next-to-last, final = 
         -2211.2101911     -2213.33718665     -2213.33722474
  Force two-norm initial, final = 6.03639 0.061773
  Force max component initial, final = 2.67231 0.00944236
  Final line search alpha, max atom move = 0 0
  Iterations, force evaluations = 200 200

Pair  time (%) = 0.180944 (90.862)
Neigh time (%) = 0 (0)
Comm  time (%) = 0.00161529 (0.811123)
Outpt time (%) = 0.00132561 (0.665659)
Other time (%) = 0.0152566 (7.66119)

Nlocal:    511 ave 511 max 511 min
Histogram: 1 0 0 0 0 0 0 0 0 0
Nghost:    1017 ave 1017 max 1017 min
Histogram: 1 0 0 0 0 0 0 0 0 0
Neighs:    0 ave 0 max 0 min
Histogram: 1 0 0 0 0 0 0 0 0 0
FullNghs:  14270 ave 14270 max 14270 min
Histogram: 1 0 0 0 0 0 0 0 0 0

Total # of neighbors = 14270
Ave neighs/atom = 27.9256
Neighbor list builds = 0
Dangerous builds = 0
Memory usage per processor = 4.28247 Mbytes
Step Temp PotEng pe Press press 
    1950            0   -2213.3372   -2213.3372   -3384.6403    3384.6403 
    1960 3.2972435e-12   -2213.3372   -2213.3372   -3384.6403    3384.6403 
    1970 3.615023e-11   -2213.3372   -2213.3372   -3384.6401    3384.6401 
    1980 1.764659e-10   -2213.3372   -2213.3372   -3384.6391    3384.6391 
    1990 9.4712759e-10   -2213.3372   -2213.3372   -3384.6339    3384.6339 
    2000 3.7037212e-09   -2213.3372   -2213.3372    -3384.615     3384.615 
    2010 1.710576e-08   -2213.3372   -2213.3372   -3384.5198    3384.5198 
    2020 5.5176806e-08   -2213.3373   -2213.3373   -3384.2017    3384.2017 
    2030 8.7499108e-08   -2213.3373   -2213.3373    -3383.102     3383.102 
    2040 6.3357011e-08   -2213.3373   -2213.3373   -3383.4542    3383.4542 
    2050 1.6495896e-07   -2213.3373   -2213.3373   -3382.5577    3382.5577 
    2060 7.9809692e-06   -2213.3335   -2213.3335   -3381.8415    3381.8415 
    2070 0.0059119688   -2209.3708   -2209.3708   -2861.1567    2861.1567 
    2080 0.0017889387   -2212.4966   -2212.4966   -3326.8133    3326.8133 
    2090 0.00019956899   -2212.5983   -2212.5983   -3365.3662    3365.3662 
    2100 0.00064416643   -2212.9015   -2212.9015   -3445.5016    3445.5016 
    2110 0.0019108302   -2212.6175   -2212.6175   -3466.8038    3466.8038 
    2120 0.00085852519    -2212.444    -2212.444   -3468.5687    3468.5687 
    2130 0.00037993012   -2212.6689   -2212.6689   -3483.3141    3483.3141 
    2140 0.00076127922   -2212.9368   -2212.9368   -3410.6939    3410.6939 
    2150 0.00066177649   -2211.7504   -2211.7504   -3288.3773    3288.3773 
Loop time of 0.200034 on 1 procs for 200 steps with 511 atoms

Minimization stats:
  Stopping criterion = max iterations
  Energy initial, next-to-last, final = 
        -2213.33722474     -2211.58731416     -2211.75036405
  Force two-norm initial, final = 0.0617862 4.7723
[...]
  Iterations, force evaluations = 1 1

Pair  time (%) = 0.00193381 (89.8228)
Neigh time (%) = 0 (0)
Comm  time (%) = 1.57356e-05 (0.730897)
Outpt time (%) = 0 (0)
Other time (%) = 0.000203371 (9.44629)

Nlocal:    511 ave 511 max 511 min
Histogram: 1 0 0 0 0 0 0 0 0 0
Nghost:    1017 ave 1017 max 1017 min
Histogram: 1 0 0 0 0 0 0 0 0 0
Neighs:    0 ave 0 max 0 min
Histogram: 1 0 0 0 0 0 0 0 0 0
FullNghs:  14256 ave 14256 max 14256 min
Histogram: 1 0 0 0 0 0 0 0 0 0

Total # of neighbors = 14256
Ave neighs/atom = 27.8982
Neighbor list builds = 0
Dangerous builds = 0
Memory usage per processor = 4.28247 Mbytes
Step Temp PotEng pe Press press 
    2900            0   -2213.3197   -2213.3197   -3384.4148    3384.4148 
    2910 9.1962604e-11   -2213.3197   -2213.3197   -3384.4148    3384.4148 
    2920 1.0083067e-09   -2213.3197   -2213.3197    -3384.415     3384.415 
    2930 4.9230692e-09   -2213.3197   -2213.3197   -3384.4155    3384.4155 
    2940 2.6454919e-08   -2213.3197   -2213.3197   -3384.4182    3384.4182 
    2950 1.0390032e-07   -2213.3198   -2213.3198    -3384.428     3384.428 
    2960 4.9087825e-07     -2213.32     -2213.32   -3384.4768    3384.4768 
    2970 1.7176318e-06   -2213.3208   -2213.3208   -3384.6305    3384.6305 
    2980 5.5888481e-06   -2213.3232   -2213.3232   -3385.0631    3385.0631 
    2990 6.6581618e-06    -2213.326    -2213.326   -3384.6532    3384.6532 
    3000 1.3163853e-05   -2213.3312   -2213.3312   -3383.9723    3383.9723 
    3010 4.8518496e-07   -2213.3367   -2213.3367   -3383.0554    3383.0554 
    3020 1.6271891e-07    -2213.337    -2213.337   -3383.4287    3383.4287 
    3030 3.1445978e-07   -2213.3372   -2213.3372    -3383.303     3383.303 
    3040 4.9317676e-08   -2213.3373   -2213.3373   -3383.3409    3383.3409 
    3050 1.4354104e-08   -2213.3373   -2213.3373   -3383.3781    3383.3781 
    3059 4.2296567e-08   -2213.3373   -2213.3373   -3383.3836    3383.3836 
Loop time of 0.154929 on 1 procs for 159 steps with 511 atoms

Minimization stats:
  Stopping criterion = force tolerance
  Energy initial, next-to-last, final = 
        -2213.31969249       -2213.337339     -2213.33734323
  Force two-norm initial, final = 0.326303 0.00695975
  Force max component initial, final = 0.0551335 0.00051261
  Final line search alpha, max atom move = 0 0
  Iterations, force evaluations = 159 159

Pair  time (%) = 0.141074 (91.0574)
Neigh time (%) = 0 (0)
Comm  time (%) = 0.0012846 (0.829154)
Outpt time (%) = 0.000987291 (0.637254)
Other time (%) = 0.0115829 (7.47624)

Nlocal:    511 ave 511 max 511 min
Histogram: 1 0 0 0 0 0 0 0 0 0
Nghost:    1017 ave 1017 max 1017 min
Histogram: 1 0 0 0 0 0 0 0 0 0
Neighs:    0 ave 0 max 0 min
Histogram: 1 0 0 0 0 0 0 0 0 0
FullNghs:  14256 ave 14256 max 14256 min
Histogram: 1 0 0 0 0 0 0 0 0 0

Total # of neighbors = 14256
Ave neighs/atom = 27.8982
Neighbor list builds = 0
Dangerous builds = 0
Memory usage per processor = 4.28247 Mbytes
Step Temp PotEng pe Press press 
    3059            0   -2213.3373   -2213.3373   -3383.3836    3383.3836 
    3060 3.3924476e-16   -2213.3373   -2213.3373   -3383.3836    3383.3836 
Loop time of 0.00219584 on 1 procs for 1 steps with 511 atoms

Minimization stats:
  Stopping criterion = force tolerance
  Energy initial, next-to-last, final = 
        -2213.33734323     -2213.33734323     -2213.33734323
  Force two-norm initial, final = 0.00695975 0.00695975
  Force max component initial, final = 0.00051261 0.00051261
  Final line search alpha, max atom move = 0 0
  Iterations, force evaluations = 1 1

Pair  time (%) = 0.00197887 (90.1194)
Neigh time (%) = 0 (0)
Comm  time (%) = 1.90735e-05 (0.868621)
Outpt time (%) = 0 (0)
Other time (%) = 0.000197887 (9.01194)

Nlocal:    511 ave 511 max 511 min
Histogram: 1 0 0 0 0 0 0 0 0 0
Nghost:    1017 ave 1017 max 1017 min
Histogram: 1 0 0 0 0 0 0 0 0 0
Neighs:    0 ave 0 max 0 min
Histogram: 1 0 0 0 0 0 0 0 0 0
FullNghs:  14256 ave 14256 max 14256 min
Histogram: 1 0 0 0 0 0 0 0 0 0

Total # of neighbors = 14256
Ave neighs/atom = 27.8982
Neighbor list builds = 0
Dangerous builds = 0
Memory usage per processor = 4.28247 Mbytes
Step Temp PotEng pe Press press 
    2850            0    -2212.763    -2212.763   -3609.4401    3609.4401 
    2860 1.0492307e-09    -2212.763    -2212.763   -3609.4399    3609.4399 
    2870 1.1503796e-08    -2212.763    -2212.763   -3609.4374    3609.4374 
    2880 5.6161438e-08    -2212.763    -2212.763   -3609.4269    3609.4269 
    2890 3.0160525e-07   -2212.7632   -2212.7632   -3609.3691    3609.3691 
    2900 1.1820478e-06   -2212.7637   -2212.7637   -3609.1577    3609.1577 
    2910 5.5202012e-06   -2212.7663   -2212.7663   -3608.0724    3608.0724 
    2920 1.8586085e-05   -2212.7743   -2212.7743   -3604.1308    3604.1308 
    2930 4.4395434e-05   -2212.7916   -2212.7916   -3584.0283    3584.0283 
    2940 3.2225388e-05   -2212.8025   -2212.8025    -3562.734     3562.734 
    2950 3.4003289e-05   -2212.8151   -2212.8151   -3538.9298    3538.9298 
    2960 1.7112983e-05   -2212.8238   -2212.8238   -3536.9584    3536.9584 
    2970 1.137284e-06   -2212.8256   -2212.8256   -3534.0292    3534.0292 
    2980 2.0441535e-06   -2212.8264   -2212.8264   -3536.9608    3536.9608 
    2990 2.7347902e-07   -2212.8268   -2212.8268   -3540.4809    3540.4809 
    3000 6.7523294e-08   -2212.8269   -2212.8269   -3540.3781    3540.3781 
    3010 2.8994981e-07    -2212.827    -2212.827   -3540.4676    3540.4676 
    3020 3.510261e-08   -2212.8271   -2212.8271   -3540.1321    3540.1321 
    3030 7.3206587e-09   -2212.8271   -2212.8271    -3540.113     3540.113 
    3040 3.7709388e-08   -2212.8272   -2212.8272    -3540.033     3540.033 
    3048 1.2552992e-07   -2212.8272   -2212.8272   -3539.7333    3539.7333 
Loop time of 0.195716 on 1 procs for 198 steps with 511 atoms

Minimization stats:
  Stopping criterion = force tolerance
  Energy initial, next-to-last, final = 
        -2212.76298089     -2212.82720184     -2212.82721253
  Force two-norm initial, final = 1.10218 0.00991086
  Force max component initial, final = 0.243689 0.000764141
  Final line search alpha, max atom move = 0 0
  Iterations, force evaluations = 198 198

Pair  time (%) = 0.179228 (91.5756)
Neigh time (%) = 0 (0)
Comm  time (%) = 0.00159526 (0.815089)
Outpt time (%) = 0.00124979 (0.638574)
Other time (%) = 0.0136428 (6.97071)

Nlocal:    511 ave 511 max 511 min
Histogram: 1 0 0 0 0 0 0 0 0 0
Nghost:    1017 ave 1017 max 1017 min
Histogram: 1 0 0 0 0 0 0 0 0 0
Neighs:    0 ave 0 max 0 min
Histogram: 1 0 0 0 0 0 0 0 0 0
FullNghs:  14246 ave 14246 max 14246 min
Histogram: 1 0 0 0 0 0 0 0 0 0

Total # of neighbors = 14246
Ave neighs/atom = 27.8787
Neighbor list builds = 0
Dangerous builds = 0
Memory usage per processor = 4.28247 Mbytes
Step Temp PotEng pe Press press 
    3048            0   -2212.8272   -2212.8272   -3539.7333    3539.7333 
    3050 2.8506689e-15   -2212.8272   -2212.8272   -3539.7333    3539.7333 
    3060 1.4957316e-13   -2212.8272   -2212.8272   -3539.7333    3539.7333 
    3070 1.4028572e-12   -2212.8272   -2212.8272   -3539.7333    3539.7333 
    3080 6.4845726e-12   -2212.8272   -2212.8272   -3539.7333    3539.7333 
    3090 3.4552569e-11   -2212.8272   -2212.8272   -3539.7332    3539.7332 
    3100 1.3374305e-10   -2212.8272   -2212.8272   -3539.7329    3539.7329 
    3110 6.4760731e-10   -2212.8272   -2212.8272   -3539.7312    3539.7312 
    3115 1.2097023e-09   -2212.8272   -2212.8272   -3539.7293    3539.7293 
Loop time of 0.0674729 on 1 procs for 67 steps with 511 atoms

Minimization stats:
  Stopping criterion = force tolerance
  Energy initial, next-to-last, final = 
        -2212.82721253     -2212.82721314     -2212.82721322
  Force two-norm initial, final = 0.0100874 0.00999068
  Force max component initial, final = 0.000875964 0.000863406
  Final line search alpha, max atom move = 0 0
  Iterations, force evaluations = 67 67

Pair  time (%) = 0.0617516 (91.5206)
Neigh time (%) = 0 (0)
Comm  time (%) = 0.000549316 (0.814129)
Outpt time (%) = 0.000459433 (0.680914)
Other time (%) = 0.00471258 (6.9844)

Nlocal:    511 ave 511 max 511 min
Histogram: 1 0 0 0 0 0 0 0 0 0
Nghost:    1017 ave 1017 max 1017 min
Histogram: 1 0 0 0 0 0 0 0 0 0
Neighs:    0 ave 0 max 0 min
Histogram: 1 0 0 0 0 0 0 0 0 0
FullNghs:  14250 ave 14250 max 14250 min
Histogram: 1 0 0 0 0 0 0 0 0 0

Total # of neighbors = 14250
Ave neighs/atom = 27.8865
Neighbor list builds = 0
Dangerous builds = 0
Memory usage per processor = 4.28247 Mbytes
Step Temp PotEng pe Press press 
    2900            0   -2213.3262   -2213.3262   -3389.4062    3389.4062 
    2910 5.9991503e-11   -2213.3262   -2213.3262   -3389.4061    3389.4061 
    2920 6.5775441e-10   -2213.3262   -2213.3262   -3389.4054    3389.4054 
    2930 3.2112495e-09   -2213.3262   -2213.3262   -3389.4021    3389.4021 
    2940 1.7248963e-08   -2213.3262   -2213.3262   -3389.3845    3389.3845 
    2950 6.764087e-08   -2213.3263   -2213.3263   -3389.3202    3389.3202 
    2960 3.1710654e-07   -2213.3264   -2213.3264   -3388.9968    3388.9968 
    2970 1.0803082e-06   -2213.3269   -2213.3269    -3387.915     3387.915 
    2980 3.1663785e-06   -2213.3283   -2213.3283   -3383.9522    3383.9522 
    2990 5.7913122e-06   -2213.3306   -2213.3306   -3384.0264    3384.0264 
    3000 1.0918104e-05   -2213.3353   -2213.3353   -3382.2259    3382.2259 
    3010 5.5366342e-07   -2213.3371   -2213.3371   -3380.4443    3380.4443 
    3020 8.0612635e-08   -2213.3373   -2213.3373   -3383.4244    3383.4244 
    3030 1.1962461e-07   -2213.3374   -2213.3374   -3383.5351    3383.5351 
    3040 1.2661151e-08   -2213.3374   -2213.3374   -3383.3305    3383.3305 
    3050 2.3666466e-08   -2213.3374   -2213.3374   -3383.4909    3383.4909 
    3052 3.1581381e-08   -2213.3374   -2213.3374   -3383.4589    3383.4589 
Loop time of 0.152909 on 1 procs for 152 steps with 511 atoms

Minimization stats:
  Stopping criterion = force tolerance
  Energy initial, next-to-last, final = 
         -2213.3262134     -2213.33737531     -2213.33737831
  Force two-norm initial, final = 0.263548 0.00525831
  Force max component initial, final = 0.043439 0.000504567
  Final line search alpha, max atom move = 0 0
  Iterations, force evaluations = 152 152

Pair  time (%) = 0.139029 (90.9227)
Neigh time (%) = 0 (0)
Comm  time (%) = 0.00123119 (0.80518)
Outpt time (%) = 0.000988483 (0.646452)
Other time (%) = 0.0116603 (7.62567)

Nlocal:    511 ave 511 max 511 min
Histogram: 1 0 0 0 0 0 0 0 0 0
Nghost:    1017 ave 1017 max 1017 min
Histogram: 1 0 0 0 0 0 0 0 0 0
Neighs:    0 ave 0 max 0 min
Histogram: 1 0 0 0 0 0 0 0 0 0
FullNghs:  14256 ave 14256 max 14256 min
Histogram: 1 0 0 0 0 0 0 0 0 0

Total # of neighbors = 14256
Ave neighs/atom = 27.8982
Neighbor list builds = 0
Dangerous builds = 0
Memory usage per processor = 4.28247 Mbytes
Step Temp PotEng pe Press press 
    3052            0   -2213.3374   -2213.3374   -3383.4589    3383.4589 
    3053 1.9365056e-16   -2213.3374   -2213.3374   -3383.4589    3383.4589 
Loop time of 0.0020771 on 1 procs for 1 steps with 511 atoms

Minimization stats:
  Stopping criterion = force tolerance
  Energy initial, next-to-last, final = 
        -2213.33737831     -2213.33737831     -2213.33737831
  Force two-norm initial, final = 0.00525831 0.00525831
  Force max component initial, final = 0.000504567 0.000504567
  Final line search alpha, max atom move = 0 0
  Iterations, force evaluations = 1 1

Pair  time (%) = 0.00185108 (89.1185)
Neigh time (%) = 0 (0)
Comm  time (%) = 1.45435e-05 (0.700184)
Outpt time (%) = 0 (0)
Other time (%) = 0.000211477 (10.1814)

Nlocal:    511 ave 511 max 511 min
Histogram: 1 0 0 0 0 0 0 0 0 0
Nghost:    1017 ave 1017 max 1017 min
Histogram: 1 0 0 0 0 0 0 0 0 0
Neighs:    0 ave 0 max 0 min
Histogram: 1 0 0 0 0 0 0 0 0 0
FullNghs:  14256 ave 14256 max 14256 min
Histogram: 1 0 0 0 0 0 0 0 0 0

Total # of neighbors = 14256
Ave neighs/atom = 27.8982
Neighbor list builds = 0
Dangerous builds = 0
Memory usage per processor = 4.28247 Mbytes
Step Temp PotEng pe Press press 
    2950            0   -2213.3243   -2213.3243   -3390.9473    3390.9473 
    2960 1.184482e-10   -2213.3243   -2213.3243   -3390.9472    3390.9472 
    2970 1.2986599e-09   -2213.3243   -2213.3243   -3390.9464    3390.9464 
    2980 6.3397771e-09   -2213.3243   -2213.3243   -3390.9427    3390.9427 
    2990 3.4039953e-08   -2213.3243   -2213.3243   -3390.9229    3390.9229 
    3000 1.3328801e-07   -2213.3243   -2213.3243   -3390.8507    3390.8507 
    3010 6.2010031e-07   -2213.3246   -2213.3246   -3390.4858    3390.4858 
    3020 2.0510181e-06   -2213.3255   -2213.3255   -3389.2402    3389.2402 
    3030 4.7691708e-06   -2213.3275   -2213.3275   -3384.3457    3384.3457 
    3040 6.5801376e-06     -2213.33     -2213.33   -3383.6828    3383.6828 
    3050 1.0950952e-05   -2213.3349   -2213.3349   -3381.8089    3381.8089 
    3060 1.5763877e-06   -2213.3369   -2213.3369   -3383.7634    3383.7634 
    3070 1.7574687e-07    -2213.337    -2213.337   -3383.4546    3383.4546 
    3080 3.5316683e-07   -2213.3371   -2213.3371   -3383.4189    3383.4189 
    3090 4.7320042e-08   -2213.3373   -2213.3373   -3383.3601    3383.3601 
    3100 1.2395149e-08   -2213.3373   -2213.3373   -3383.4087    3383.4087 
    3110 4.9636984e-08   -2213.3373   -2213.3373   -3383.3937    3383.3937 
    3120 1.1899935e-07   -2213.3374   -2213.3374   -3383.3788    3383.3788 
    3125 3.1641557e-08   -2213.3374   -2213.3374   -3383.4002    3383.4002 
Loop time of 0.171276 on 1 procs for 175 steps with 511 atoms

Minimization stats:
  Stopping criterion = force tolerance
  Energy initial, next-to-last, final = 
        -2213.32425052     -2213.33737124     -2213.33737471
  Force two-norm initial, final = 0.370323 0.00545406
  Force max component initial, final = 0.0384054 0.000453125
  Final line search alpha, max atom move = 0 0
  Iterations, force evaluations = 175 175

Pair  time (%) = 0.154355 (90.1205)
Neigh time (%) = 0 (0)
Comm  time (%) = 0.00139642 (0.815302)
Outpt time (%) = 0.00110745 (0.64659)
Other time (%) = 0.0144174 (8.41764)

Nlocal:    511 ave 511 max 511 min
Histogram: 1 0 0 0 0 0 0 0 0 0
Nghost:    1017 ave 1017 max 1017 min
Histogram: 1 0 0 0 0 0 0 0 0 0
Neighs:    0 ave 0 max 0 min
Histogram: 1 0 0 0 0 0 0 0 0 0
FullNghs:  14256 ave 14256 max 14256 min
Histogram: 1 0 0 0 0 0 0 0 0 0

Total # of neighbors = 14256
Ave neighs/atom = 27.8982
Neighbor list builds = 0
Dangerous builds = 0
Memory usage per processor = 4.28247 Mbytes
Step Temp PotEng pe Press press 
    3125            0   -2213.3374   -2213.3374   -3383.4002    3383.4002 
    3126 2.0833675e-16   -2213.3374   -2213.3374   -3383.4002    3383.4002 
Loop time of 0.00207901 on 1 procs for 1 steps with 511 atoms

Minimization stats:
  Stopping criterion = force tolerance
  Energy initial, next-to-last, final = 
        -2213.33737471     -2213.33737471     -2213.33737471
  Force two-norm initial, final = 0.00545406 0.00545406
  Force max component initial, final = 0.000453125 0.000453125
  Final line search alpha, max atom move = 0 0
  Iterations, force evaluations = 1 1

Pair  time (%) = 0.00185227 (89.094)
Neigh time (%) = 0 (0)
Comm  time (%) = 1.66893e-05 (0.802752)
Outpt time (%) = 0 (0)
Other time (%) = 0.000210047 (10.1032)

Nlocal:    511 ave 511 max 511 min
Histogram: 1 0 0 0 0 0 0 0 0 0
Nghost:    1017 ave 1017 max 1017 min
Histogram: 1 0 0 0 0 0 0 0 0 0
Neighs:    0 ave 0 max 0 min
Histogram: 1 0 0 0 0 0 0 0 0 0
FullNghs:  14256 ave 14256 max 14256 min
Histogram: 1 0 0 0 0 0 0 0 0 0

Total # of neighbors = 14256
Ave neighs/atom = 27.8982
Neighbor list builds = 0
Dangerous builds = 0
Memory usage per processor = 4.28247 Mbytes
Step Temp PotEng pe Press press 
    3000            0   -2213.3211   -2213.3211   -3392.4563    3392.4563 
    3010 1.3626675e-10   -2213.3211   -2213.3211   -3392.4563    3392.4563 
    3020 1.4940133e-09   -2213.3211   -2213.3211   -3392.4553    3392.4553 
    3030 7.2932656e-09   -2213.3211   -2213.3211   -3392.4511    3392.4511 
    3040 3.9154112e-08   -2213.3211   -2213.3211   -3392.4283    3392.4283 
    3050 1.5323391e-07   -2213.3212   -2213.3212   -3392.3451    3392.3451 
    3060 7.1101167e-07   -2213.3215   -2213.3215   -3391.9246    3391.9246 
    3070 2.326522e-06   -2213.3225   -2213.3225   -3390.4871    3390.4871 
    3080 4.882061e-06   -2213.3245   -2213.3245   -3384.8546    3384.8546 
    3090 6.7174193e-06   -2213.3272   -2213.3272   -3384.4494    3384.4494 
    3100 1.4327697e-05   -2213.3338   -2213.3338   -3381.1908    3381.1908 
    3110 1.9900872e-06   -2213.3368   -2213.3368   -3383.5927    3383.5927 
    3120 2.0810268e-07   -2213.3368   -2213.3368   -3383.1998    3383.1998 
    3130 4.2449745e-07    -2213.337    -2213.337   -3383.3207    3383.3207 
    3140 9.9993671e-07   -2213.3372   -2213.3372   -3383.6979    3383.6979 
    3150 8.7628341e-09   -2213.3373   -2213.3373   -3383.4559    3383.4559 
    3160 3.9380468e-08   -2213.3374   -2213.3374   -3383.4155    3383.4155 
    3170 8.9346972e-09   -2213.3374   -2213.3374   -3383.3487    3383.3487 
    3172 2.6114415e-08   -2213.3374   -2213.3374   -3383.3759    3383.3759 
Loop time of 0.169301 on 1 procs for 172 steps with 511 atoms

Minimization stats:
  Stopping criterion = force tolerance
  Energy initial, next-to-last, final = 
        -2213.32111072     -2213.33737674     -2213.33737958
  Force two-norm initial, final = 0.397202 0.00546314
  Force max component initial, final = 0.0607124 0.000459025
  Final line search alpha, max atom move = 0 0
  Iterations, force evaluations = 172 172

Pair  time (%) = 0.152452 (90.0482)
Neigh time (%) = 0 (0)
Comm  time (%) = 0.00146413 (0.864808)
Outpt time (%) = 0.0011549 (0.682157)
Other time (%) = 0.0142295 (8.40487)

Nlocal:    511 ave 511 max 511 min
Histogram: 1 0 0 0 0 0 0 0 0 0
Nghost:    1017 ave 1017 max 1017 min
Histogram: 1 0 0 0 0 0 0 0 0 0
Neighs:    0 ave 0 max 0 min
Histogram: 1 0 0 0 0 0 0 0 0 0
FullNghs:  14256 ave 14256 max 14256 min
Histogram: 1 0 0 0 0 0 0 0 0 0

Total # of neighbors = 14256
Ave neighs/atom = 27.8982
Neighbor list builds = 0
Dangerous builds = 0
Memory usage per processor = 4.28247 Mbytes
Step Temp PotEng pe Press press 
    3172            0   -2213.3374   -2213.3374   -3383.3759    3383.3759 
    3173 2.090311e-16   -2213.3374   -2213.3374   -3383.3759    3383.3759 
Loop time of 0.002141 on 1 procs for 1 steps with 511 atoms

Minimization stats:
  Stopping criterion = force tolerance
  Energy initial, next-to-last, final = 
        -2213.33737958     -2213.33737958     -2213.33737958
  Force two-norm initial, final = 0.00546314 0.00546314
  Force max component initial, final = 0.000459025 0.000459025
  Final line search alpha, max atom move = 0 0
  Iterations, force evaluations = 1 1

Pair  time (%) = 0.00192499 (89.9109)
Neigh time (%) = 0 (0)
Comm  time (%) = 1.52588e-05 (0.712695)
Outpt time (%) = 0 (0)
Other time (%) = 0.000200748 (9.37639)

Nlocal:    511 ave 511 max 511 min
Histogram: 1 0 0 0 0 0 0 0 0 0
Nghost:    1017 ave 1017 max 1017 min
Histogram: 1 0 0 0 0 0 0 0 0 0
Neighs:    0 ave 0 max 0 min
Histogram: 1 0 0 0 0 0 0 0 0 0
FullNghs:  14256 ave 14256 max 14256 min
Histogram: 1 0 0 0 0 0 0 0 0 0

Total # of neighbors = 14256
Ave neighs/atom = 27.8982
Neighbor list builds = 0
Dangerous builds = 0
Loop time of 39.1789 on 1 procs for 22 steps with 511 atoms

TAD stats:
  NEB      time (%) = 18.1759 (46.3922)
  Dynamics time (%) = 0 (0)
  Quench   time (%) = 0 (0)
  Comm     time (%) = 0 (0)
  Output   time (%) = 0 (0)
  Other    time (%) = 21.0029 (53.6078)

Nlocal:    511 ave 511 max 511 min
Histogram: 1 0 0 0 0 0 0 0 0 0
Nghost:    1017 ave 1017 max 1017 min
Histogram: 1 0 0 0 0 0 0 0 0 0
Neighs:    0 ave 0 max 0 min
Histogram: 1 0 0 0 0 0 0 0 0 0
FullNghs:  14256 ave 14256 max 14256 min
Histogram: 1 0 0 0 0 0 0 0 0 0

Total # of neighbors = 14256
Ave neighs/atom = 27.8982
Neighbor list builds = 0
Dangerous builds = 0
