LAMMPS (8 Jan 2011)
Running on 3 partitions of processors
Step CPU Clock Event 
1000 0.000 0.000 0
1550 13.834 1251.448 1
1650 18.730 1478.980 2
1850 25.227 1934.033 3
1950 30.512 2161.574 4
2250 41.403 2844.185 5
Loop time of 47.5346 on 3 procs for 2000 steps with 0 atoms
