LAMMPS (6 Feb 2012-ICMS)
  using 1 OpenMP thread(s) per MPI task
# helium

units		metal
atom_style	atomic

lattice		fcc 10.0
Lattice spacing in x,y,z = 10 10 10
region		box block 0 20 0 20 0 20
create_box	1 box
Created orthogonal box = (0 0 0) to (200 200 200)
  1 by 1 by 1 MPI processor grid
create_atoms	1 box
Created 32000 atoms
mass		1 4.0

velocity	all create 300.0 87287 loop geom mom yes

pair_style beck 14.0
pair_coeff * * 399.671876712 0.0000867636112694 0.675 4.390 0.0003746
pair_modify shift yes

neighbor	1.8 bin
neigh_modify  delay 5 every 1 

fix		1 all nve

thermo 10

run		100
Memory usage per processor = 12.9421 Mbytes
Step Temp E_pair E_mol TotEng Press 
       0          300 -0.00015876492            0    1240.8585    165.67281 
      10          300 -0.00015958098            0    1240.8585    165.67281 
      20          300 -0.00016172264            0    1240.8585    165.67281 
      30          300 -0.00016491742            0    1240.8585    165.67281 
      40          300 -0.00016941932            0    1240.8585    165.67281 
      50          300 -0.00017546304            0    1240.8585    165.67281 
      60    300.00001 -0.00018332892            0    1240.8585     165.6728 
      70    300.00001 -0.00019292456            0    1240.8585     165.6728 
      80    300.00001 -0.00019591695            0    1240.8585    165.67282 
      90    299.99999 -9.8548084e-05            0    1240.8585    165.67304 
     100    299.99977 0.00079106563            0    1240.8585    165.67442 
Loop time of 5.5093 on 1 procs (1 MPI x 1 OpenMP) for 100 steps with 32000 atoms
Performance: 1.568 ns/day  15.304 hours/ns  18.151 timesteps/s

Section |  min time  |  avg time  |  max time  |%total |  #Thr
--------------------------------------------------------------
Pair    | 5.305      | 5.305      | 5.305      | 96.29 |  1.0x
Neigh   | 0.1004     | 0.1004     | 0.1004     |  1.82 |  1.0x
Comm    | 0.02212    | 0.02212    | 0.02212    |  0.40 |  0.9x
Output  | 0.001415   | 0.001415   | 0.001415   |  0.03 |  1.0x
Modify  | 0.04713    | 0.04713    | 0.04713    |  0.86 |  0.9x
Other   |            | 0.03358    |            |  0.61 |

Nlocal:    32000 ave 32000 max 32000 min
Histogram: 1 0 0 0 0 0 0 0 0 0
Nghost:    19093 ave 19093 max 19093 min
Histogram: 1 0 0 0 0 0 0 0 0 0
Neighs:    1.04508e+06 ave 1.04508e+06 max 1.04508e+06 min
Histogram: 1 0 0 0 0 0 0 0 0 0

Total # of neighbors = 1045079
Ave neighs/atom = 32.6587
Neighbor list builds = 2
Dangerous builds = 0
