ITEM: TIMESTEP
0
ITEM: NUMBER OF ATOMS
32
ITEM: BOX BOUNDS pp pp ff
0.0000000000000000e+00 4.0000000000000000e+01
0.0000000000000000e+00 4.0000000000000000e+01
0.0000000000000000e+00 4.0000000000000000e+01
ITEM: ATOMS id x y z vx vy vz
187 26.6309 26.6387 20.9623 0 0 0
125 24.6582 26.0898 21.6598 0 0 0
156 25.7401 26.9511 22.0433 0 0 0
218 27.7333 27.3399 21.5562 0 0 0
1 21.0439 24.2646 23.1337 0 0 0
63 22.5101 25.4302 22.2914 0 0 0
94 23.895 25.0537 22.2951 0 0 0
280 26.9358 26.2738 22.9979 0 0 0
249 28.2741 26.7179 22.7311 0 0 0
311 27.733 25.5139 23.9181 0 0 0
32 21.5789 25.5745 23.3738 0 0 0
342 28.8712 25.1256 24.7012 0 0 0
373 30.0053 25.4778 25.507 0 0 0
404 29.8427 26.8721 25.2081 0 0 0
435 29.3789 27.6387 26.3292 0 0 0
466 28.587 28.4661 27.194 0 0 0
528 28.7548 27.1277 28.2749 0 0 0
683 32.1926 27.1371 28.1123 0 0 0
497 27.6135 27.9861 28.1329 0 0 0
652 31.3008 28.2326 28.3655 0 0 0
714 33.0167 26.5192 29.1116 0 0 0
559 29.3703 27.681 29.4473 0 0 0
590 30.1317 28.895 29.3698 0 0 0
621 31.4259 29.456 29.1053 0 0 0
745 33.3109 26.7605 30.4953 0 0 0
776 32.6296 27.0741 31.7189 0 0 0
838 30.3399 27.7351 32.7342 0 0 0
807 31.7049 27.9673 32.3567 0 0 0
962 29.9072 26.1623 34.144 0 0 0
869 29.8305 28.063 34.0352 0 0 0
931 30.9967 26.7242 34.8903 0 0 0
900 30.2349 27.8319 35.3927 0 0 0
ITEM: TIMESTEP
10
ITEM: NUMBER OF ATOMS
32
ITEM: BOX BOUNDS pp pp ff
0.0000000000000000e+00 4.0000000000000000e+01
0.0000000000000000e+00 4.0000000000000000e+01
0.0000000000000000e+00 4.0000000000000000e+01
ITEM: ATOMS id x y z vx vy vz
187 26.5885 26.6679 20.9607 -80.3543 -39.4657 -10.9157
125 24.587 26.0992 21.6406 -63.3124 23.4542 16.217
156 25.6933 26.9888 22.0266 -61.591 33.0447 -4.68591
218 27.7373 27.3383 21.5533 -111.359 -36.512 46.1586
1 21.0485 24.2507 23.1341 15.3178 62.343 -23.5361
63 22.481 25.4155 22.2686 -63.5424 55.7479 -90.3623
94 23.8765 25.0211 22.2913 -87.5802 -177.165 14.5928
280 26.8912 26.2898 22.944 17.6915 -49.7189 33.9685
249 28.2639 26.6959 22.745 -39.0635 -106.232 45.3709
311 27.6589 25.5321 23.9633 -34.3017 16.8467 83.2524
32 21.5953 25.6132 23.3804 -100.828 22.2851 -73.8508
342 28.8036 25.1414 24.7261 -25.2765 -0.58676 70.9472
373 29.9844 25.4844 25.5213 11.2984 -103.921 85.1997
404 29.7662 26.8993 25.2237 -138.113 -3.31875 24.5077
435 29.3318 27.649 26.3306 -99.5745 14.936 -86.8839
466 28.5487 28.4646 27.2223 -143.44 -0.308769 -28.4896
528 28.702 27.1017 28.2835 -76.6125 -0.827897 -8.38069
683 32.1034 27.1417 28.0985 -5.6798 -3.63148 19.3201
497 27.565 27.9609 28.1188 -197.441 57.8777 13.8856
652 31.2281 28.2482 28.4183 -121.291 24.2419 115.49
714 32.932 26.5063 29.1306 -15.3036 -88.2238 104.94
559 29.3222 27.6717 29.4455 -142.079 -26.6118 -29.1228
590 30.0763 28.9081 29.375 -138.184 -7.24442 7.95225
621 31.3507 29.4873 29.1455 -76.3373 -23.4527 22.6234
745 33.2524 26.8057 30.5333 -136.396 27.2238 56.867
776 32.5623 27.0594 31.7272 -183.634 -44.8486 18.7781
838 30.2208 27.7815 32.6861 -218.147 135.743 10.7469
807 31.5997 27.9859 32.3948 -65.6301 -29.2218 75.7984
962 29.8524 26.1652 34.1649 4.35133 10.4022 26.3399
869 29.756 28.0813 34.0031 -156.025 10.0666 1.66049
931 30.9384 26.7207 34.8894 -74.2147 -46.9538 104.585
900 30.2073 27.8354 35.4031 -94.9465 -47.0113 81.658
ITEM: TIMESTEP
20
ITEM: NUMBER OF ATOMS
32
ITEM: BOX BOUNDS pp pp ff
0.0000000000000000e+00 4.0000000000000000e+01
0.0000000000000000e+00 4.0000000000000000e+01
0.0000000000000000e+00 4.0000000000000000e+01
ITEM: ATOMS id x y z vx vy vz
187 26.5203 26.6579 20.9439 -95.4268 -1.23525 2.47711
125 24.5353 26.0835 21.5766 -20.3265 -25.4953 -11.1685
156 25.5845 26.9525 22.0186 -92.6639 -64.6637 5.49313
218 27.6853 27.2999 21.5439 -63.231 -39.0949 119.409
1 21.0751 24.2142 23.103 -83.812 -43.8067 -150.454
63 22.4557 25.4513 22.2353 3.67616 63.2001 -14.6431
94 23.808 25.0222 22.2254 33.9331 -6.99861 -57.396
280 26.7507 26.2577 22.989 -132.773 0.94216 -39.5305
249 28.1524 26.6361 22.756 -70.0704 5.26078 -26.2113
311 27.5257 25.5171 23.9887 -96.2461 -11.7363 -41.826
32 21.5361 25.5658 23.3533 -9.52478 20.8091 -17.6882
342 28.7157 25.1423 24.7331 -159.713 14.8147 -30.2883
373 29.8887 25.4974 25.4587 -154.869 -70.9136 -96.6959
404 29.6141 26.905 25.2216 -102.172 25.9556 -151.035
435 29.1884 27.6554 26.362 -135.932 35.7864 43.0564
466 28.4199 28.4744 27.2023 -160.549 26.4697 -69.597
528 28.5428 27.144 28.2522 -144.052 3.57456 12.0722
683 31.9504 27.1831 28.1207 -104.699 70.0745 32.407
497 27.4092 28.0365 28.1011 -156.648 113.51 -130.606
652 31.0544 28.2368 28.4537 -247.301 7.3893 1.69634
714 32.8309 26.5361 29.1013 -83.756 -26.8187 -2.61428
559 29.1938 27.6609 29.4587 -140.225 -22.2049 62.4073
590 29.927 28.9056 29.396 -216.201 -15.9206 3.482
621 31.2602 29.4991 29.1831 -86.2588 -65.9633 34.7429
745 33.1225 26.8656 30.4985 -154.886 25.8292 -141.123
776 32.4633 27.0477 31.7306 -120.782 -34.7513 -0.200252
838 30.0603 27.7943 32.7815 -135.768 0.109235 73.4872
807 31.5038 27.9548 32.4071 -191.063 -7.31048 44.857
962 29.7764 26.0991 34.255 -156.941 -95.841 51.6057
869 29.5653 28.0681 34.0975 -188.544 -51.1469 137.746
931 30.8434 26.7575 34.8904 -199.357 84.3253 -62.7627
900 30.0806 27.7992 35.4561 -128.831 12.9769 -14.9666
ITEM: TIMESTEP
30
ITEM: NUMBER OF ATOMS
32
ITEM: BOX BOUNDS pp pp ff
0.0000000000000000e+00 4.0000000000000000e+01
0.0000000000000000e+00 4.0000000000000000e+01
0.0000000000000000e+00 4.0000000000000000e+01
ITEM: ATOMS id x y z vx vy vz
187 26.4065 26.6503 20.9455 -173.537 75.6696 -50.1921
125 24.4142 26.0237 21.5394 -164.448 -105.13 -224.228
156 25.4374 26.964 21.9614 -163.794 84.9312 -130.165
218 27.5685 27.3223 21.5798 -219.718 -27.5967 -39.0107
1 21.059 24.2209 23.0926 59.3576 -74.6054 51.1999
63 22.3993 25.4662 22.2069 -16.9751 63.9834 -43.9781
94 23.6455 24.9569 22.19 -73.7688 -49.5786 -62.8335
280 26.6312 26.2899 22.9419 -179.593 57.9022 -47.7029
249 28.0562 26.7062 22.7319 -244.085 -3.51175 -7.02239
311 27.3651 25.5606 23.9073 -145.759 13.8956 82.9033
32 21.4919 25.5849 23.3148 -56.1095 -6.55253 -66.6104
342 28.5159 25.1415 24.7355 -146.277 31.3863 -22.6586
373 29.7533 25.5115 25.3899 -212.917 9.23306 -115.823
404 29.4938 26.9106 25.2013 -212.637 66.0709 -51.2789
435 29.0551 27.6271 26.3657 -210.847 -63.7785 -82.8015
466 28.2665 28.5146 27.1853 -113.78 -2.56561 -173.257
528 28.3423 27.1793 28.2596 -270.808 -15.4045 -90.6714
683 31.7512 27.1431 28.121 -221.989 -141.075 -9.06371
497 27.2559 28.1004 28.0574 -193.275 13.7493 -27.788
652 30.7693 28.2349 28.4168 -240.138 -26.4603 66.5218
714 32.6686 26.5272 29.0533 -119.899 19.8337 62.3011
559 28.9759 27.6543 29.4373 -221.403 -3.38175 -14.5181
590 29.7332 28.939 29.3774 -213.033 71.9954 29.0086
621 31.1033 29.4431 29.1846 -216.254 -59.9654 -10.375
745 32.8916 26.8724 30.4342 -308.471 14.7584 140.17
776 32.2704 27.1405 31.7302 -183.742 -12.0571 16.1342
838 29.8905 27.7993 32.8675 -123.862 42.1926 -13.0004
807 31.3154 28.0063 32.4846 -107.236 148.386 61.1489
962 29.5655 26.0398 34.2465 -220.642 -120.131 5.87167
869 29.3878 28.0632 34.203 -248.522 -54.3517 210.548
931 30.6503 26.6815 34.8823 -235.715 -19.8721 49.7503
900 29.9531 27.7756 35.4629 -110.994 -38.6334 72.213
ITEM: TIMESTEP
40
ITEM: NUMBER OF ATOMS
32
ITEM: BOX BOUNDS pp pp ff
0.0000000000000000e+00 4.0000000000000000e+01
0.0000000000000000e+00 4.0000000000000000e+01
0.0000000000000000e+00 4.0000000000000000e+01
ITEM: ATOMS id x y z vx vy vz
187 26.2878 26.6807 20.9478 -16.286 84.2345 -23.8227
125 24.3439 25.9686 21.4639 -100.815 -57.1776 -66.2907
156 25.2589 26.9857 21.9048 -212.948 27.7504 -24.7364
218 27.4312 27.2927 21.5925 -130.937 -14.3458 -64.146
1 21.027 24.2169 23.071 -116.111 -56.2631 -83.232
63 22.358 25.497 22.1902 -28.4462 6.30178 74.0916
94 23.6154 24.8869 22.2336 -78.4452 -73.2308 -63.4585
280 26.4356 26.2763 22.9427 -93.1296 -94.6819 -17.8725
249 27.9162 26.6882 22.7756 -228.434 -139.433 -99.6863
311 27.2218 25.5638 23.8936 -183.636 19.7968 -29.054
32 21.4688 25.5717 23.2874 -76.3288 -79.4587 105.746
342 28.3225 25.1127 24.6386 -189.854 -28.3649 -114.015
373 29.5253 25.5129 25.3978 -324.807 -40.1371 -3.89028
404 29.2692 26.9148 25.1421 -169.383 -69.5502 43.7844
435 28.8905 27.569 26.3449 -254.639 -47.159 -86.2762
466 28.1066 28.5233 27.1005 -199.505 -78.5437 -125.841
528 28.1246 27.2101 28.2162 -356.573 -22.068 -173.828
683 31.5504 27.1212 28.0874 -154.539 12.157 82.5344
497 27.0225 28.1563 28.011 -218.995 19.7233 -10.2257
652 30.5514 28.245 28.3995 -238.265 46.1667 -78.0493
714 32.4487 26.5081 29.0957 -145.373 -59.9701 46.9132
559 28.8275 27.6933 29.3803 -236.105 2.81966 34.6596
590 29.526 28.97 29.3459 -283.639 -7.93641 -125.007
621 30.9185 29.4958 29.1818 -166.357 64.8803 75.2858
745 32.637 26.9026 30.4787 -200.193 -92.1917 -42.8558
776 32.045 27.2226 31.8171 -227.123 -35.3248 -61.6219
838 29.7605 27.7671 32.9436 -207.32 -43.9853 41.9342
807 31.1247 28.0665 32.5312 -214.736 0.44972 119.411
962 29.3933 25.9981 34.2938 -149.836 -64.169 1.97541
869 29.1889 28.0162 34.3035 -250.157 42.7748 -53.7147
931 30.5206 26.65 34.8899 -161.226 -47.8517 29.6535
900 29.8046 27.7502 35.5786 -80.7674 -20.5817 -12.3952
ITEM: TIMESTEP
50
ITEM: NUMBER OF ATOMS
32
ITEM: BOX BOUNDS pp pp ff
0.0000000000000000e+00 4.0000000000000000e+01
0.0000000000000000e+00 4.0000000000000000e+01
0.0000000000000000e+00 4.0000000000000000e+01
ITEM: ATOMS id x y z vx vy vz
187 26.0903 26.6905 20.9544 -257.736 -50.2394 12.5052
125 24.2326 25.9355 21.3707 -81.1345 -82.9241 -2.28933
156 25.0821 26.9682 21.9136 -119.461 17.5338 21.0142
218 27.285 27.3334 21.5869 -307.689 -22.4804 -65.2264
1 20.9406 24.1807 23.0643 -256.979 46.825 54.9821
63 22.2966 25.4565 22.1762 -87.8535 42.3315 0.387699
94 23.5408 24.8717 22.1576 -92.9712 -70.0151 -121.083
280 26.2923 26.2705 22.9177 -154.752 -3.19959 -45.5396
249 27.7264 26.6935 22.7338 -237.838 -41.496 -51.7897
311 26.9603 25.5169 23.9085 -161.481 -28.2888 -11.1567
32 21.4002 25.577 23.3335 -144.526 -28.7624 -7.51394
342 28.1171 25.0289 24.5786 -125.565 -197.257 -15.2342
373 29.3145 25.4758 25.3412 -145.999 -10.1985 -93.2194
404 29.1215 26.9124 25.1264 -167.401 -26.9293 17.4759
435 28.6226 27.5574 26.3065 -225.926 -24.3573 -66.7216
466 27.869 28.4898 27.057 -161.662 45.5373 5.24813
528 27.8312 27.258 28.1727 -398.465 -5.29963 78.2614
683 31.3068 27.1511 28.0747 -246.167 34.9595 -44.5298
497 26.7802 28.1921 27.96 -203.283 65.4352 56.3806
652 30.2755 28.2507 28.3574 -346.857 -53.7158 -211.772
714 32.2047 26.5291 29.0766 -296.089 -7.48465 103.939
559 28.5339 27.7622 29.3439 -351.077 -1.20557 -28.8977
590 29.302 29.0253 29.3156 -291.629 136.792 -148.544
621 30.6747 29.4475 29.109 -259.8 27.9228 -104.734
745 32.3614 26.9148 30.5028 -300.924 -22.7148 64.9658
776 31.7795 27.2956 31.7979 -285.721 123.994 -3.68256
838 29.5307 27.8115 33.0298 -239.415 -31.4386 -35.712
807 30.9138 28.0663 32.6081 -210.154 48.1604 65.5514
962 29.2357 25.9565 34.2974 -148.218 35.5261 -19.9666
869 28.9878 28.009 34.3522 -237.927 -11.1875 -6.75952
931 30.3291 26.6612 34.8863 -114.643 -13.6359 43.7485
900 29.6484 27.8022 35.6068 -203.659 19.3202 -19.0408
ITEM: TIMESTEP
60
ITEM: NUMBER OF ATOMS
32
ITEM: BOX BOUNDS pp pp ff
0.0000000000000000e+00 4.0000000000000000e+01
0.0000000000000000e+00 4.0000000000000000e+01
0.0000000000000000e+00 4.0000000000000000e+01
ITEM: ATOMS id x y z vx vy vz
187 25.9152 26.6808 20.9028 -275.702 33.0643 35.5016
125 24.0666 25.9076 21.3726 -113.775 18.7128 54.1507
156 24.9133 26.9591 21.9082 -209.655 27.2609 -37.2866
218 27.1149 27.3236 21.5172 -170.957 9.86406 -23.0219
1 20.8628 24.174 23.0593 -90.2488 -51.3907 -82.6402
63 22.1797 25.422 22.1554 -152.916 121.484 -35.6732
94 23.4614 24.8375 22.1137 -172.428 -29.393 -9.58629
280 26.1242 26.2451 22.9193 -137.988 43.5244 10.7127
249 27.5226 26.7042 22.7025 -187.591 129.074 -112.935
311 26.8085 25.4674 23.9432 -197.631 22.9478 56.1419
32 21.2995 25.5455 23.2851 -123.981 56.9022 -118.285
342 27.9423 25.0001 24.5778 -214.841 -76.6811 100.04
373 29.0925 25.4702 25.3005 -263.481 -83.0957 -6.37808
404 28.9009 26.8427 25.1243 -228.055 -29.7763 45.1863
435 28.4548 27.5292 26.2938 -187.189 127.035 -24.5401
466 27.6403 28.4984 26.976 -196.13 21.8644 -48.8407
528 27.5529 27.2427 28.1193 -262.72 -17.316 -111.835
683 30.9878 27.1146 28.0997 -287.471 -53.6376 57.1698
497 26.5759 28.212 27.9323 -283.91 -79.5171 -24.1978
652 30.0281 28.2235 28.2762 -317.608 -36.114 -142.848
714 31.9136 26.5921 29.1621 -231.782 106.616 130.904
559 28.2548 27.7436 29.2862 -375.857 17.8209 -76.285
590 29.0175 28.9726 29.2555 -287.366 -150.357 -84.3085
621 30.4235 29.4037 29.0286 -225.904 -77.6301 -118.63
745 32.0207 26.9826 30.5134 -325.91 73.5424 51.0414
776 31.4957 27.3269 31.8309 -286.851 40.083 34.3477
838 29.3484 27.7872 33.0504 -166.501 63.582 10.3521
807 30.6647 28.062 32.6602 -350.455 57.5559 -10.105
962 29.0556 25.9671 34.2839 -181.917 50.4411 -47.7221
869 28.8233 28.0011 34.4251 -112.143 10.4269 9.09718
931 30.1433 26.6569 34.9169 -303.188 85.9685 -70.8993
900 29.5295 27.7866 35.6855 -109.798 -7.00227 -8.30089
ITEM: TIMESTEP
70
ITEM: NUMBER OF ATOMS
32
ITEM: BOX BOUNDS pp pp ff
0.0000000000000000e+00 4.0000000000000000e+01
0.0000000000000000e+00 4.0000000000000000e+01
0.0000000000000000e+00 4.0000000000000000e+01
ITEM: ATOMS id x y z vx vy vz
187 25.7664 26.6596 20.9227 -165.739 -52.4355 -72.9183
125 23.9032 25.8633 21.3945 -193.671 -30.0468 30.1638
156 24.7486 26.9497 21.8949 -185.701 -33.1615 -99.5413
218 26.9054 27.3333 21.4884 -386.952 34.6577 1.34631
1 20.8402 24.1999 23.0188 -90.2593 96.7126 -48.1384
63 22.0949 25.4454 22.0915 -75.0992 72.9436 -79.765
94 23.3243 24.7398 22.1206 -36.4168 -14.7105 -30.0681
280 25.9305 26.2363 22.9001 -244.925 -58.0671 -130.133
249 27.2646 26.7624 22.6888 -311.382 42.7279 46.9356
311 26.5692 25.4502 23.8994 -253.067 33.4977 -37.7965
32 21.2213 25.5923 23.1886 -82.164 52.2065 -61.6438
342 27.7331 24.9788 24.5515 -202.416 -108.96 -42.3338
373 28.8433 25.442 25.2312 -213.462 -91.6868 -20.9657
404 28.6349 26.8534 25.0964 -237.813 -76.1243 -16.1419
435 28.1554 27.5679 26.2483 -303.239 12.8207 -40.0129
466 27.3866 28.5172 26.8927 -396.116 2.9788 44.0654
528 27.2657 27.1912 28.0813 -264.365 -6.9263 35.2059
683 30.7298 27.1168 28.1146 -174.235 65.1011 51.9049
497 26.2854 28.1967 27.8395 -241.608 -63.137 -81.6637
652 29.7651 28.2312 28.2469 -211.475 73.5046 68.53
714 31.6476 26.641 29.1715 -230.675 -4.70655 -85.6549
559 27.9663 27.7224 29.2292 -291.681 -10.0358 31.3145
590 28.7372 28.9765 29.1959 -232.639 10.2648 8.54436
621 30.2366 29.3831 29.0049 -212.609 -16.7562 37.8721
745 31.7037 27.0552 30.5261 -293.042 94.3166 -47.3845
776 31.1824 27.3515 31.8145 -404.278 -72.3686 34.6818
838 29.0635 27.7636 33.107 -267.706 -92.0102 13.9889
807 30.4081 28.0665 32.6753 -266.371 -79.6379 -15.9296
962 28.8236 25.9736 34.2424 -350.48 -5.05692 -125.052
869 28.6533 28.0229 34.444 -216.389 -39.6645 140.876
931 29.9156 26.6531 34.9036 -220.891 57.7259 88.3139
900 29.3544 27.7667 35.7062 -158.862 -1.90681 116.43
ITEM: TIMESTEP
80
ITEM: NUMBER OF ATOMS
32
ITEM: BOX BOUNDS pp pp ff
0.0000000000000000e+00 4.0000000000000000e+01
0.0000000000000000e+00 4.0000000000000000e+01
0.0000000000000000e+00 4.0000000000000000e+01
ITEM: ATOMS id x y z vx vy vz
187 25.619 26.6334 20.8449 -125.617 -10.8129 -86.1939
125 23.7863 25.7978 21.3462 -222.43 -45.4052 -140.467
156 24.5874 26.8783 21.8504 -141.802 -53.9355 -53.7802
218 26.6961 27.3478 21.4753 -172.533 -23.2901 -69.4712
1 20.7832 24.2233 23.0265 -172.752 9.64954 10.752
63 21.9974 25.4194 22.0181 -139.422 -24.3751 -49.0997
94 23.1971 24.6369 22.0781 -158.901 -21.5565 -47.933
280 25.6815 26.2069 22.8874 -304.749 -46.7927 -34.5189
249 27.0118 26.7258 22.7083 -232.636 -44.0848 -26.5968
311 26.3005 25.4131 23.9029 -203.69 -50.5967 -148.685
32 21.1516 25.6177 23.1942 -89.8913 -67.3541 -50.7062
342 27.4904 24.9054 24.5168 -220.216 -34.3728 -87.4891
373 28.6291 25.426 25.1659 -193.706 65.8421 66.2807
404 28.4129 26.8666 25.0551 -319.63 56.8483 -38.6768
435 27.8835 27.5608 26.2007 -325.795 -3.35073 -171.246
466 27.1141 28.5223 26.8795 -216.923 46.7207 -114.002
528 26.9561 27.0949 28.0731 -218.814 0.250129 67.8946
683 30.4829 27.1668 28.1422 -226.119 33.3007 39.4104
497 26.0403 28.1315 27.8369 -271.658 35.1877 87.5258
652 29.5066 28.183 28.2222 -367.998 -35.7114 -25.1093
714 31.4452 26.6505 29.153 -254.165 -120.65 3.70826
559 27.6762 27.7005 29.176 -208.41 51.9876 57.9013
590 28.5167 28.9799 29.2061 -187.928 23.722 -10.2209
621 29.9873 29.3289 29.0054 -217.071 -29.5895 -65.0556
745 31.3872 27.069 30.5028 -272.228 -91.6808 -106.765
776 30.8586 27.3442 31.794 -289.776 -15.4728 -74.688
838 28.7906 27.7494 33.1455 -251.449 35.5718 -0.875821
807 30.1057 28.0737 32.7095 -323.226 92.1347 157.283
962 28.6447 25.9739 34.2453 -180.871 -112.255 13.7623
869 28.4714 28.0111 34.483 -152.326 -27.0165 11.0455
931 29.723 26.6817 34.9177 -204.388 19.9987 38.2301
900 29.265 27.794 35.7199 -139.518 134.982 19.4143
ITEM: TIMESTEP
90
ITEM: NUMBER OF ATOMS
32
ITEM: BOX BOUNDS pp pp ff
0.0000000000000000e+00 4.0000000000000000e+01
0.0000000000000000e+00 4.0000000000000000e+01
0.0000000000000000e+00 4.0000000000000000e+01
ITEM: ATOMS id x y z vx vy vz
187 25.4938 26.6187 20.8281 -129.076 116.778 -70.0979
125 23.6499 25.7101 21.3305 -26.2451 -103.955 14.7976
156 24.4518 26.8692 21.8021 -128.743 -45.3677 -78.7319
218 26.5703 27.35 21.4941 -139.143 -23.4105 43.948
1 20.6515 24.2085 23.0092 -58.705 -36.6041 -36.272
63 21.84 25.3553 22.0204 -90.9132 -113.801 -2.41393
94 23.093 24.6125 22.0661 -93.5174 -125.791 21.134
280 25.4351 26.1667 22.8604 -253.262 -1.81516 -80.698
249 26.8166 26.6741 22.694 -136.263 32.0154 -130.903
311 26.0843 25.3852 23.8853 -271.53 57.3919 8.97213
32 21.0583 25.6098 23.2712 -64.7437 -119.736 31.9782
342 27.2988 24.8502 24.4489 -320.254 0.642638 -46.4944
373 28.4041 25.431 25.1821 -235.102 20.7597 -33.1422
404 28.1451 26.8612 25.0046 -242.494 -27.1477 -59.9683
435 27.5783 27.5601 26.1267 -285.422 -60.0813 -170.128
466 26.8872 28.5581 26.8401 -127.09 -40.3082 -111.139
528 26.7199 27.0547 28.1254 -303.535 -21.1247 8.24802
683 30.1215 27.2079 28.1593 -315.493 33.2056 50.9875
497 25.857 28.1237 27.8729 -270.042 62.7728 -19.6466
652 29.1185 28.199 28.1686 -326.065 64.2943 36.9757
714 31.0766 26.7202 29.1645 -379.021 92.8393 -75.7647
559 27.4141 27.7225 29.1621 -239.585 71.9849 34.8754
590 28.2407 29.0438 29.1236 -228.857 49.2706 -104.509
621 29.7536 29.3193 28.9359 -292.142 10.0567 -55.146
745 31.0372 27.0585 30.4925 -287.781 12.0193 -56.4809
776 30.5515 27.3689 31.7867 -255.103 -47.2887 -9.19502
838 28.5054 27.7111 33.1423 -205.526 26.5458 -17.0323
807 29.7763 28.1426 32.6877 -308.838 86.4566 -124.634
962 28.4195 25.9294 34.2568 -177.334 -101.395 19.2807
869 28.2602 28.0259 34.505 -146.076 45.9514 113.8
931 29.4766 26.7153 34.9303 -180.185 34.5011 -19.0852
900 29.0729 27.8319 35.7096 -254.929 -44.9532 -58.3206
ITEM: TIMESTEP
100
ITEM: NUMBER OF ATOMS
32
ITEM: BOX BOUNDS pp pp ff
0.0000000000000000e+00 4.0000000000000000e+01
0.0000000000000000e+00 4.0000000000000000e+01
0.0000000000000000e+00 4.0000000000000000e+01
ITEM: ATOMS id x y z vx vy vz
187 25.3497 26.6717 20.7925 -197.126 42.8568 -24.2217
125 23.5547 25.6964 21.2747 -84.7328 74.1185 -0.773073
156 24.2883 26.8528 21.7233 -198.9 -12.1877 -149.105
218 26.3971 27.3969 21.4408 -138.148 87.7797 -47.0275
1 20.5868 24.1503 22.9487 -76.5757 8.9898 47.432
63 21.7192 25.3385 22.0002 -81.6597 21.7072 -57.9525
94 22.95 24.5675 21.9917 -84.7137 99.9947 -121.789
280 25.2735 26.1533 22.839 -140.411 -84.4352 -57.9099
249 26.6416 26.6904 22.6589 -216.646 -69.2642 -26.2961
311 25.8321 25.3908 23.8845 -253.04 -4.74892 0.60978
32 20.9592 25.5549 23.2782 -242.46 -15.0257 -108.484
342 27.1051 24.8716 24.3695 -114.441 19.3056 36.3773
373 28.192 25.4416 25.1229 -196.638 19.5653 -52.4783
404 27.8802 26.8194 24.9877 -241.605 -92.7139 57.9331
435 27.268 27.5233 26.0522 -276.347 -22.1841 -11.528
466 26.6729 28.5532 26.8025 -312.76 55.9501 -31.5717
528 26.452 27.0993 28.0883 -323.05 112.394 -39.4766
683 29.8098 27.1965 28.0874 -302.86 57.6124 -70.9026
497 25.6417 28.2018 27.7928 -337.714 35.4179 -90.4256
652 28.8297 28.2496 28.1058 -288.306 22.6928 -44.2165
714 30.7671 26.7692 29.0916 -306.004 -9.116 49.6432
559 27.183 27.784 29.0665 -279.707 35.9819 54.9502
590 27.9699 29.0338 29.0672 -244.376 23.2847 -15.5327
621 29.4639 29.3325 28.9114 -366.615 14.829 13.029
745 30.7191 27.077 30.4498 -293.926 -2.49268 -76.8816
776 30.2464 27.3896 31.749 -372.68 23.5865 6.6399
838 28.2499 27.6904 33.1754 -295.537 10.3664 122.25
807 29.5014 28.1297 32.6411 -282.641 -23.1212 36.4357
962 28.2698 25.9159 34.2211 -110.289 -21.5165 -49.8682
869 28.0625 28.0134 34.5444 -80.7581 94.8563 98.3204
931 29.275 26.7168 34.9046 -66.6607 12.1754 -63.1644
900 28.877 27.7961 35.7299 -67.5817 -68.7784 -74.2169
ITEM: TIMESTEP
110
ITEM: NUMBER OF ATOMS
32
ITEM: BOX BOUNDS pp pp ff
0.0000000000000000e+00 4.0000000000000000e+01
0.0000000000000000e+00 4.0000000000000000e+01
0.0000000000000000e+00 4.0000000000000000e+01
ITEM: ATOMS id x y z vx vy vz
187 25.2293 26.6675 20.7166 -146.314 60.7878 -75.0617
125 23.4375 25.6841 21.2178 -166.69 -41.8285 -44.1597
156 24.1667 26.8358 21.6763 -159.111 -28.6796 -45.5621
218 26.261 27.4302 21.4584 -139.505 -22.6718 -26.9662
1 20.5579 24.16 22.9334 -131.888 -11.2856 -23.5498
63 21.6563 25.3247 21.8949 -76.8553 86.416 -114.397
94 22.8266 24.5551 21.8964 -11.7837 -15.3552 -142.176
280 25.0464 26.1362 22.7243 -215.232 17.3775 -24.4023
249 26.4311 26.6416 22.624 -224.793 -96.7916 -17.9494
311 25.5877 25.3684 23.8841 -221.376 -34.3521 19.7578
32 20.9122 25.5559 23.1999 3.02963 17.6751 -10.8685
342 26.9092 24.8845 24.3463 -285.092 24.4353 -39.2546
373 27.9767 25.4728 25.0962 -223.327 127.509 -17.9864
404 27.5919 26.7967 24.9584 -355.464 25.333 -119.644
435 27.0056 27.4817 26.0124 -356.013 -28.883 30.4472
466 26.4343 28.5297 26.7161 -309.25 -20.4388 3.09625
528 26.2056 27.089 28.0208 -205.905 -39.0876 -109.722
683 29.5167 27.1838 28.0687 -315.985 -44.198 -39.3897
497 25.38 28.2108 27.6472 -207.755 11.8368 -101.184
652 28.5158 28.2267 28.0278 -385.336 36.6352 -24.1628
714 30.4751 26.8111 29.0586 -280.691 55.83 -14.0308
559 26.9431 27.8143 29.0511 -295.145 134.613 -68.8798
590 27.7639 29.0428 29.0527 -217.747 126.24 15.6955
621 29.1429 29.351 28.8378 -376.496 27.2622 47.2954
745 30.4049 27.0807 30.4227 -315.623 34.3042 17.993
776 29.9371 27.3628 31.7362 -241.248 57.4318 21.584
838 27.9347 27.6555 33.2257 -239.204 -58.6657 3.05683
807 29.1597 28.0842 32.6513 -285.591 -22.5568 53.0533
962 28.0816 25.9398 34.2413 -309.578 -36.8784 11.118
869 27.8239 28.0077 34.579 -155.377 -26.0525 117.573
931 29.15 26.7011 34.9086 -194.956 -29.0224 -40.1487
900 28.7502 27.7731 35.7051 -140.131 63.6225 26.3505
ITEM: TIMESTEP
120
ITEM: NUMBER OF ATOMS
32
ITEM: BOX BOUNDS pp pp ff
0.0000000000000000e+00 4.0000000000000000e+01
0.0000000000000000e+00 4.0000000000000000e+01
0.0000000000000000e+00 4.0000000000000000e+01
ITEM: ATOMS id x y z vx vy vz
187 25.063 26.7034 20.699 -102.939 -60.5094 -15.3271
125 23.3101 25.6387 21.1918 -59.3483 2.01717 -22.9083
156 23.9714 26.8483 21.6227 -162.568 0.717368 -56.9785
218 26.0876 27.4477 21.4141 -292.514 -71.6087 -30.0373
1 20.4621 24.1377 22.8864 26.521 -77.1191 -52.6581
63 21.5716 25.3287 21.8405 -107.354 -43.718 1.75795
94 22.752 24.5357 21.8863 -75.0714 -71.2447 -30.582
280 24.7998 26.1192 22.7162 -273.816 22.0694 3.09652
249 26.159 26.6322 22.5634 -344.163 -35.8624 -65.8345
311 25.2969 25.3582 23.8722 -210.837 -20.5891 30.2804
32 20.8396 25.5404 23.1824 -97.1274 -40.2921 0.660856
342 26.6387 24.8864 24.3651 -262.912 78.9736 13.5493
373 27.7146 25.4844 25.0834 -172.878 59.1623 41.9143
404 27.3163 26.8234 24.865 -346.83 -1.46194 -21.4505
435 26.7054 27.4901 25.9487 -346.867 28.3805 -86.5947
466 26.1395 28.5544 26.6718 -218.866 47.2057 -87.2485
528 25.9151 27.085 28.0175 -366.59 40.7472 -54.1646
683 29.134 27.1592 27.9979 -412.397 -148.922 -85.7708
497 25.1289 28.2195 27.5824 -102.695 18.4779 -30.8736
652 28.1532 28.2485 27.9923 -348.375 -39.8443 -42.0091
714 30.088 26.81 28.9736 -346.017 12.3442 -104.169
559 26.6583 27.8402 29.0706 -189.653 6.48152 -109.07
590 27.4856 29.0898 29.0598 -328.585 85.7119 -73.2762
621 28.8892 29.349 28.7974 -234.887 0.299099 -62.9914
745 30.0397 27.0478 30.3737 -379.975 63.2736 -76.8001
776 29.6753 27.3287 31.7646 -312.757 11.0982 128.543
838 27.6374 27.6153 33.2769 -347.046 -28.6132 -72.0612
807 28.8973 28.0482 32.7038 -287.723 -73.3626 50.8737
962 27.9054 25.9241 34.2334 -274.558 23.4308 23.9446
869 27.6071 28.0133 34.6405 -178.998 25.2401 -7.83305
931 28.943 26.7121 34.9216 -234.648 7.89912 -4.08167
900 28.6083 27.8151 35.7284 -170.125 -89.563 13.4792
ITEM: TIMESTEP
130
ITEM: NUMBER OF ATOMS
32
ITEM: BOX BOUNDS pp pp ff
0.0000000000000000e+00 4.0000000000000000e+01
0.0000000000000000e+00 4.0000000000000000e+01
0.0000000000000000e+00 4.0000000000000000e+01
ITEM: ATOMS id x y z vx vy vz
187 24.9306 26.6618 20.6184 -111.968 79.6137 -11.3814
125 23.2074 25.5871 21.1743 -204.495 -39.9227 -39.0379
156 23.8108 26.8537 21.5115 -142.464 152.615 -31.6856
218 25.8418 27.4105 21.3836 -239.439 47.6408 4.59164
1 20.3425 24.0908 22.8375 -91.3733 24.3285 -10.4703
63 21.46 25.2999 21.8651 -83.2123 -21.5858 68.0515
94 22.6537 24.4551 21.895 -272.015 -86.5057 -59.509
280 24.6234 26.0715 22.6727 -222.776 11.4388 -46.1506
249 25.8605 26.6113 22.5249 -246.606 -34.6253 -109.905
311 25.069 25.4233 23.9241 -183.682 9.48841 -0.819314
32 20.6912 25.5047 23.1663 -150.318 2.27552 -49.1155
342 26.3958 24.9188 24.332 -256.975 -12.3845 -72.2834
373 27.4722 25.4698 25.0941 -181.787 62.2774 29.516
404 27.0768 26.7779 24.8578 -199.567 -34.8996 7.41335
435 26.4115 27.4905 25.9003 -284.525 6.40746 -32.2934
466 25.8859 28.5999 26.6807 -206.992 24.6697 -50.4842
528 25.6637 27.0775 28.0476 -104.262 -4.91816 25.5706
683 28.7868 27.1193 27.9005 -326.714 25.0834 -112.598
497 24.9034 28.2659 27.6225 -219.598 143.139 -78.0555
652 27.8193 28.2 27.9371 -320.265 -80.7755 -125.724
714 29.7294 26.7919 28.9373 -343.441 21.7963 59.318
559 26.4207 27.8555 29.055 -241.665 -54.7551 -44.7585
590 27.204 29.1365 29.0026 -352.374 0.556952 72.4278
621 28.5696 29.2611 28.7068 -377.541 -51.6424 -90.8472
745 29.7322 27.0757 30.3702 -288.629 -16.5425 -27.5246
776 29.3866 27.3307 31.7538 -155.244 5.73067 13.5
838 27.3768 27.631 33.2528 -317.148 6.72096 6.92295
807 28.6508 28.0357 32.6743 -250.275 -81.3216 -25.7929
962 27.6854 25.9016 34.2441 -216.843 -62.2125 61.9925
869 27.462 28.0188 34.6843 -255.455 28.3608 -11.6126
931 28.7225 26.7665 34.8758 -244.363 131.294 38.1882
900 28.439 27.8848 35.7131 -266.807 44.7351 -69.4741
ITEM: TIMESTEP
140
ITEM: NUMBER OF ATOMS
32
ITEM: BOX BOUNDS pp pp ff
0.0000000000000000e+00 4.0000000000000000e+01
0.0000000000000000e+00 4.0000000000000000e+01
0.0000000000000000e+00 4.0000000000000000e+01
ITEM: ATOMS id x y z vx vy vz
187 24.7964 26.6602 20.5922 -169.664 76.6174 57.1406
125 23.0315 25.5835 21.1832 -106.36 20.5609 -38.1478
156 23.6585 26.9015 21.4751 -126.561 -38.8703 -84.1064
218 25.6618 27.4702 21.347 -212.034 17.7338 -58.393
1 20.2677 24.0367 22.848 -54.375 -25.4854 -60.2537
63 21.3021 25.3285 21.8587 -196.564 7.12383 -63.2014
94 22.4736 24.4444 21.8632 -194.191 -37.9553 -4.38534
280 24.3899 26.0589 22.6506 -359.725 3.86309 64.5437
249 25.6164 26.6323 22.4822 -231.558 13.0388 -136.663
311 24.8539 25.4061 23.8775 -267.367 -28.6724 -92.378
32 20.5261 25.5147 23.1101 -140.621 27.121 26.8138
342 26.1334 24.9024 24.3891 -245.217 34.4992 200.029
373 27.2432 25.4637 25.1241 -224.762 -3.01759 32.1013
404 26.7968 26.7605 24.8616 -224.644 15.1766 -117.157
435 26.1026 27.5138 25.8686 -367.1 -16.1198 -124.386
466 25.638 28.6949 26.5757 -248.9 68.537 -143.455
528 25.3426 27.1077 28.0319 -297.489 60.5683 28.3453
683 28.4007 27.0396 27.8769 -299.893 12.7281 -29.8502
497 24.6477 28.316 27.53 -287.006 80.6009 -7.2037
652 27.448 28.1949 27.8673 -308.393 26.1855 -75.1516
714 29.3621 26.7363 28.9393 -449.245 -12.2925 -52.1488
559 26.1525 27.8865 29.0055 -316.064 54.1649 25.7554
590 26.878 29.1549 28.9494 -373.075 -6.74767 -51.4158
621 28.263 29.2113 28.6428 -371.093 -31.914 -40.4416
745 29.4094 27.0884 30.3711 -332.587 -7.84034 9.00322
776 29.0959 27.3225 31.74 -325.484 -18.5825 -25.5963
838 27.1192 27.5909 33.2323 -411.372 -82.8452 12.9917
807 28.3311 28.0137 32.6779 -303.26 -58.5087 13.2248
962 27.5083 25.8727 34.3309 -185.616 -5.135 100.92
869 27.2087 28.0076 34.6687 -175.154 32.6622 -92.1786
931 28.4775 26.7608 34.8633 -304.479 24.6526 -16.6789
900 28.2426 27.9004 35.6886 -165.607 -2.15761 -109.593
ITEM: TIMESTEP
150
ITEM: NUMBER OF ATOMS
32
ITEM: BOX BOUNDS pp pp ff
0.0000000000000000e+00 4.0000000000000000e+01
0.0000000000000000e+00 4.0000000000000000e+01
0.0000000000000000e+00 4.0000000000000000e+01
ITEM: ATOMS id x y z vx vy vz
187 24.6415 26.6687 20.5555 -166.116 21.7157 -45.4198
125 22.8918 25.548 21.1371 -161.498 9.21133 3.599
156 23.4953 26.8665 21.4154 -225.135 -113.367 -68.2913
218 25.4782 27.4713 21.3681 -54.7778 -77.2704 -22.9467
1 20.2173 24.0343 22.859 -100.781 27.1496 15.2154
63 21.1486 25.3444 21.8314 -184.924 -6.90049 -159.282
94 22.3051 24.4002 21.8071 -99.6931 -94.3306 -30.1747
280 24.0949 26.025 22.6395 -310.643 -88.2421 -102.679
249 25.4024 26.5731 22.4921 -165.288 10.8948 -0.116659
311 24.6243 25.3463 23.8426 -285.665 -20.63 -50.4974
32 20.3904 25.4768 23.1152 -106.257 -155.479 -123.921
342 25.8762 24.8719 24.413 -326.354 52.5607 -23.2444
373 26.9734 25.5025 25.1227 -168.05 63.7975 -40.6348
404 26.5072 26.7997 24.7823 -245.195 -35.2052 -127.716
435 25.7693 27.5485 25.8162 -247.232 81.6341 -43.0294
466 25.3764 28.7438 26.5341 -213.865 95.7332 -27.8955
528 25.0282 27.1081 28.0245 -365.494 68.589 94.609
683 28.0829 27.0447 27.8729 -418.77 -131.696 -18.7565
497 24.3877 28.3856 27.5058 -277.682 51.8438 12.8832
652 27.1414 28.2119 27.8181 -286.73 -16.3006 -48.8062
714 29.0157 26.7318 28.9366 -373.749 -24.9611 86.3278
559 25.848 27.8702 28.9985 -297.242 60.0856 55.5353
590 26.5843 29.122 28.948 -331.201 7.0394 -25.6125