vesicle with diameter =    50.000000
   21702 atoms
  3202 bonds
    8346 ellipsoids

       7 atom types
       3 bond types

  -35.000000    35.000000 xlo xhi
  -35.000000    35.000000 ylo yhi
  -35.000000    35.000000 zlo zhi


Atoms

       1      2      0.008147     0.003465    25.006944       1     0.238732      0 
       2      2      0.009058     0.007572   -24.990692       1     0.238732      0 
       3      1      0.970654     0.003602    24.982750       1     0.238732      0 
       4      1      0.493826     0.845077    24.981726       1     0.238732      0 
       5      1     -0.478369     0.848399    24.987286       1     0.238732      0 
       6      1     -0.968409     0.008402    24.983628       1     0.238732      0 
       7      1     -0.481907    -0.837071    24.986782       1     0.238732      0 
       8      1      0.490161    -0.835155    24.987984       1     0.238732      0 
       9      1      1.946886     0.008286    24.929489       1     0.238732      0 
      10      1      1.725052     0.901840    24.931408       1     0.238732      0 
      11      1      1.102094     1.601955    24.932907       1     0.238732      0 
      12      1      0.243223     1.931950    24.933388       1     0.238732      0 
      13      1     -0.677408     1.816438    24.931932       1     0.238732      0 
      14      1     -1.445244     1.290377    24.927457       1     0.238732      0 
      15      1     -1.873013     0.472144    24.927785       1     0.238732      0 
      16      1     -1.879597    -0.453782    24.926682       1     0.238732      0 
      17      1     -1.445880    -1.276772    24.930817       1     0.238732      0 
      18      1     -0.677822    -1.807910    24.932607       1     0.238732      0 
      19      1      0.241439    -1.918166    24.925781       1     0.238732      0 
      20      1      1.110113    -1.591823    24.928923       1     0.238732      0 
      21      1      1.721961    -0.895214    24.931136       1     0.238732      0 
      22      1      2.902680     0.000786    24.838612       1     0.238732      0 
      23      1      2.753558     0.942942    24.836115       1     0.238732      0 
      24      1      2.299680     1.788993    24.831427       1     0.238732      0 
      25      1      1.594207     2.435896    24.835365       1     0.238732      0 
      26      1      0.720056     2.814327    24.838772       1     0.238732      0 
      27      1     -0.232241     2.898505    24.840870       1     0.238732      0 
      28      1     -1.161928     2.663317    24.839452       1     0.238732      0 
      29      1     -1.959135     2.143868    24.831559       1     0.238732      0 
      30      1     -2.550805     1.387780    24.838626       1     0.238732      0 
      31      1     -2.855678     0.480423    24.838208       1     0.238732      0 
      32      1     -2.862421    -0.476639    24.838506       1     0.238732      0 
      33      1     -2.549748    -1.380748    24.832973       1     0.238732      0 
      34      1     -1.965228    -2.129089    24.834197       1     0.238732      0 
      35      1     -1.164878    -2.650879    24.836930       1     0.238732      0 
      36      1     -0.231437    -2.889661    24.840730       1     0.238732      0 
      37      1      0.719426    -2.809293    24.835473       1     0.238732      0 
      38      1      1.590591    -2.426069    24.835922       1     0.238732      0 
      39      1      2.299843    -1.781822    24.840676       1     0.238732      0 
      40      1      2.745411    -0.941685    24.838589       1     0.238732      0 
      41      1      3.867357     0.001209    24.709544       1     0.238732      0 
      42      1      3.745423     0.967460    24.701775       1     0.238732      0 
      43      1      3.392801     1.863189    24.700063       1     0.238732      0 
      44      1      2.823936     2.646758    24.701328       1     0.238732      0 
      45      1      2.071751     3.261700    24.706943       1     0.238732      0 
      46      1      1.198621     3.681174    24.707519       1     0.238732      0 
      47      1      0.247014     3.860957    24.706196       1     0.238732      0 
      48      1     -0.717385     3.800066    24.703127       1     0.238732      0 
      49      1     -1.637679     3.502742    24.706293       1     0.238732      0 
      50      1     -2.454803     2.984716    24.700203       1     0.238732      0 
      51      1     -3.122448     2.274531    24.708421       1     0.238732      0 
      52      1     -3.584901     1.423413    24.700776       1     0.238732      0 
      53      1     -3.825958     0.486116    24.709216       1     0.238732      0 
      54      1     -3.830883    -0.476956    24.703541       1     0.238732      0 
      55      1     -3.590509    -1.415358    24.701091       1     0.238732      0 
      56      1     -3.120225    -2.269998    24.702875       1     0.238732      0 
      57      1     -2.452752    -2.972627    24.708733       1     0.238732      0 
      58      1     -1.641369    -3.490407    24.707554       1     0.238732      0 
      59      1     -0.717996    -3.786804    24.701677       1     0.238732      0 
      60      1      0.244796    -3.853869    24.701486       1     0.238732      0 
      61      1      1.201236    -3.669047    24.708679       1     0.238732      0 
      62      1      2.072434    -3.260895    24.707454       1     0.238732      0 
      63      1      2.821043    -2.636510    24.707667       1     0.238732      0 
      64      1      3.392137    -1.857063    24.701882       1     0.238732      0 
      65      1      3.750517    -0.958320    24.701680       1     0.238732      0 
      66      2      4.827399     0.000806    24.537850       1     0.238732      0 
      67      1      4.724658     0.970607    24.532496       1     0.238732      0 
      68      1      4.428747     1.909204    24.536442       1     0.238732      0 
      69      1      3.955772     2.754307    24.538232       1     0.238732      0 
      70      1      3.321884     3.501477    24.532953       1     0.238732      0 
      71      2      2.556853     4.092001    24.535117       1     0.238732      0 
      72      1      1.675792     4.527508    24.539466       1     0.238732      0 
      73      1      0.737693     4.765681    24.540476       1     0.238732      0 
      74      1     -0.241583     4.812257    24.532990       1     0.238732      0 
      75      1     -1.198303     4.670133    24.538762       1     0.238732      0 
      76      2     -2.118234     4.331005    24.536940       1     0.238732      0 
      77      1     -2.947042     3.818869    24.533261       1     0.238732      0 
      78      1     -3.653039     3.140199    24.538283       1     0.238732      0 
      79      1     -4.206272     2.345968    24.534381       1     0.238732      0 
      80      1     -4.592125     1.445751    24.537705       1     0.238732      0 
      81      2     -4.789571     0.497131    24.533741       1     0.238732      0 
      82      1     -4.784780    -0.479049    24.536276       1     0.238732      0 
      83      1     -4.591006    -1.435156    24.538965       1     0.238732      0 
      84      1     -4.206936    -2.335942    24.537585       1     0.238732      0 
      85      1     -3.646378    -3.138032    24.533861       1     0.238732      0 
      86      1     -2.946150    -3.807704    24.537915       1     0.238732      0 
      87      2     -2.114162    -4.320084    24.534691       1     0.238732      0 
      88      1     -1.200058    -4.662924    24.532575       1     0.238732      0 
      89      1     -0.240213    -4.803085    24.537951       1     0.238732      0 
      90      1      0.735228    -4.753141    24.540856       1     0.238732      0 
      91      1      1.674008    -4.514571    24.539794       1     0.238732      0 
      92      2      2.548986    -4.083912    24.532847       1     0.238732      0 
      93      1      3.324617    -3.491882    24.538258       1     0.238732      0 
      94      1      3.962071    -2.749151    24.538025       1     0.238732      0 
      95      1      4.436701    -1.895078    24.536488       1     0.238732      0 
      96      1      4.720485    -0.967196    24.535730       1     0.238732      0 
      97      1      5.771085     0.006831    24.329958       1     0.238732      0 
      98      1      5.687161     0.983469    24.334545       1     0.238732      0 
      99      1      5.436182     1.926388    24.328630       1     0.238732      0 
     100      1      5.036644     2.814408    24.329037       1     0.238732      0 
     101      1      4.487307     3.631222    24.331731       1     0.238732      0 
     102      1      3.816995     4.328566    24.332388       1     0.238732      0 
     103      1      3.025952     4.915666    24.330619       1     0.238732      0 
     104      1      2.154951     5.359131    24.334766       1     0.238732      0 
     105      1      1.216306     5.641158    24.335661       1     0.238732      0 
     106      1      0.250710     5.769769    24.334287       1     0.238732      0 
     107      1     -0.729678     5.721420    24.333322       1     0.238732      0 
     108      1     -1.681699     5.517951    24.327342       1     0.238732      0 
     109      1     -2.588711     5.157184    24.326951       1     0.238732      0 
     110      1     -3.420815     4.637509    24.334513       1     0.238732      0 
     111      1     -4.157858     3.997570    24.329627       1     0.238732      0 
     112      1     -4.775849     3.229860    24.335178       1     0.238732      0 
     113      1     -5.251304     2.379152    24.331901       1     0.238732      0 
     114      1     -5.570231     1.461506    24.326633       1     0.238732      0 
     115      1     -5.743103     0.495983    24.328278       1     0.238732      0 
     116      1     -5.736369    -0.483970    24.327589       1     0.238732      0 
     117      1     -5.573981    -1.446658    24.330285       1     0.238732      0 
     118      1     -5.243632    -2.373996    24.334897       1     0.238732      0 
     119      1     -4.775905    -3.226062    24.327051       1     0.238732      0 
     120      1     -4.157937    -3.989044    24.335420       1     0.238732      0 
     121      1     -3.427230    -4.626898    24.335480       1     0.238732      0 
     122      1     -2.585984    -5.147923    24.328775       1     0.238732      0 
     123      1     -1.688193    -5.507176    24.326479       1     0.238732      0 
     124      1     -0.724559    -5.717503    24.330786       1     0.238732      0 
     125      1      0.252863    -5.754322    24.331966       1     0.238732      0 
     126      1      1.223337    -5.629772    24.333389       1     0.238732      0 
     127      1      2.150510    -5.342178    24.329457       1     0.238732      0 
     128      1      3.026837    -4.906304    24.326759       1     0.238732      0 
     129      1      3.811651    -4.318759    24.335038       1     0.238732      0 
     130      1      4.493686    -3.614115    24.334411       1     0.238732      0 
     131      1      5.037587    -2.810744    24.329851       1     0.238732      0 
     132      1      5.445169    -1.917872    24.333776       1     0.238732      0 
     133      1      5.684285    -0.965282    24.330496       1     0.238732      0 
     134      1      6.706953     0.001111    24.089455       1     0.238732      0 
     135      1      6.634325     0.984054    24.089874       1     0.238732      0 
     136      1      6.421417     1.932530    24.086727       1     0.238732      0 
     137      1      6.079103     2.853371    24.085555       1     0.238732      0 
     138      1      5.597181     3.705845    24.090377       1     0.238732      0 
     139      1      4.998686     4.481647    24.090408       1     0.238732      0 
     140      1      4.290019     5.162573    24.086621       1     0.238732      0 
     141      1      3.501079     5.724526    24.092848       1     0.238732      0 
     142      1      2.628310     6.170495    24.085425       1     0.238732      0 
     143      1      1.699255     6.494652    24.093097       1     0.238732      0 
     144      1      0.738392     6.668828    24.088161       1     0.238732      0 
     145      1     -0.240837     6.700929    24.087270       1     0.238732      0 
     146      1     -1.216991     6.593684    24.091801       1     0.238732      0 
     147      1     -2.162293     6.346382    24.086924       1     0.238732      0 
     148      1     -3.064264     5.964110    24.089527       1     0.238732      0 
     149      1     -3.899127     5.462276    24.086564       1     0.238732      0 
     150      1     -4.650893     4.829320    24.084836       1     0.238732      0 
     151      1     -5.302269     4.103492    24.092550       1     0.238732      0 
     152      1     -5.845998     3.289734    24.085430       1     0.238732      0 
     153      1     -6.252911     2.397436    24.089691       1     0.238732      0 
     154      1     -6.534473     1.464992    24.090519       1     0.238732      0 
     155      1     -6.681521     0.493392    24.084276       1     0.238732      0 
     156      1     -6.681538    -0.486278    24.085908       1     0.238732      0 
     157      1     -6.540543    -1.451182    24.084367       1     0.238732      0 
     158      1     -6.252938    -2.391070    24.091802       1     0.238732      0 
     159      1     -5.842802    -3.280018    24.091309       1     0.238732      0 
     160      1     -5.305330    -4.087716    24.087835       1     0.238732      0 
     161      1     -4.645490    -4.821277    24.090976       1     0.238732      0 
     162      1     -3.897068    -5.447473    24.085182       1     0.238732      0 
     163      1     -3.063080    -5.959180    24.092499       1     0.238732      0 
     164      1     -2.160653    -6.343258    24.088504       1     0.238732      0 
     165      1     -1.216786    -6.584165    24.085288       1     0.238732      0 
     166      1     -0.243535    -6.697164    24.085248       1     0.238732      0 
     167      1      0.742680    -6.658709    24.085336       1     0.238732      0 
     168      1      1.705306    -6.480801    24.090459       1     0.238732      0 
     169      1      2.627841    -6.160658    24.086282       1     0.238732      0 
     170      1      3.493146    -5.720061    24.088504       1     0.238732      0 
     171      1      4.290917    -5.150596    24.092362       1     0.238732      0 
     172      1      4.996719    -4.470816    24.087561       1     0.238732      0 
     173      1      5.599596    -3.693652    24.087005       1     0.238732      0 
     174      1      6.070565    -2.841910    24.092460       1     0.238732      0 
     175      1      6.420487    -1.929050    24.086337       1     0.238732      0 
     176      1      6.634560    -0.969394    24.090818       1     0.238732      0 
     177      1      7.639641     0.002613    23.811957       1     0.238732      0 
     178      1      7.577799     0.985720    23.811834       1     0.238732      0 
     179      1      7.389984     1.941159    23.809344       1     0.238732      0 
     180      1      7.079804     2.868747    23.807654       1     0.238732      0 
     181      1      6.656376     3.751399    23.807499       1     0.238732      0 
     182      1      6.120274     4.571598    23.814624       1     0.238732      0 
     183      1      5.490715     5.318319    23.810943       1     0.238732      0 
     184      1      4.761081     5.976645    23.808514       1     0.238732      0 
     185      1      3.963836     6.529033    23.814008       1     0.238732      0 
     186      1      3.091607     6.980740    23.813021       1     0.238732      0 
     187      1      2.175527     7.320787    23.807809       1     0.238732      0 
     188      1      1.224506     7.541380    23.807609       1     0.238732      0 
     189      1      0.252457     7.633016    23.812885       1     0.238732      0 
     190      1     -0.732147     7.607133    23.812784       1     0.238732      0 
     191      1     -1.689242     7.442341    23.812635       1     0.238732      0 
     192      1     -2.628466     7.173410    23.808065       1     0.238732      0 
     193      1     -3.525756     6.774215    23.814418       1     0.238732      0 
     194      1     -4.362694     6.266669    23.812335       1     0.238732      0 
     195      1     -5.127306     5.652132    23.815519       1     0.238732      0 
     196      1     -5.809168     4.948315    23.812811       1     0.238732      0 
     197      1     -6.392167     4.169874    23.808689       1     0.238732      0 
     198      1     -6.872123     3.312199    23.806664       1     0.238732      0 
     199      1     -7.236109     2.412384    23.806569       1     0.238732      0 
     200      1     -7.484440     1.461283    23.813380       1     0.238732      0 
     201      1     -7.611024     0.491609    23.808631       1     0.238732      0 
     202      1     -7.613681    -0.479472    23.807654       1     0.238732      0 
     203      1     -7.484272    -1.457324    23.806637       1     0.238732      0 
     204      1     -7.238957    -2.397284    23.814285       1     0.238732      0 
     205      1     -6.873723    -3.311499    23.814604       1     0.238732      0 
     206      1     -6.387862    -4.161058    23.808492       1     0.238732      0 
     207      1     -5.803472    -4.938354    23.813676       1     0.238732      0 
     208      1     -5.126272    -5.647983    23.809017       1     0.238732      0 
     209      1     -4.360828    -6.259279    23.809580       1     0.238732      0 
     210      1     -3.524754    -6.761472    23.809489       1     0.238732      0 
     211      1     -2.634146    -7.157017    23.806863       1     0.238732      0 
     212      1     -1.695523    -7.433027    23.806969       1     0.238732      0 
     213      1     -0.728249    -7.588905    23.811145       1     0.238732      0 
     214      1      0.246959    -7.628696    23.809958       1     0.238732      0 
     215      1      1.226693    -7.527711    23.810363       1     0.238732      0 
     216      1      2.173789    -7.309066    23.812394       1     0.238732      0 
     217      1      3.092031    -6.975031    23.812832       1     0.238732      0 
     218      1      3.958675    -6.526682    23.812552       1     0.238732      0 
     219      1      4.761468    -5.966930    23.809599       1     0.238732      0 
     220      1      5.487625    -5.308247    23.813645       1     0.238732      0 
     221      1      6.120421    -4.557684    23.813152       1     0.238732      0 
     222      1      6.660140    -3.741648    23.812063       1     0.238732      0 
     223      1      7.079597    -2.856199    23.815025       1     0.238732      0 
     224      1      7.385355    -1.934704    23.815769       1     0.238732      0 
     225      1      7.579531    -0.968776    23.814798       1     0.238732      0 
     226      1      8.560301     0.001499    23.495519       1     0.238732      0 
     227      1      8.499158     0.983068    23.498951       1     0.238732      0 
     228      1      8.329404     1.942115    23.501372       1     0.238732      0 
     229      1      8.055824     2.883003    23.499170       1     0.238732      0 
     230      1      7.677296     3.773418    23.502307       1     0.238732      0 
     231      2      7.199090     4.632090    23.497309       1     0.238732      0 
     232      1      6.621923     5.416169    23.495045       1     0.238732      0 
     233      1      5.965196     6.132507    23.499250       1     0.238732      0 
     234      1      5.228459     6.780822    23.502266       1     0.238732      0 
     235      1      4.417676     7.328710    23.494419       1     0.238732      0 
     236      1      3.553182     7.782018    23.496473       1     0.238732      0 
     237      1      2.645218     8.137977    23.493936       1     0.238732      0 
     238      1      1.701236     8.383670    23.494813       1     0.238732      0 
     239      1      0.735951     8.521314    23.496253       1     0.238732      0 
     240      2     -0.239090     8.547395    23.495717       1     0.238732      0 
     241      1     -1.216008     8.465006    23.501601       1     0.238732      0 
     242      1     -2.171070     8.273326    23.496843       1     0.238732      0 
     243      1     -3.094178     7.976675    23.497581       1     0.238732      0 
     244      1     -3.989948     7.566758    23.497327       1     0.238732      0 
     245      1     -4.816985     7.064578    23.500419       1     0.238732      0 
     246      1     -5.592086     6.465918    23.500364       1     0.238732      0 
     247      1     -6.294622     5.790008    23.493494       1     0.238732      0 
     248      1     -6.911717     5.033523    23.498499       1     0.238732      0 
     249      2     -7.442945     4.205820    23.500043       1     0.238732      0 
     250      1     -7.871483     3.329382    23.495164       1     0.238732      0 
     251      1     -8.194517     2.415558    23.495007       1     0.238732      0 
     252      1     -8.419803     1.461827    23.496977       1     0.238732      0 
     253      1     -8.531347     0.489216    23.496028       1     0.238732      0 
     254      1     -8.534243    -0.481900    23.497108       1     0.238732      0 
     255      1     -8.420383    -1.451835    23.496698       1     0.238732      0 
     256      1     -8.197908    -2.399839    23.494868       1     0.238732      0 
     257      1     -7.869280    -3.322394    23.493727       1     0.238732      0 
     258      2     -7.441362    -4.199711    23.494977       1     0.238732      0 
     259      1     -6.913828    -5.020092    23.495800       1     0.238732      0 
     260      1     -6.289628    -5.771815    23.494841       1     0.238732      0 
     261      1     -5.599012    -6.456854    23.492493       1     0.238732      0 
     262      1     -4.817422    -7.054713    23.496823       1     0.238732      0 
     263      1     -3.981108    -7.552518    23.501361       1     0.238732      0 
     264      1     -3.094227    -7.957987    23.498886       1     0.238732      0 
     265      1     -2.172708    -8.260631    23.493750       1     0.238732      0 
     266      1     -1.214245    -8.456056    23.494900       1     0.238732      0 
     267      2     -0.240815    -8.540369    23.500228       1     0.238732      0 
     268      1      0.738507    -8.511804    23.499589       1     0.238732      0 
     269      1      1.699414    -8.375840    23.500547       1     0.238732      0 
     270      1      2.649463    -8.128016    23.501679       1     0.238732      0 
     271      1      3.553075    -7.775633    23.494227       1     0.238732      0 
     272      1      4.421996    -7.313399    23.497585       1     0.238732      0 
     273      1      5.226289    -6.761742    23.495122       1     0.238732      0 
     274      1      5.966958    -6.122349    23.496399       1     0.238732      0 
     275      1      6.626451    -5.411511    23.494714       1     0.238732      0 
     276      2      7.202179    -4.622171    23.495891       1     0.238732      0 
     277      1      7.682118    -3.771025    23.493959       1     0.238732      0 
     278      1      8.056585    -2.868117    23.492341       1     0.238732      0 
     279      1      8.335280    -1.935964    23.496382       1     0.238732      0 
     280      1      8.496747    -0.974583    23.495112       1     0.238732      0 
     281      2      9.455302     0.000917    23.144872       1     0.238732      0 
     282      1      9.412325     0.978247    23.148956       1     0.238732      0 
     283      1      9.260077     1.934600    23.150314       1     0.238732      0 
     284      1      9.011963     2.881986    23.150312       1     0.238732      0 
     285      1      8.672820     3.792048    23.148185       1     0.238732      0 
     286      1      8.234643     4.657779    23.146358       1     0.238732      0 
     287      1      7.712267     5.480840    23.147648       1     0.238732      0 
     288      1      7.110544     6.245248    23.146068       1     0.238732      0 
     289      1      6.430582     6.940151    23.149930       1     0.238732      0 
     290      1      5.680791     7.569871    23.152347       1     0.238732      0 
     291      2      4.869193     8.110364    23.146017       1     0.238732      0 
     292      1      4.010508     8.563588    23.147859       1     0.238732      0 
     293      1      3.115232     8.936959    23.147015       1     0.238732      0 
     294      1      2.171984     9.211020    23.146288       1     0.238732      0 
     295      1      1.218905     9.378133    23.147101       1     0.238732      0 
     296      1      0.245126     9.459970    23.151875       1     0.238732      0 
     297      1     -0.719907     9.429326    23.152631       1     0.238732      0 
     298      1     -1.687972     9.302050    23.143143       1     0.238732      0 
     299      1     -2.637531     9.083521    23.149114       1     0.238732      0 
     300      1     -3.557250     8.767738    23.150955       1     0.238732      0 
     301      2     -4.443032     8.353418    23.149484       1     0.238732      0 
     302      1     -5.271373     7.848641    23.144269       1     0.238732      0 
     303      1     -6.056382     7.267485    23.150204       1     0.238732      0 
     304      1     -6.770502     6.603873    23.144077       1     0.238732      0 
     305      1     -7.408633     5.872272    23.148947       1     0.238732      0 
     306      1     -7.976928     5.083884    23.151575       1     0.238732      0 
     307      1     -8.449191     4.233058    23.145406       1     0.238732      0 
     308      1     -8.839024     3.343106    23.145059       1     0.238732      0 
     309      1     -9.136019     2.415063    23.143478       1     0.238732      0 
     310      1     -9.340869     1.456457    23.151375       1     0.238732      0 
     311      2     -9.435864     0.493661    23.143382       1     0.238732      0 
     312      1     -9.437274    -0.482795    23.146772       1     0.238732      0 
     313      1     -9.332638    -1.453757    23.144847       1     0.238732      0 
     314      1     -9.136754    -2.401505    23.148140       1     0.238732      0 
     315      1     -8.839196    -3.330295    23.148059       1     0.238732      0 
     316      1     -8.452834    -4.226631    23.151748       1     0.238732      0 
     317      1     -7.973571    -5.069225    23.148811       1     0.238732      0 
     318      1     -7.405597    -5.864715    23.144809       1     0.238732      0 
     319      1     -6.770382    -6.590511    23.152183       1     0.238732      0 
     320      1     -6.055475    -7.260217    23.149736       1     0.238732      0 
     321      1     -5.276459    -7.842567    23.148126       1     0.238732      0 
     322      2     -4.439719    -8.336919    23.151320       1     0.238732      0 
     323      1     -3.553647    -8.756209    23.145976       1     0.238732      0 
     324      1     -2.634502    -9.075037    23.151909       1     0.238732      0 
     325      1     -1.694494    -9.298367    23.148414       1     0.238732      0 
     326      1     -0.725701    -9.418796    23.144025       1     0.238732      0 
     327      1      0.248715    -9.446151    23.147935       1     0.238732      0 
     328      1      1.218174    -9.368602    23.146317       1     0.238732      0 
     329      1      2.178265    -9.201349    23.148530       1     0.238732      0 
     330      1      3.112647    -8.928221    23.152666       1     0.238732      0 
     331      1      4.011029    -8.557117    23.146774       1     0.238732      0 
     332      2      4.871681    -8.105268    23.143364       1     0.238732      0 
     333      1      5.675179    -7.555048    23.150494       1     0.238732      0 
     334      1      6.432368    -6.932850    23.146348       1     0.238732      0 
     335      1      7.103621    -6.233752    23.149752       1     0.238732      0 
     336      1      7.707152    -5.476818    23.148078       1     0.238732      0 
     337      1      8.232268    -4.649661    23.151676       1     0.238732      0 
     338      1      8.665754    -3.778720    23.150586       1     0.238732      0 
     339      1      9.012061    -2.866592    23.147078       1     0.238732      0 
     340      1      9.258472    -1.929747    23.148240       1     0.238732      0 
     341      1      9.414400    -0.970297    23.148937       1     0.238732      0 
     342      1     10.354471     0.003030    22.764156       1     0.238732      0 
     343      1     10.300338     0.971954    22.766412       1     0.238732      0 
     344      1     10.171217     1.933399    22.766359       1     0.238732      0 
     345      1      9.941237     2.875879    22.761015       1     0.238732      0 
     346      1      9.630141     3.796556    22.763622       1     0.238732      0 
     347      1      9.234166     4.684418    22.764260       1     0.238732      0 
     348      1      8.759787     5.521545    22.760564       1     0.238732      0 
     349      1      8.199311     6.316269    22.766893       1     0.238732      0 
     350      1      7.577718     7.062693    22.760728       1     0.238732      0 