LAMMPS (7 Jul 2009)
Running on 4 partitions of processors
Step Clock Event Correlated Replica
1000 0 0 0 0
1100 400 1 0 0
1200 500 2 1 0
1500 1400 3 0 1
2000 3100 4 0 1
2900 6400 5 0 3
Loop time of 11.7172 on 4 procs for 2000 steps with 511 atoms
