LAMMPS (5 Oct 2016)
Running on 4 partitions of processors
Step CPU Clock Event Correlated Coincident Replica
100 0.000 0 0 0 0 0
100 0.288 0 0 0 0 0
100 0.372 0 0 0 0 0
100 0.456 0 0 0 0 0
100 0.498 0 0 0 0 0
200 0.799 400 1 0 4 1
300 0.996 500 2 1 1 1
500 1.826 772 3 0 2 2
800 2.854 1328 4 0 2 2
1000 3.686 1636 5 0 1 3
1000 4.192 1636 5 0 1 3
1200 4.632 1908 6 0 1 2
1300 4.831 2008 7 1 1 2
1900 6.470 4024 8 0 1 3
1900 6.757 4024 8 0 1 3
1900 6.933 4024 8 0 1 3
1900 7.019 4024 8 0 1 3
2100 7.426 4220 9 0 2 3
Loop time of 7.42886 on 8 procs for 2000 steps with 511 atoms
