LAMMPS (10 Sep 2010)
Running on 4 partitions of processors
Step CPU Clock Event Correlated Coincident Replica
1000 0.000 0 0 0 0 0
1100 0.903 400 1 0 1 0
1300 2.312 900 2 0 1 3
1700 4.773 2200 3 0 1 2
1800 5.266 2300 4 1 1 2
2100 7.206 3200 5 0 1 0
2300 8.650 3700 6 0 1 2
2500 10.065 4200 7 0 1 1
3000 13.010 5900 8 0 2 1
Loop time of 13.0158 on 4 procs for 2000 steps with 511 atoms
