LAMMPS (15 Jan 2010)
Running on 4 partitions of processors
Step CPU Clock Event Correlated Coincident Replica
1000 0.000 0 0 0 0 0
1100 2.006 400 1 0 1 0
1200 3.150 500 2 1 1 0
1500 7.677 1400 3 0 1 1
2000 14.511 3100 4 0 1 1
2900 25.874 6400 5 0 1 3
Loop time of 27.051 on 4 procs for 2000 steps with 511 atoms
