960
# CELL(abcABC):   97.88781    94.18395   377.94522    90.00000    90.00000    90.00000  Traj: positions{angstrom} Step:           0  Bead:       1 
       C  7.15475e-01  1.26524e+00  9.97915e+01
       C  2.09985e+00  1.18143e+00  9.97109e+01
       C  5.07242e+00  1.23374e+00  9.96719e+01
       C  4.29041e+00  4.98626e+01  9.97308e+01
       C  6.47807e+00  1.15077e+00  9.95883e+01
       C  7.18569e+00  4.97877e+01  9.95694e+01
       C  9.35911e+00  1.19990e+00  9.95027e+01
       C  8.63601e+00  6.42175e-03  9.94842e+01
       C  1.08206e+01  1.21481e+00  9.95814e+01
       C  1.15374e+01 -1.68189e-02  9.95679e+01
       C  1.37470e+01  1.18985e+00  9.96755e+01
       C  1.51563e+01  1.23490e+00  9.95861e+01
       C  1.80384e+01  1.25728e+00  9.96417e+01
       C  1.72820e+01  4.98419e+01  9.96231e+01
       C  1.94063e+01  1.27641e+00  9.96542e+01
       C  2.23076e+01  1.32718e+00  9.93593e+01
       C  2.37552e+01  1.25278e+00  9.91791e+01
       C  2.44592e+01  4.98163e+01  9.91590e+01
       C  2.66342e+01  1.27670e+00  9.90688e+01
       C  2.80589e+01  1.22070e+00  9.90885e+01
       C  3.10029e+01  1.21580e+00  9.90967e+01
       C  3.23935e+01  1.21806e+00  9.91951e+01
       C  3.52403e+01  1.24742e+00  9.93940e+01
       C  3.66656e+01  1.16527e+00  9.95791e+01
       C  3.96153e+01  1.16044e+00  9.96550e+01
       C  4.09651e+01  1.23964e+00  9.98787e+01
       C  4.31792e+01 -5.88367e-03  1.00166e+02
       C  4.38776e+01  1.28179e+00  1.00075e+02
       C  4.53623e+01  1.24893e+00  1.00040e+02
       C  4.81683e+01  1.27366e+00  9.99208e+01
       C  4.96696e+01  1.27345e+00  1.00001e+02
       C  5.03959e+01  1.09601e-02  1.00104e+02
       C  7.56174e-01  3.76124e+00  9.98238e+01
       C  2.18247e+00  3.76133e+00  9.97643e+01
       C  2.82638e+00  2.50778e+00  9.96712e+01
       C  4.35925e+00  2.44300e+00  9.97631e+01
       C  5.00628e+00  3.74090e+00  9.97389e+01
       C  6.45458e+00  3.72771e+00  9.97150e+01
       C  7.20557e+00  2.50215e+00  9.96567e+01
       C  8.59516e+00  2.53369e+00  9.97364e+01
       C  9.32931e+00  3.78970e+00  9.97350e+01
       C  1.08086e+01  3.76443e+00  9.97171e+01
       C  1.15551e+01  2.48504e+00  9.96546e+01
       C  1.29523e+01  2.51175e+00  9.97536e+01
       C  1.37177e+01  3.73244e+00  9.98278e+01
       C  1.51433e+01  3.78951e+00  9.96946e+01
       C  1.59105e+01  2.48807e+00  9.97076e+01
       C  1.73245e+01  2.51722e+00  9.96218e+01
       C  1.80234e+01  3.86573e+00  9.96142e+01
       C  1.95028e+01  3.76523e+00  9.96809e+01
       C  2.01963e+01  2.49746e+00  9.95706e+01
       C  2.15903e+01  2.52594e+00  9.95049e+01
       C  2.22727e+01  3.74215e+00  9.95433e+01
       C  2.36941e+01  3.76361e+00  9.94564e+01
       C  2.44605e+01  2.48306e+00  9.92345e+01
       C  2.58672e+01  2.51328e+00  9.92446e+01
       C  2.65575e+01  3.78264e+00  9.91708e+01
       C  2.79403e+01  3.73756e+00  9.91542e+01
       C  2.87630e+01  2.49138e+00  9.90104e+01
       C  3.02406e+01  2.43653e+00  9.91853e+01
       C  3.09422e+01  3.67794e+00  9.93689e+01
       C  3.23624e+01  3.76906e+00  9.93265e+01
       C  3.30942e+01  2.49803e+00  9.94022e+01
       C  3.45240e+01  2.54321e+00  9.94370e+01
       C  3.52839e+01  3.78087e+00  9.94376e+01
       C  3.67153e+01  3.73090e+00  9.96235e+01
       C  3.74957e+01  2.46816e+00  9.96741e+01
       C  3.89134e+01  2.39985e+00  9.96723e+01
       C  3.95925e+01  3.72094e+00  9.96670e+01
       C  4.09643e+01  3.81100e+00  9.98867e+01
       C  4.16092e+01  2.50240e+00  9.99189e+01
       C  4.31139e+01  2.49241e+00  9.99606e+01
       C  4.38609e+01  3.70909e+00  9.99792e+01
       C  4.53171e+01  3.81696e+00  9.99525e+01
       C  4.61016e+01  2.51291e+00  9.97815e+01
       C  4.74989e+01  2.53256e+00  9.98790e+01
       C  4.82378e+01  3.78328e+00  9.98946e+01
       C  4.96791e+01  3.78153e+00  9.99441e+01
       C -3.61630e-04  2.52922e+00  9.98560e+01
       C  5.03215e+01  2.52163e+00  9.99528e+01
       C  7.33542e-02  4.99492e+00  9.97883e+01
       C  2.90472e+00  4.92130e+00  9.97997e+01
       C  4.35362e+00  4.94272e+00  9.98204e+01
       C  5.07614e+00  6.28027e+00  9.98669e+01
       C  7.20903e+00  4.94745e+00  9.97378e+01
       C  8.63029e+00  5.00854e+00  9.99069e+01
       C  9.33132e+00  6.26477e+00  9.99490e+01
       C  1.15603e+01  5.00468e+00  9.98542e+01
       C  1.07707e+01  6.22893e+00  9.99342e+01
       C  1.30079e+01  4.96013e+00  9.99010e+01
       C  1.37542e+01  6.15440e+00  1.00085e+02
       C  1.59647e+01  4.97450e+00  9.98998e+01
       C  1.52572e+01  6.27153e+00  1.00092e+02
       C  1.73532e+01  5.01418e+00  9.98302e+01
       C  2.01912e+01  5.01593e+00  9.99073e+01
       C  1.94926e+01  6.25424e+00  9.99078e+01
       C  2.15799e+01  5.01634e+00  9.97224e+01
       C  2.44379e+01  5.02681e+00  9.93652e+01
       C  2.58272e+01  5.06410e+00  9.92275e+01
       C  2.87350e+01  4.96504e+00  9.92876e+01
       C  3.01232e+01  4.90495e+00  9.93011e+01
       C  3.08408e+01  6.18012e+00  9.93137e+01
       C  3.30954e+01  4.95601e+00  9.94533e+01
       C  3.24056e+01  6.20124e+00  9.93675e+01
       C  3.44671e+01  4.96070e+00  9.94296e+01
       C  3.66464e+01  6.19117e+00  9.94884e+01
       C  3.52131e+01  6.21219e+00  9.94760e+01
       C  3.74510e+01  4.99791e+00  9.96568e+01
       C  3.88754e+01  5.02180e+00  9.96026e+01
       C  3.95390e+01  6.27138e+00  9.97042e+01
       C  4.09454e+01  6.28830e+00  9.96758e+01
       C  4.16831e+01  4.97917e+00  9.97852e+01
       C  4.31755e+01  4.92600e+00  9.98564e+01
       C  4.53625e+01  6.25893e+00  1.00014e+02
       C  4.61296e+01  4.94611e+00  9.99725e+01
       C  4.74903e+01  4.97929e+00  9.99317e+01
       C  4.96879e+01  6.25835e+00  9.98914e+01
       C  5.04272e+01  4.95142e+00  9.98507e+01
       C  7.44202e-01  6.27981e+00  9.97438e+01
       C  6.88070e-02  7.54970e+00  9.98751e+01
       C  2.24073e+00  6.25390e+00  9.97347e+01
       C  2.90977e+00  7.53360e+00  9.98787e+01
       C  4.31267e+00  7.48247e+00  9.99233e+01
       C  6.53839e+00  6.19644e+00  9.99361e+01
       C  7.24392e+00  7.48431e+00  9.98642e+01
       C  8.64919e+00  7.52039e+00  1.00035e+02
       C  1.14541e+01  7.43854e+00  1.00118e+02
       C  1.30609e+01  7.43411e+00  1.00193e+02
       C  1.58865e+01  7.46216e+00  1.00204e+02
       C  1.80096e+01  6.32129e+00  9.99934e+01
       C  1.73317e+01  7.59535e+00  1.00034e+02
       C  2.01633e+01  7.53227e+00  1.00093e+02
       C  2.22586e+01  6.25485e+00  9.97886e+01
       C  2.16252e+01  7.47374e+00  1.00042e+02
       C  2.37090e+01  6.24723e+00  9.95215e+01
       C  2.44472e+01  7.45956e+00  9.97329e+01
       C  2.65938e+01  6.26486e+00  9.94068e+01
       C  2.59269e+01  7.56389e+00  9.95782e+01
       C  2.79980e+01  6.27947e+00  9.93186e+01
       C  2.87899e+01  7.53591e+00  9.93770e+01
       C  3.02013e+01  7.45235e+00  9.93433e+01
       C  3.31168e+01  7.55447e+00  9.92450e+01
       C  3.44790e+01  7.48432e+00  9.93389e+01
       C  3.73901e+01  7.46595e+00  9.93949e+01
       C  3.88440e+01  7.45565e+00  9.95290e+01
       C  4.17744e+01  7.47535e+00  9.97232e+01
       C  4.31668e+01  7.50094e+00  9.98098e+01
       C  4.38798e+01  6.20881e+00  9.98295e+01
       C  4.60553e+01  7.51885e+00  1.00029e+02
       C  4.74587e+01  7.48011e+00  1.00034e+02
       C  4.82104e+01  6.22294e+00  9.99435e+01
       C  5.04203e+01  7.45810e+00  9.99697e+01
       C  8.30528e-01  8.77773e+00  9.98631e+01
       C  2.21986e+00  8.79661e+00  9.98252e+01
       C  2.90210e+00  1.00354e+01  1.00024e+02
       C  4.31699e+00  9.96572e+00  1.00059e+02
       C  5.05907e+00  8.75036e+00  1.00059e+02
       C  6.47025e+00  8.71765e+00  9.99914e+01
       C  7.17050e+00  1.00157e+01  1.00136e+02
       C  8.62562e+00  1.00171e+01  1.00115e+02
       C  9.37673e+00  8.75425e+00  1.00115e+02
       C  1.08201e+01  8.75172e+00  1.00165e+02
       C  1.15467e+01  9.95158e+00  1.00387e+02
       C  1.29745e+01  9.99930e+00  1.00324e+02
       C  1.37689e+01  8.71940e+00  1.00242e+02
       C  1.51824e+01  8.67230e+00  1.00214e+02
       C  1.58286e+01  9.98723e+00  1.00262e+02
       C  1.72465e+01  1.00565e+01  1.00342e+02
       C  1.80152e+01  8.83510e+00  1.00111e+02
       C  1.95189e+01  8.72224e+00  1.00148e+02
       C  2.01578e+01  9.95870e+00  1.00311e+02
       C  2.15983e+01  9.96392e+00  1.00153e+02
       C  2.23249e+01  8.73572e+00  9.99998e+01
       C  2.38185e+01  8.79828e+00  9.97522e+01
       C  2.44112e+01  1.00167e+01  9.98071e+01
       C  2.59015e+01  9.99576e+00  9.96729e+01
       C  2.66095e+01  8.81002e+00  9.95022e+01
       C  2.80544e+01  8.75455e+00  9.94332e+01
       C  2.87933e+01  1.00174e+01  9.93819e+01
       C  3.02215e+01  9.95358e+00  9.92674e+01
       C  3.09640e+01  8.65179e+00  9.92660e+01
       C  3.23652e+01  8.75732e+00  9.92849e+01
       C  3.31202e+01  1.00008e+01  9.92750e+01
       C  3.45341e+01  9.99506e+00  9.92639e+01
       C  3.52413e+01  8.70544e+00  9.92539e+01
       C  3.66712e+01  8.74182e+00  9.93861e+01
       C  3.73720e+01  9.99555e+00  9.94924e+01
       C  3.88359e+01  9.98676e+00  9.95701e+01
       C  3.95877e+01  8.73402e+00  9.96686e+01
       C  4.09753e+01  8.75391e+00  9.96925e+01
       C  4.17070e+01  1.00049e+01  9.97874e+01
       C  4.31349e+01  9.94821e+00  9.99504e+01
       C  4.39089e+01  8.71878e+00  1.00086e+02
       C  4.53361e+01  8.78477e+00  1.00116e+02
       C  4.60229e+01  9.98575e+00  1.00214e+02
       C  4.74987e+01  9.97083e+00  1.00183e+02
       C  4.81831e+01  8.76035e+00  1.00024e+02
       C  4.96263e+01  8.73854e+00  1.00024e+02
       C  1.50975e-02  9.99967e+00  9.99803e+01
       C  5.04140e+01  9.97671e+00  1.00048e+02
       C  7.21168e-01  1.12483e+01  1.00074e+02
       C  2.16235e+00  1.12122e+01  1.00104e+02
       C  5.00459e+00  1.12016e+01  1.00159e+02
       C  4.27672e+00  1.24770e+01  1.00305e+02
       C  6.46397e+00  1.12249e+01  1.00223e+02
       C  7.18559e+00  1.24569e+01  1.00326e+02
       C  9.34207e+00  1.11909e+01  1.00209e+02
       C  8.62980e+00  1.24359e+01  1.00298e+02
       C  1.08335e+01  1.12001e+01  1.00344e+02
       C  1.15212e+01  1.24114e+01  1.00403e+02
       C  1.36786e+01  1.12054e+01  1.00305e+02
       C  1.29271e+01  1.24720e+01  1.00390e+02
       C  1.51367e+01  1.12076e+01  1.00268e+02
       C  1.58175e+01  1.24509e+01  1.00391e+02
       C  1.79478e+01  1.12563e+01  1.00263e+02
       C  1.72371e+01  1.24704e+01  1.00307e+02
       C  1.94224e+01  1.12249e+01  1.00306e+02
       C  2.22466e+01  1.12854e+01  1.00111e+02
       C  2.36633e+01  1.12144e+01  9.99619e+01
       C  2.66377e+01  1.12763e+01  9.97787e+01
       C  2.80453e+01  1.12758e+01  9.95366e+01
       C  3.08598e+01  1.11999e+01  9.94477e+01
       C  3.01892e+01  1.24444e+01  9.96171e+01
       C  3.22474e+01  1.12255e+01  9.93787e+01
       C  3.44967e+01  1.25087e+01  9.93653e+01
       C  3.52223e+01  1.12734e+01  9.92114e+01
       C  3.66757e+01  1.12433e+01  9.94530e+01
       C  3.74904e+01  1.24702e+01  9.95400e+01
       C  3.88448e+01  1.25103e+01  9.95596e+01
       C  3.95514e+01  1.12522e+01  9.95215e+01
       C  4.09970e+01  1.11841e+01  9.96851e+01
       C  4.16899e+01  1.24748e+01  9.97940e+01
       C  4.30798e+01  1.24963e+01  9.99837e+01
       C  4.38251e+01  1.12466e+01  1.00120e+02
       C  4.52875e+01  1.12579e+01  1.00294e+02
       C  4.74570e+01  1.25523e+01  1.00293e+02
       C  4.81948e+01  1.12220e+01  1.00240e+02
       C  4.96708e+01  1.12857e+01  1.00072e+02
       C  5.03961e+01  1.25114e+01  1.00058e+02
       C  7.82038e-01  1.37079e+01  1.00220e+02
       C  2.87647e+00  1.25073e+01  1.00228e+02
       C  2.20327e+00  1.36971e+01  1.00248e+02
       C  5.04209e+00  1.37019e+01  1.00413e+02
       C  6.43132e+00  1.36692e+01  1.00366e+02
       C  9.34345e+00  1.36582e+01  1.00405e+02
       C  1.07793e+01  1.36902e+01  1.00505e+02
       C  1.36765e+01  1.36808e+01  1.00559e+02
       C  1.51661e+01  1.37291e+01  1.00528e+02
       C  1.79925e+01  1.36871e+01  1.00259e+02
       C  2.01334e+01  1.24847e+01  1.00275e+02
       C  1.94293e+01  1.36772e+01  1.00216e+02
       C  2.15890e+01  1.25667e+01  1.00212e+02
       C  2.22853e+01  1.37648e+01  1.00175e+02
       C  2.44437e+01  1.24876e+01  1.00049e+02
       C  2.36852e+01  1.37373e+01  1.00161e+02
       C  2.59025e+01  1.24146e+01  1.00067e+02
       C  2.66382e+01  1.37253e+01  1.00157e+02
       C  2.86958e+01  1.24567e+01  9.97143e+01
       C  2.80291e+01  1.37583e+01  9.98810e+01
       C  3.09541e+01  1.36987e+01  9.96385e+01
       C  3.30307e+01  1.25038e+01  9.94869e+01
       C  3.23206e+01  1.36960e+01  9.96018e+01
       C  3.51955e+01  1.36687e+01  9.95451e+01
       C  3.66979e+01  1.37342e+01  9.96328e+01
       C  3.95700e+01  1.36660e+01  9.96980e+01
       C  4.10043e+01  1.36583e+01  9.96568e+01
       C  4.38511e+01  1.37501e+01  1.00048e+02
       C  4.53340e+01  1.37751e+01  1.00157e+02
       C  4.60095e+01  1.24963e+01  1.00257e+02
       C  4.81811e+01  1.37680e+01  1.00108e+02
       C  4.96415e+01  1.37033e+01  1.00154e+02
       C -2.17408e-02  1.24597e+01  1.00085e+02
       C  7.26583e-01  1.61531e+01  1.00442e+02
       C  2.13716e+00  1.62093e+01  1.00545e+02
       C  2.83786e+00  1.49484e+01  1.00474e+02
       C  4.35055e+00  1.49333e+01  1.00490e+02
       C  5.03384e+00  1.61358e+01  1.00620e+02
       C  6.50918e+00  1.61334e+01  1.00562e+02
       C  7.16230e+00  1.49015e+01  1.00475e+02
       C  9.31006e+00  1.61444e+01  1.00701e+02
       C  8.62909e+00  1.48708e+01  1.00465e+02
       C  1.07518e+01  1.61371e+01  1.00541e+02
       C  1.14798e+01  1.49688e+01  1.00544e+02
       C  1.29924e+01  1.49289e+01  1.00592e+02
       C  1.37314e+01  1.61748e+01  1.00725e+02
       C  1.50938e+01  1.62142e+01  1.00631e+02
       C  1.58391e+01  1.49530e+01  1.00524e+02
       C  1.72907e+01  1.49945e+01  1.00351e+02
       C  1.79562e+01  1.61469e+01  1.00403e+02
       C  1.93330e+01  1.62000e+01  1.00338e+02
       C  2.00983e+01  1.49323e+01  1.00239e+02
       C  2.15596e+01  1.49233e+01  1.00208e+02
       C  2.22941e+01  1.62383e+01  1.00173e+02
       C  2.37295e+01  1.61793e+01  1.00154e+02
       C  2.44201e+01  1.49307e+01  1.00272e+02
       C  2.58786e+01  1.49564e+01  1.00195e+02
       C  2.65593e+01  1.62375e+01  1.00189e+02
       C  2.80070e+01  1.62063e+01  9.99993e+01
       C  2.87750e+01  1.49617e+01  9.98936e+01
       C  3.02117e+01  1.49310e+01  9.97824e+01
       C  3.09434e+01  1.62188e+01  9.98531e+01
       C  3.23523e+01  1.61345e+01  9.97664e+01
       C  3.31046e+01  1.49607e+01  9.97889e+01
       C  3.45593e+01  1.49658e+01  9.96691e+01
       C  3.52826e+01  1.62414e+01  9.97540e+01
       C  3.67995e+01  1.62738e+01  9.97377e+01
       C  3.74070e+01  1.49190e+01  9.97243e+01
       C  3.88355e+01  1.49316e+01  9.96978e+01
       C  3.96026e+01  1.62062e+01  9.96739e+01
       C  4.10129e+01  1.62012e+01  9.96778e+01
       C  4.17296e+01  1.49416e+01  9.96986e+01
       C  4.31408e+01  1.49484e+01  9.99303e+01
       C  4.38656e+01  1.62035e+01  1.00047e+02
       C  4.53313e+01  1.62308e+01  9.99663e+01
       C  4.60502e+01  1.49411e+01  1.00082e+02
       C  4.75274e+01  1.49531e+01  1.00116e+02
       C  4.82791e+01  1.61588e+01  1.00073e+02
       C  4.96803e+01  1.61896e+01  1.00328e+02
       C  2.63732e-02  1.48734e+01  1.00302e+02
       C  5.04069e+01  1.49277e+01  1.00126e+02
       C  5.17817e+01  1.73814e+01  1.00615e+02
       C  2.89736e+00  1.73837e+01  1.00652e+02
       C  4.28277e+00  1.73655e+01  1.00787e+02
       C  7.16644e+00  1.73987e+01  1.00721e+02
       C  6.50923e+00  1.86598e+01  1.00629e+02
       C  8.56878e+00  1.73892e+01  1.00716e+02
       C  9.34207e+00  1.87009e+01  1.00737e+02
       C  1.15270e+01  1.73541e+01  1.00574e+02
       C  1.07842e+01  1.86409e+01  1.00651e+02
       C  1.29506e+01  1.74311e+01  1.00662e+02
       C  1.36492e+01  1.87294e+01  1.00770e+02
       C  1.58268e+01  1.74833e+01  1.00617e+02
       C  1.51221e+01  1.87132e+01  1.00761e+02
       C  1.72658e+01  1.74517e+01  1.00609e+02
       C  1.80149e+01  1.87003e+01  1.00419e+02
       C  2.01246e+01  1.74368e+01  1.00253e+02
       C  1.94012e+01  1.86631e+01  1.00329e+02
       C  2.15500e+01  1.74805e+01  1.00251e+02
       C  2.44831e+01  1.73863e+01  1.00246e+02
       C  2.37429e+01  1.86851e+01  1.00340e+02
       C  2.59261e+01  1.74435e+01  1.00262e+02
       C  2.88096e+01  1.74730e+01  1.00100e+02
       C  2.80913e+01  1.86526e+01  1.00147e+02
       C  3.01947e+01  1.74230e+01  9.98905e+01
       C  3.10083e+01  1.86937e+01  9.98218e+01
       C  3.31604e+01  1.74492e+01  9.97308e+01
       C  3.24243e+01  1.86823e+01  9.97935e+01
       C  3.45396e+01  1.74232e+01  9.97990e+01
       C  3.67146e+01  1.87600e+01  9.97671e+01
       C  3.51920e+01  1.86552e+01  9.97032e+01
       C  3.74297e+01  1.74780e+01  9.97121e+01
       C  3.88594e+01  1.74445e+01  9.96035e+01
       C  3.96021e+01  1.86863e+01  9.96106e+01
       C  4.10236e+01  1.86818e+01  9.96474e+01
       C  4.17553e+01  1.74707e+01  9.96953e+01
       C  4.31620e+01  1.74467e+01  9.98170e+01
       C  4.53863e+01  1.86499e+01  9.97611e+01
       C  4.60674e+01  1.74100e+01  9.99602e+01
       C  4.75643e+01  1.73740e+01  1.00102e+02
       C  4.82219e+01  1.86802e+01  1.00191e+02
       C  5.03766e+01  1.73726e+01  1.00463e+02
       C  6.97739e-01  1.86444e+01  1.00646e+02
       C  5.18267e+01  1.98784e+01  1.00518e+02
       C  2.15833e+00  1.86174e+01  1.00692e+02
       C  2.78211e+00  1.98784e+01  1.00654e+02
       C  5.07541e+00  1.86011e+01  1.00617e+02
       C  4.28743e+00  1.98968e+01  1.00605e+02
       C  7.16547e+00  1.99196e+01  1.00625e+02
       C  8.63227e+00  1.99160e+01  1.00613e+02
       C  1.14683e+01  1.98891e+01  1.00716e+02
       C  1.29629e+01  1.99727e+01  1.00740e+02
       C  1.58307e+01  1.98623e+01  1.00727e+02
       C  1.72573e+01  1.99660e+01  1.00608e+02
       C  2.01224e+01  1.99158e+01  1.00449e+02
       C  2.23715e+01  1.87214e+01  1.00388e+02
       C  2.16001e+01  1.99265e+01  1.00457e+02
       C  2.44404e+01  1.99298e+01  1.00263e+02
       C  2.66394e+01  1.87206e+01  1.00264e+02
       C  2.59373e+01  1.99380e+01  1.00277e+02
       C  2.88253e+01  1.98892e+01  9.99868e+01
       C  3.01738e+01  1.99590e+01  9.98605e+01
       C  3.31183e+01  1.99246e+01  9.96466e+01
       C  3.45653e+01  1.99529e+01  9.94789e+01
       C  3.74250e+01  1.99200e+01  9.96342e+01
       C  3.88813e+01  1.99615e+01  9.95928e+01
       C  4.17205e+01  1.99349e+01  9.96164e+01
       C  4.32000e+01  1.99385e+01  9.97310e+01
       C  4.38470e+01  1.86453e+01  9.98093e+01
       C  4.60683e+01  1.99245e+01  9.97845e+01
       C  4.75120e+01  1.98620e+01  1.00049e+02
       C  4.96674e+01  1.86876e+01  1.00354e+02
       C  5.03890e+01  1.99298e+01  1.00379e+02
       C  6.71950e-01  2.11975e+01  1.00474e+02
       C  5.17716e+01  2.24401e+01  1.00468e+02
       C  2.11520e+00  2.11292e+01  1.00587e+02
       C  2.88256e+00  2.23528e+01  1.00611e+02
       C  4.31890e+00  2.23719e+01  1.00603e+02
       C  5.02428e+00  2.11082e+01  1.00557e+02
       C  6.43098e+00  2.11261e+01  1.00628e+02
       C  7.14875e+00  2.24455e+01  1.00671e+02
       C  8.60647e+00  2.23949e+01  1.00507e+02
       C  9.31604e+00  2.11548e+01  1.00610e+02
       C  1.07909e+01  2.12088e+01  1.00604e+02
       C  1.15353e+01  2.24639e+01  1.00674e+02
       C  1.29486e+01  2.23978e+01  1.00767e+02
       C  1.37037e+01  2.12403e+01  1.00749e+02
       C  1.51174e+01  2.11230e+01  1.00740e+02
       C  1.58073e+01  2.24090e+01  1.00751e+02
       C  1.72622e+01  2.24316e+01  1.00725e+02
       C  1.79601e+01  2.12533e+01  1.00543e+02
       C  1.94157e+01  2.11378e+01  1.00474e+02
       C  2.01160e+01  2.24034e+01  1.00395e+02
       C  2.15552e+01  2.24255e+01  1.00307e+02
       C  2.23905e+01  2.12175e+01  1.00338e+02
       C  2.37695e+01  2.11767e+01  1.00368e+02
       C  2.44933e+01  2.24418e+01  1.00308e+02
       C  2.59487e+01  2.23958e+01  1.00251e+02
       C  2.66407e+01  2.11925e+01  1.00210e+02
       C  2.80543e+01  2.11720e+01  1.00038e+02
       C  2.87713e+01  2.24019e+01  1.00025e+02
       C  3.01837e+01  2.24324e+01  9.98600e+01
       C  3.09012e+01  2.12118e+01  9.98976e+01
       C  3.23857e+01  2.11199e+01  9.97145e+01
       C  3.30675e+01  2.23864e+01  9.96202e+01
       C  3.45113e+01  2.23677e+01  9.95985e+01
       C  3.52772e+01  2.11473e+01  9.95098e+01
       C  3.67043e+01  2.11666e+01  9.95715e+01
       C  3.88496e+01  2.24526e+01  9.95587e+01
       C  3.74127e+01  2.24245e+01  9.96227e+01
       C  3.95507e+01  2.11990e+01  9.95519e+01
       C  4.10354e+01  2.12545e+01  9.94984e+01
       C  4.18100e+01  2.24549e+01  9.95854e+01
       C  4.32115e+01  2.24216e+01  9.97108e+01
       C  4.39661e+01  2.11405e+01  9.97145e+01
       C  4.53023e+01  2.11203e+01  9.97839e+01
       C  4.60564e+01  2.23940e+01  9.97751e+01
       C  4.74731e+01  2.24283e+01  9.99531e+01
       C  4.82862e+01  2.11789e+01  1.00192e+02
       C  4.96423e+01  2.11583e+01  1.00354e+02
       C  5.03666e+01  2.24277e+01  1.00336e+02
       C  6.86031e-01  2.37192e+01  1.00448e+02
       C  2.12202e+00  2.36401e+01  1.00512e+02
       C  5.02590e+00  2.36731e+01  1.00673e+02
       C  6.46685e+00  2.36629e+01  1.00637e+02
       C  9.31787e+00  2.36708e+01  1.00596e+02
       C  1.07390e+01  2.36621e+01  1.00709e+02
       C  1.36603e+01  2.36638e+01  1.00843e+02
       C  1.50724e+01  2.36763e+01  1.00828e+02
       C  1.58455e+01  2.49260e+01  1.00789e+02
       C  1.79728e+01  2.36833e+01  1.00782e+02
       C  1.93928e+01  2.36645e+01  1.00583e+02
       C  2.23040e+01  2.36437e+01  1.00290e+02
       C  2.37638e+01  2.36901e+01  1.00313e+02
       C  2.45439e+01  2.48865e+01  1.00301e+02
       C  2.66974e+01  2.36595e+01  1.00219e+02
       C  2.81066e+01  2.36954e+01  1.00121e+02
       C  3.09323e+01  2.36854e+01  9.98206e+01
       C  3.02590e+01  2.49015e+01  9.99250e+01
       C  3.24217e+01  2.36000e+01  9.97547e+01
       C  3.53487e+01  2.36474e+01  9.96215e+01
       C  3.66544e+01  2.36247e+01  9.96578e+01
       C  4.10552e+01  2.37399e+01  9.96575e+01
       C  3.95839e+01  2.36765e+01  9.96612e+01
       C  4.32191e+01  2.48941e+01  9.98372e+01
       C  4.53805e+01  2.36582e+01  9.97502e+01
       C  4.38970e+01  2.37169e+01  9.97074e+01
       C  4.60697e+01  2.49301e+01  9.98640e+01
       C  4.75013e+01  2.48808e+01  9.99776e+01
       C  4.82238e+01  2.36370e+01  1.00101e+02
       C  4.96477e+01  2.36241e+01  1.00314e+02
       C  5.03582e+01  2.48602e+01  1.00326e+02
       C  5.18095e+01  2.49903e+01  1.00431e+02
       C  7.06744e-01  2.61730e+01  1.00497e+02
       C  2.80026e+00  2.48519e+01  1.00604e+02
       C  2.11058e+00  2.61414e+01  1.00545e+02
       C  4.23039e+00  2.48551e+01  1.00665e+02
       C  5.03410e+00  2.60982e+01  1.00600e+02
       C  7.14960e+00  2.49199e+01  1.00605e+02
       C  6.36160e+00  2.61625e+01  1.00571e+02
       C  8.53274e+00  2.49093e+01  1.00593e+02
       C  9.38628e+00  2.61525e+01  1.00665e+02
       C  1.15388e+01  2.49238e+01  1.00758e+02
       C  1.08031e+01  2.61619e+01  1.00835e+02
       C  1.29637e+01  2.48995e+01  1.00778e+02
       C  1.36443e+01  2.61449e+01  1.01017e+02
       C  1.50960e+01  2.61585e+01  1.00967e+02
       C  1.72550e+01  2.49011e+01  1.00865e+02
       C  1.80668e+01  2.61154e+01  1.00738e+02
       C  2.01408e+01  2.49264e+01  1.00475e+02
       C  1.94264e+01  2.61183e+01  1.00626e+02
       C  2.15463e+01  2.48904e+01  1.00376e+02
       C  2.23661e+01  2.61213e+01  1.00355e+02
       C  2.37556e+01  2.61241e+01  1.00412e+02
       C  2.59797e+01  2.49413e+01  1.00236e+02
       C  2.66464e+01  2.61584e+01  1.00271e+02
       C  2.87868e+01  2.49261e+01  1.00222e+02
       C  2.80801e+01  2.61502e+01  1.00250e+02
       C  3.09884e+01  2.61858e+01  9.97929e+01
       C  3.31145e+01  2.48177e+01  9.97262e+01
       C  3.24353e+01  2.61030e+01  9.96174e+01
       C  3.45631e+01  2.48290e+01  9.96880e+01
       C  3.52841e+01  2.61261e+01  9.94785e+01
       C  3.67314e+01  2.61656e+01  9.95844e+01
       C  3.88403e+01  2.49169e+01  9.95179e+01
       C  3.73038e+01  2.49001e+01  9.95739e+01
       C  3.95557e+01  2.62103e+01  9.95677e+01
       C  4.09821e+01  2.61855e+01  9.96928e+01
       C  4.17900e+01  2.49385e+01  9.97171e+01
       C  4.39692e+01  2.61614e+01  9.98188e+01
       C  4.53895e+01  2.61662e+01  9.97731e+01
       C  4.81488e+01  2.62858e+01  1.00134e+02
       C  4.96162e+01  2.61228e+01  1.00310e+02
       C  6.66738e-01  2.86021e+01  1.00678e+02
       C  5.18007e+01  2.73802e+01  1.00568e+02
       C  2.14422e+00  2.86072e+01  1.00744e+02
       C  2.86753e+00  2.73299e+01  1.00616e+02
       C  4.96205e+00  2.85925e+01  1.00575e+02
       C  4.25315e+00  2.73915e+01  1.00637e+02
       C  6.42432e+00  2.86886e+01  1.00615e+02
       C  7.13185e+00  2.73583e+01  1.00678e+02
       C  8.57427e+00  2.73743e+01  1.00708e+02
       C  9.36605e+00  2.86201e+01  1.00818e+02
       C  1.08268e+01  2.85880e+01  1.00810e+02
       C  1.15550e+01  2.72908e+01  1.00896e+02
       C  1.29476e+01  2.73879e+01  1.01014e+02
       C  1.36964e+01  2.86011e+01  1.00917e+02
       C  1.51036e+01  2.86693e+01  1.00985e+02
       C  1.58303e+01  2.74429e+01  1.00837e+02
       C  1.73293e+01  2.74172e+01  1.00764e+02
       C  1.79909e+01  2.87023e+01  1.00657e+02
       C  1.94307e+01  2.86751e+01  1.00564e+02
       C  2.01537e+01  2.74150e+01  1.00556e+02
       C  2.16070e+01  2.74176e+01  1.00507e+02
       C  2.22756e+01  2.85988e+01  1.00426e+02
       C  2.37306e+01  2.86322e+01  1.00337e+02
       C  2.44715e+01  2.74115e+01  1.00328e+02
       C  2.59120e+01  2.73320e+01  1.00327e+02
       C  2.66397e+01  2.86416e+01  1.00166e+02
       C  2.81549e+01  2.86515e+01  1.00216e+02
       C  2.88228e+01  2.73590e+01  1.00088e+02
       C  3.02199e+01  2.74344e+01  9.99052e+01
       C  3.09618e+01  2.87264e+01  9.98835e+01
       C  3.23181e+01  2.86222e+01  9.96072e+01
       C  3.31306e+01  2.73697e+01  9.95465e+01
       C  3.45568e+01  2.74199e+01  9.94717e+01
       C  3.52905e+01  2.86791e+01  9.95074e+01
       C  3.67179e+01  2.86513e+01  9.94433e+01
       C  3.73912e+01  2.73865e+01  9.95000e+01
       C  3.88723e+01  2.74305e+01  9.95001e+01
       C  3.95585e+01  2.86595e+01  9.96470e+01
       C  4.10078e+01  2.86975e+01  9.97683e+01
       C  4.17331e+01  2.73614e+01  9.97992e+01
       C  4.32281e+01  2.73891e+01  9.99127e+01
       C  4.39312e+01  2.86936e+01  1.00072e+02
       C  4.53425e+01  2.86710e+01  9.99785e+01
       C  4.75158e+01  2.74551e+01  1.00013e+02
       C  4.61027e+01  2.74724e+01  9.98757e+01
       C  4.81636e+01  2.86475e+01  1.00119e+02
       C  4.95868e+01  2.87126e+01  1.00221e+02
       C  5.03304e+01  2.73679e+01  1.00346e+02
       C  5.17910e+01  2.98653e+01  1.00593e+02
       C  2.79795e+00  2.99018e+01  1.00784e+02
       C  2.14316e+00  3.11676e+01  1.00766e+02
       C  4.28916e+00  2.98885e+01  1.00751e+02
       C  7.19698e+00  2.99121e+01  1.00568e+02
       C  8.60834e+00  2.99228e+01  1.00711e+02
       C  1.15621e+01  2.98871e+01  1.00695e+02
       C  1.08427e+01  3.11059e+01  1.00671e+02
       C  1.29783e+01  2.98480e+01  1.00793e+02
       C  1.58599e+01  2.98940e+01  1.00823e+02
       C  1.51129e+01  3.11380e+01  1.00703e+02
       C  1.72051e+01  2.98923e+01  1.00655e+02
       C  1.80035e+01  3.11802e+01  1.00518e+02
       C  2.01533e+01  2.98651e+01  1.00506e+02
       C  1.94169e+01  3.11508e+01  1.00518e+02
       C  2.16196e+01  2.98811e+01  1.00363e+02
       C  2.22978e+01  3.11513e+01  1.00300e+02
       C  2.44788e+01  2.99093e+01  1.00265e+02
       C  2.37188e+01  3.10854e+01  1.00159e+02
       C  2.59366e+01  2.98905e+01  1.00126e+02
       C  2.66614e+01  3.10906e+01  9.99938e+01
       C  2.88088e+01  2.99196e+01  1.00097e+02
       C  3.01530e+01  2.99225e+01  9.99627e+01
       C  3.30097e+01  2.99473e+01  9.96786e+01
       C  3.23664e+01  3.11319e+01  9.98376e+01
       C  3.45217e+01  2.98908e+01  9.95403e+01
       C  3.52534e+01  3.11413e+01  9.96662e+01
       C  3.66980e+01  3.10990e+01  9.96666e+01
       C  3.74655e+01  2.99261e+01  9.95391e+01
       C  3.89139e+01  2.98951e+01  9.96684e+01
       C  3.95960e+01  3.11718e+01  9.99082e+01
       C  4.17590e+01  2.99514e+01  9.98602e+01
       C  4.31588e+01  2.98889e+01  1.00006e+02
       C  4.52971e+01  3.11989e+01  1.00099e+02
       C  4.60079e+01  3.00070e+01  1.00021e+02
       C  4.75424e+01  2.99569e+01  1.00064e+02
       C  5.02980e+01  2.99211e+01  1.00420e+02
       C  7.60283e-01  3.11685e+01  1.00594e+02
       C  5.18441e+01  3.23777e+01  1.00463e+02
       C  2.84393e+00  3.23617e+01  1.00729e+02
       C  5.02863e+00  3.11202e+01  1.00645e+02
       C  4.32744e+00  3.24209e+01  1.00618e+02
       C  6.47940e+00  3.11652e+01  1.00574e+02
       C  7.16596e+00  3.24422e+01  1.00688e+02
       C  9.36846e+00  3.11454e+01  1.00706e+02
       C  8.55610e+00  3.23771e+01  1.00702e+02
       C  1.15937e+01  3.23405e+01  1.00618e+02
       C  1.36687e+01  3.11160e+01  1.00652e+02
       C  1.29787e+01  3.23241e+01  1.00584e+02
       C  1.58800e+01  3.24219e+01  1.00682e+02
       C  1.73149e+01  3.24487e+01  1.00516e+02
       C  2.01333e+01  3.23905e+01  1.00368e+02
       C  2.16435e+01  3.24027e+01  1.00350e+02
       C  2.44228e+01  3.24020e+01  9.99914e+01
       C  2.59013e+01  3.23021e+01  9.98708e+01
       C  2.80379e+01  3.11153e+01  9.99845e+01
       C  2.87611e+01  3.23415e+01  9.97834e+01
       C  3.09464e+01  3.11472e+01  9.97944e+01
       C  3.02880e+01  3.23008e+01  9.97915e+01
       C  3.31258e+01  3.24159e+01  9.97942e+01
       C  3.45917e+01  3.24282e+01  9.98091e+01