LAMMPS data file from restart file: timestep = 12100000, procs = 8

960 atoms

1 atom types

0.0000000000000000e+00 5.1799999999999997e+01 xlo xhi
0.0000000000000000e+00 4.9840000000000003e+01 ylo yhi
-1.0000000000000000e+02 1.0000000000000000e+02 zlo zhi

Masses

1 12.01

Atoms

2 1 7.6775598001397471e-01 1.2667932797279446e+00 2.1080473899138757e-01 0 0 0
3 1 2.1890031462382358e+00 1.2788803931391020e+00 1.4136214742333245e-01 0 0 0
4 1 2.9060546960435314e+00 4.4433726498823566e-02 1.2097671772310112e-01 0 0 0
82 1 5.0483470945677738e+00 1.2448933511107161e+00 -4.5520905082000782e-02 0 0 0
241 1 1.2910065082029972e+01 2.9700150824150690e-02 3.4900846414331060e-01 0 0 0
83 1 6.4760090900951939e+00 1.2835307010363712e+00 3.7599922421305818e-02 0 0 0
204 1 1.1458516722573021e+01 2.4913603449839325e+01 5.8495604728281449e-02 0 0 0
84 1 7.1875253095015319e+00 3.0522334290746869e-02 1.0111992821244095e-01 0 0 0
162 1 9.3728425080296773e+00 1.2967280778480161e+00 1.5269060284733313e-01 0 0 0
163 1 1.0782485573272096e+01 1.2819930155705055e+00 2.9916328165487305e-01 0 0 0
6 1 6.9054075294781869e-01 3.6947230198921983e+00 -9.6524430368314665e-02 0 0 0
124 1 7.2200041486136719e+00 2.4889091148203331e+01 -4.0610925956501752e-02 0 0 0
7 1 2.1447334422204651e+00 3.7211106838449148e+00 -1.4264728589128059e-01 0 0 0
8 1 2.9055189593554247e+00 2.4900342014491694e+00 -3.4646915581452810e-02 0 0 0
85 1 4.2855912514619883e+00 2.4944077480251017e+00 -4.3088743216948633e-03 0 0 0
86 1 5.0485774810854647e+00 3.7599679631184619e+00 -1.0010292566139042e-01 0 0 0
87 1 6.4954070694141439e+00 3.7640908909066297e+00 -8.4353189294733455e-02 0 0 0
88 1 7.2007101950886110e+00 2.5109743797144670e+00 -1.2174903776808584e-02 0 0 0
165 1 8.6230674389154505e+00 2.5187727942026608e+00 -5.7101784201646364e-03 0 0 0
166 1 9.3316925262684443e+00 3.7835020339436443e+00 -1.0413428969926931e-01 0 0 0
167 1 1.0765567168839375e+01 3.7675689755091351e+00 -4.0629846068900653e-02 0 0 0
168 1 1.1496900850222499e+01 2.5268876407202359e+00 2.1659235777213384e-01 0 0 0
12 1 2.8542928947651554e+00 5.0010289270042039e+00 -2.8845074163299367e-01 0 0 0
89 1 4.3001083824947433e+00 5.0043559755072380e+00 -2.2016256061481132e-01 0 0 0
90 1 5.0180169072496925e+00 6.2665201794679035e+00 -2.8443899736291878e-01 0 0 0
92 1 7.1733608262640161e+00 5.0166075187672092e+00 -2.4358884794492147e-01 0 0 0
169 1 8.5936072953794636e+00 5.0036848035599073e+00 -2.0678895634480485e-01 0 0 0
172 1 1.1447134547700939e+01 5.0092273320210374e+00 -1.5993363962401472e-01 0 0 0
171 1 1.0733627727529475e+01 6.2141145230236923e+00 -2.0049664348928367e-01 0 0 0
10 1 6.7630128087970010e-01 6.1942031578944405e+00 -3.5790975613373177e-01 0 0 0
11 1 2.1197121208913545e+00 6.2075398536715189e+00 -4.1301818910747490e-01 0 0 0
16 1 2.8178456776211469e+00 7.4218269377937114e+00 -3.5205252805187681e-01 0 0 0
93 1 4.2961532647611369e+00 7.4315761874516229e+00 -3.0985051125483343e-01 0 0 0
91 1 6.4708740659586574e+00 6.2923756939054796e+00 -2.7754695798685480e-01 0 0 0
96 1 7.2427595087537808e+00 7.5172920115282809e+00 -2.8164107126936794e-01 0 0 0
173 1 8.6163693783339870e+00 7.5201766221838025e+00 -2.8819472905536297e-01 0 0 0
170 1 9.2897369279953388e+00 6.2723028156347365e+00 -2.2544258519608601e-01 0 0 0
176 1 1.1481962001469192e+01 7.4584246036730804e+00 -2.4445024017193792e-01 0 0 0
253 1 1.2926449647623246e+01 7.4857902024039165e+00 -1.4517385446145817e-01 0 0 0
281 1 1.2909470775494878e+01 2.4871438886659202e+01 8.5102319863784054e-02 0 0 0
14 1 7.1282172975812441e-01 8.7025090282386302e+00 -4.0519024287817240e-01 0 0 0
15 1 2.1454119430573373e+00 8.7177853933867677e+00 -4.2215494236183204e-01 0 0 0
20 1 2.8731174119497003e+00 9.9748752786419743e+00 -4.2912075042297454e-01 0 0 0
97 1 4.2939387645051639e+00 9.9372955871690642e+00 -3.9821393986093317e-01 0 0 0
94 1 5.0037096821741240e+00 8.7170334315073958e+00 -3.3589667985614324e-01 0 0 0
95 1 6.4571238960852062e+00 8.6939731441739028e+00 -4.0620348344603535e-01 0 0 0
100 1 7.1248699619655369e+00 9.9615692366299573e+00 -4.6232804822020585e-01 0 0 0
177 1 8.5814081989454749e+00 1.0002248487921001e+01 -4.7581000972806176e-01 0 0 0
174 1 9.3037883877266179e+00 8.7562790006252715e+00 -4.0311448044328552e-01 0 0 0
175 1 1.0761507967526988e+01 8.7131279707011409e+00 -3.8856163039115549e-01 0 0 0
180 1 1.1485993509281599e+01 9.9452305414977609e+00 -4.3113731638006642e-01 0 0 0
257 1 1.2885439638499387e+01 9.9645770820818953e+00 -3.4177646945042484e-01 0 0 0
18 1 7.0059964307709066e-01 1.1230119468652926e+01 -5.2220309509015694e-01 0 0 0
19 1 2.1451755444163618e+00 1.1159994364602301e+01 -5.2584542099091403e-01 0 0 0
98 1 5.0185147362103395e+00 1.1191915618132073e+01 -4.4012455255816080e-01 0 0 0
101 1 4.2725443824316836e+00 1.2427270684873866e+01 -4.6283216626007323e-01 0 0 0
99 1 6.4298261893730420e+00 1.1213392195725730e+01 -4.7948136967324734e-01 0 0 0
178 1 9.3059174375078495e+00 1.1225686435052204e+01 -5.6325841147862521e-01 0 0 0
179 1 1.0741726530667993e+01 1.1203679299499516e+01 -4.7292309801074783e-01 0 0 0
184 1 1.1492629115074463e+01 1.2456718751205191e+01 -4.0843727326380802e-01 0 0 0
22 1 6.4387807165126032e-01 1.3677901092478375e+01 -5.3505703208575717e-01 0 0 0
23 1 2.1222717182585273e+00 1.3649718960871040e+01 -5.3231148767838476e-01 0 0 0
24 1 2.8557144140660524e+00 1.2415209497106238e+01 -5.4618078294708905e-01 0 0 0
102 1 4.9908005249619753e+00 1.3714559531596745e+01 -5.1327593909634972e-01 0 0 0
104 1 7.1210505801034865e+00 1.2446260143398231e+01 -5.4050609965950303e-01 0 0 0
103 1 6.4034623971713449e+00 1.3667803656619196e+01 -5.1077164006122000e-01 0 0 0
181 1 8.6085568927358498e+00 1.2458998735744254e+01 -5.4933024013755294e-01 0 0 0
182 1 9.3187521211292026e+00 1.3698540464065898e+01 -4.7405967870879262e-01 0 0 0
183 1 1.0762021548979087e+01 1.3716802953727814e+01 -4.4075028603257976e-01 0 0 0
26 1 6.3940759944296366e-01 1.6193645830621644e+01 -4.7380193744921739e-01 0 0 0
27 1 2.1051747189592063e+00 1.6185438431972063e+01 -3.1541505321363572e-01 0 0 0
28 1 2.8136022706909536e+00 1.4934030854917660e+01 -4.2700266513158919e-01 0 0 0
105 1 4.2546774843945974e+00 1.4916052378879632e+01 -5.1687784642678780e-01 0 0 0
106 1 4.9580674432331300e+00 1.6183667977971140e+01 -4.9106970018779217e-01 0 0 0
107 1 6.4007926644175184e+00 1.6161852078650419e+01 -4.3700894428222814e-01 0 0 0
108 1 7.1713456517087577e+00 1.4896095999439980e+01 -4.6221769009806768e-01 0 0 0
185 1 8.5939713844469274e+00 1.4911094715702136e+01 -4.4779588740258930e-01 0 0 0
186 1 9.2743577886953403e+00 1.6141444732583544e+01 -4.2060472599942855e-01 0 0 0
187 1 1.0732996323098698e+01 1.6182098028640119e+01 -3.8373436621109069e-01 0 0 0
188 1 1.1450262602197423e+01 1.4979914659058004e+01 -4.3123624232673097e-01 0 0 0
30 1 6.7041732171060275e-01 1.8702366141344246e+01 -3.6608516288161913e-01 0 0 0
32 1 2.8040960614210815e+00 1.7458290020067611e+01 -2.9959627767311314e-01 0 0 0
109 1 4.2163276744997980e+00 1.7388964229527620e+01 -3.9341280319678024e-01 0 0 0
110 1 4.9530746957788301e+00 1.8670493044831236e+01 -4.2747345883028243e-01 0 0 0
112 1 7.1291040894676652e+00 1.7406605421824359e+01 -3.7920898411046411e-01 0 0 0
189 1 8.5633558657519462e+00 1.7382355496870730e+01 -4.3771658544760034e-01 0 0 0
190 1 9.2940436688580270e+00 1.8656959074025188e+01 -3.6219149117420146e-01 0 0 0
191 1 1.0763940417967325e+01 1.8635511488234592e+01 -2.6427620905390214e-01 0 0 0
192 1 1.1446772834373819e+01 1.7401169515411301e+01 -3.3113187198926713e-01 0 0 0
31 1 2.1170127148917075e+00 1.8685151815423563e+01 -3.6658479271030231e-01 0 0 0
36 1 2.8150074967256580e+00 1.9927445968328460e+01 -3.6929659438489698e-01 0 0 0
113 1 4.2660303679178107e+00 1.9917941690518013e+01 -3.8594587960085569e-01 0 0 0
111 1 6.4038535882579906e+00 1.8632662629439537e+01 -3.7684708573380526e-01 0 0 0
116 1 7.1510057162466580e+00 1.9932614770211263e+01 -2.7400394559585245e-01 0 0 0
193 1 8.6185750764878417e+00 1.9910390372776622e+01 -2.4763217866339268e-01 0 0 0
196 1 1.1512409496237593e+01 1.9883951607850300e+01 -1.9746500700821826e-01 0 0 0
34 1 6.1094950120133984e-01 2.1132930068519173e+01 -4.6446158997704312e-01 0 0 0
35 1 2.0595356896024537e+00 2.1136383694244870e+01 -4.0825854562026209e-01 0 0 0
40 1 2.8013909908509702e+00 2.2368503349551588e+01 -3.7519693687678035e-01 0 0 0
117 1 4.2435544815412891e+00 2.2371926184888864e+01 -2.7598663331978163e-01 0 0 0
114 1 4.9559208965512811e+00 2.1155767270446475e+01 -2.2521052326529625e-01 0 0 0
115 1 6.4084784366946801e+00 2.1172956815887229e+01 -2.8013389300830027e-01 0 0 0
120 1 7.1937413524455893e+00 2.2395222906862564e+01 -2.8616709568639143e-01 0 0 0
197 1 8.6264626795881743e+00 2.2385047396895025e+01 -1.7431827017252671e-01 0 0 0
194 1 9.3563690100555270e+00 2.1116582385187538e+01 -1.4276899170424870e-01 0 0 0
195 1 1.0778806369899067e+01 2.1101821613615233e+01 -1.9837175760145195e-01 0 0 0
199 1 1.0796846362584720e+01 2.3630632874297309e+01 -4.5321106563192048e-02 0 0 0
200 1 1.1495653001336928e+01 2.2352407589291175e+01 -1.5951375320659444e-01 0 0 0
38 1 6.6696894401953022e-01 2.3695497218646935e+01 -3.8361847596739240e-01 0 0 0
39 1 2.1080029974305559e+00 2.3630504500176308e+01 -4.0987579205207841e-01 0 0 0
13 1 4.3067045576434208e-03 7.4419743965139658e+00 -3.9037520359559336e-01 0 0 0
119 1 6.4510151082207896e+00 2.3637174202671911e+01 -1.9292858085614220e-01 0 0 0
118 1 4.9950365907039327e+00 2.3657214762882635e+01 -2.5524573823627289e-01 0 0 0
198 1 9.3844453522842048e+00 2.3642567753633394e+01 4.8552358584821494e-03 0 0 0
245 1 1.2916346905607639e+01 2.5242965201024163e+00 1.9786986261767525e-01 0 0 0
249 1 1.2895483492881104e+01 5.0005025019603035e+00 -7.5577566096169668e-02 0 0 0
261 1 1.2897746707463980e+01 1.2440468872271984e+01 -3.9655837085116524e-01 0 0 0
265 1 1.2901191870742153e+01 1.4937619825850138e+01 -3.7416185503623223e-01 0 0 0
269 1 1.2916013778260590e+01 1.7434244329627063e+01 -3.2396912869954619e-01 0 0 0
273 1 1.2896710686364376e+01 1.9941834004333035e+01 -2.4586153324150195e-01 0 0 0
277 1 1.2902555355394981e+01 2.2381767310230632e+01 -1.4038741543793823e-01 0 0 0
44 1 2.8622758256995162e+00 2.4890668221799668e+01 -3.0337256361460063e-01 0 0 0
201 1 8.6315812072132392e+00 2.4902100876630417e+01 7.1124170485396557e-02 0 0 0
164 1 1.1481200669017303e+01 3.9147911508003119e-02 3.4624412864877319e-01 0 0 0
1 1 2.7103067522062929e-03 2.4547734996524184e-02 2.5507120934806665e-01 0 0 0
121 1 4.3290767626661530e+00 2.4899281981182313e+01 -2.4950120545800666e-01 0 0 0
161 1 8.6586518198540237e+00 2.2613796487831905e-02 1.3960632803149817e-01 0 0 0
42 1 6.8161934040887484e-01 2.6095968063361639e+01 -8.9711467314862153e-02 0 0 0
43 1 2.1349248611621348e+00 2.6152268791585367e+01 -1.0207748971455446e-01 0 0 0
73 1 3.6357771256000149e-02 4.4896506087387706e+01 2.9814499631326530e-01 0 0 0
122 1 5.0292994230121808e+00 2.6132853790751653e+01 -1.4364009086845569e-01 0 0 0
123 1 6.4763574788013978e+00 2.6149211535521957e+01 -7.5706669815148911e-02 0 0 0
77 1 5.0116082195825876e-02 4.7389003833391634e+01 2.5786500897809422e-01 0 0 0
69 1 4.6680313277185803e-02 4.2390995366376650e+01 3.2183782120600157e-01 0 0 0
202 1 9.3176249041834218e+00 2.6133645106394031e+01 2.1034154466247759e-01 0 0 0
203 1 1.0773362168066262e+01 2.6151398694820390e+01 1.5657295819207034e-01 0 0 0
61 1 3.9379554886431904e-02 3.7327582015593734e+01 7.1517900756582897e-01 0 0 0
46 1 7.6029301801439075e-01 2.8568842784746394e+01 1.1163780346181439e-01 0 0 0
47 1 2.1959556657037083e+00 2.8564977998674419e+01 2.1852618237654342e-01 0 0 0
48 1 2.8712740957471548e+00 2.7325027376147464e+01 6.9189761764100577e-02 0 0 0
125 1 4.2765576994944441e+00 2.7333026144746896e+01 -2.8865137065452889e-02 0 0 0
126 1 4.9807556963408315e+00 2.8549132730890857e+01 1.0130685253323857e-01 0 0 0
127 1 6.4285745394787890e+00 2.8577730672464870e+01 3.9163358581975803e-02 0 0 0
128 1 7.1728453108816206e+00 2.7358312227963687e+01 -3.2046083277514389e-02 0 0 0
205 1 8.5645274114534402e+00 2.7392313527476631e+01 1.7402950697459882e-01 0 0 0
206 1 9.3271165966893204e+00 2.8601322490234178e+01 2.8512310176658590e-01 0 0 0
207 1 1.0775188924856790e+01 2.8639013617463146e+01 3.5381927389066264e-01 0 0 0
208 1 1.1471790594720044e+01 2.7409081622707614e+01 2.5854021819935596e-01 0 0 0
285 1 1.2934305305489755e+01 2.7407046087211665e+01 2.2099142212350506e-01 0 0 0
49 1 5.4614012560641356e-02 2.9797358928931331e+01 1.8623234250170281e-01 0 0 0
51 1 2.1919750809831569e+00 3.1068966115337115e+01 2.9424886883043228e-01 0 0 0
52 1 2.9002558881763676e+00 2.9835705783894408e+01 2.7844327514488504e-01 0 0 0
129 1 4.3181946681933967e+00 2.9835044416149330e+01 1.8051700987789343e-01 0 0 0
130 1 5.0092730191773223e+00 3.1093109702937383e+01 1.9419561315232362e-01 0 0 0
131 1 6.4313897822138291e+00 3.1090328447878417e+01 1.4944884490019389e-01 0 0 0
132 1 7.1663109709287989e+00 2.9826899045105726e+01 1.2738973203907902e-01 0 0 0
209 1 8.5969025816102604e+00 2.9846197648117467e+01 2.5541315612733223e-01 0 0 0
212 1 1.1512167297200072e+01 2.9879593395517766e+01 4.7623564350832270e-01 0 0 0
239 1 1.0779753827587985e+01 4.8644059335077351e+01 3.5971746797203691e-01 0 0 0
50 1 7.3769422959643360e-01 3.1091819556827243e+01 2.3974497543185661e-01 0 0 0
56 1 2.9078123705255225e+00 3.2323018600688904e+01 3.8994606804294979e-01 0 0 0
133 1 4.3304463985112385e+00 3.2325304147571948e+01 3.9577028598932562e-01 0 0 0
136 1 7.2026703542588555e+00 3.2327920492789794e+01 3.1865828424239317e-01 0 0 0
213 1 8.6198275596387024e+00 3.2324185468936982e+01 3.5062823583264136e-01 0 0 0
210 1 9.3578980502178890e+00 3.1101139915973526e+01 4.3517200583744142e-01 0 0 0
211 1 1.0798438522725682e+01 3.1117968893749726e+01 5.7660214548937982e-01 0 0 0
65 1 3.2207919502617699e-02 3.9851610678707374e+01 5.7698383211218007e-01 0 0 0
216 1 1.1535620421133920e+01 3.2360895226805972e+01 6.6875098783688702e-01 0 0 0
54 1 6.9816855520077670e-01 3.3584135839923654e+01 4.0055877392256739e-01 0 0 0
55 1 2.1420645009685195e+00 3.3563021383787934e+01 4.9527208280485735e-01 0 0 0
60 1 2.9152803456553165e+00 3.4807618226777137e+01 5.3734093073163824e-01 0 0 0
137 1 4.3425724680305757e+00 3.4786755012416030e+01 6.0544945196022670e-01 0 0 0
134 1 5.0665096241504655e+00 3.3542793863237684e+01 4.8043885164578343e-01 0 0 0
135 1 6.4985249327416996e+00 3.3577020809136627e+01 3.8841652698496537e-01 0 0 0
140 1 7.2432529459661277e+00 3.4850667982097455e+01 5.3756089868267731e-01 0 0 0
217 1 8.6707648348176463e+00 3.4848461950471524e+01 4.2182575445536996e-01 0 0 0
214 1 9.3848790392888084e+00 3.3582436085325412e+01 4.0731397862901864e-01 0 0 0
215 1 1.0807616835763119e+01 3.3586576597693558e+01 5.2937796540380677e-01 0 0 0
220 1 1.1510624895126558e+01 3.4825695148946984e+01 4.9852824941087670e-01 0 0 0
238 1 9.3737301928977708e+00 4.8638702594840858e+01 2.4079750333530089e-01 0 0 0
58 1 7.3028448874739893e-01 3.6113013206764919e+01 6.8489801258767768e-01 0 0 0
59 1 2.2065816230342103e+00 3.6069927002751093e+01 6.4690801699475009e-01 0 0 0
64 1 2.8912118871162056e+00 3.7310002940099601e+01 6.5462011207281479e-01 0 0 0
138 1 5.1027552546976578e+00 3.6027923587894968e+01 5.6985697945728597e-01 0 0 0
139 1 6.5637643734234574e+00 3.6087605528084026e+01 5.1405734659364544e-01 0 0 0
141 1 4.3725947626349111e+00 3.7358103095270110e+01 5.2577619188023017e-01 0 0 0
144 1 7.2466806399209220e+00 3.7372653377021777e+01 5.6273049994263669e-01 0 0 0
218 1 9.3571585848688841e+00 3.6112759482214521e+01 4.1201595595169865e-01 0 0 0
219 1 1.0833490038833119e+01 3.6101227174328805e+01 4.2614251028996997e-01 0 0 0
224 1 1.1504356161596631e+01 3.7332044961961977e+01 2.6369253920042346e-01 0 0 0
159 1 6.5005347106409772e+00 4.8637129416083091e+01 9.7590380647178052e-02 0 0 0
62 1 7.3097617088325217e-01 3.8579745474984215e+01 7.0539259774953156e-01 0 0 0
63 1 2.1634621117497099e+00 3.8586051639478647e+01 6.1577796961922782e-01 0 0 0
142 1 5.0712762075092774e+00 3.8606343334123125e+01 5.0918781030913418e-01 0 0 0
143 1 6.5382021385879536e+00 3.8617210810008380e+01 4.5540514772426394e-01 0 0 0
221 1 8.6430783642605231e+00 3.7357297497052883e+01 4.7726432569964633e-01 0 0 0
222 1 9.3751265016645338e+00 3.8614459189039941e+01 3.1708483471172783e-01 0 0 0
223 1 1.0819711981771956e+01 3.8575539414651928e+01 2.5712774135374583e-01 0 0 0
158 1 5.0519590939389714e+00 4.8597287524766365e+01 5.4189130655519759e-02 0 0 0
66 1 7.6174238373394099e-01 4.1157579178797626e+01 5.1932200741966172e-01 0 0 0
67 1 2.1892030290451063e+00 4.1104956734996151e+01 5.1944487244543902e-01 0 0 0
68 1 2.8528368847739469e+00 3.9848410201956000e+01 4.5222970926011796e-01 0 0 0
145 1 4.3730121468797254e+00 3.9833352009251200e+01 4.0014198899954223e-01 0 0 0
146 1 5.0863738586811031e+00 4.1107977770360272e+01 3.8382771719979752e-01 0 0 0
147 1 6.4865069557393449e+00 4.1044713621292601e+01 3.4240839275451967e-01 0 0 0
148 1 7.2575447940008333e+00 3.9890671258222390e+01 3.8309214423708138e-01 0 0 0
225 1 8.6515686430002781e+00 3.9862152700162497e+01 3.4071523835948958e-01 0 0 0
226 1 9.4441672710020388e+00 4.1067031092995087e+01 2.3081027055749082e-01 0 0 0
227 1 1.0873771270378310e+01 4.1083427660402371e+01 2.2908999764900018e-01 0 0 0
79 1 2.1951500791653680e+00 4.8625092554702761e+01 1.4863222830492206e-01 0 0 0
228 1 1.1559976708104982e+01 3.9813151502663914e+01 2.2314523634141331e-01 0 0 0
72 1 2.9357912337955261e+00 4.2386832335939452e+01 4.6853108681077216e-01 0 0 0
149 1 4.3656902744176440e+00 4.2326338293935116e+01 3.3821993338899015e-01 0 0 0
151 1 6.4944254461746560e+00 4.3603933352878990e+01 1.7167723876932600e-01 0 0 0
150 1 5.0521663492367956e+00 4.3598079428940224e+01 2.1428570722105264e-01 0 0 0
152 1 7.2041267150405570e+00 4.2307172847647820e+01 2.5104410793274096e-01 0 0 0
229 1 8.6525745523963469e+00 4.2307595418405960e+01 1.8465418510711112e-01 0 0 0
232 1 1.1519284790338467e+01 4.2338086135189471e+01 2.5214667327381651e-01 0 0 0
78 1 7.5332422934571341e-01 4.8635194465214482e+01 2.3312513026206844e-01 0 0 0
70 1 7.4397599915763457e-01 4.3608566717116403e+01 2.8084897168918449e-01 0 0 0
71 1 2.2101615909361363e+00 4.3616076283506125e+01 3.3329789968800871e-01 0 0 0
76 1 2.9264055482476881e+00 4.4884167798495319e+01 2.3699616988409164e-01 0 0 0
153 1 4.3412980996395829e+00 4.4833011585848709e+01 1.1108723367449318e-01 0 0 0
156 1 7.2224585913202723e+00 4.4837614623864312e+01 1.3776124921181016e-01 0 0 0
233 1 8.6574471260652093e+00 4.4805462034177189e+01 2.3440279400218889e-01 0 0 0
230 1 9.3253750558540958e+00 4.3552647672294931e+01 1.9798516156505006e-01 0 0 0
231 1 1.0807940027592361e+01 4.3586641884477650e+01 2.7074967686953916e-01 0 0 0
236 1 1.1550962316464792e+01 4.4875167527744068e+01 3.7056022090121143e-01 0 0 0
74 1 7.5324249310812219e-01 4.6154269678422970e+01 2.5194761919933734e-01 0 0 0
75 1 2.2096807165070320e+00 4.6127680512202026e+01 2.0507296992040092e-01 0 0 0
80 1 2.9077874164501942e+00 4.7412392539305337e+01 1.6886080316474342e-01 0 0 0
157 1 4.3096047933665327e+00 4.7379118064913982e+01 1.0785088820428218e-01 0 0 0
154 1 5.0656904568982029e+00 4.6110815155351496e+01 7.3937904118079587e-02 0 0 0
155 1 6.5232388475621308e+00 4.6109266987540551e+01 7.8534254624371996e-02 0 0 0
160 1 7.2499211787335662e+00 4.7388692379828015e+01 6.1160210496680099e-02 0 0 0
237 1 8.6665478841361523e+00 4.7365307111132054e+01 2.3592853093554525e-01 0 0 0
234 1 9.3703879535363885e+00 4.6060515418593646e+01 3.1116945876880209e-01 0 0 0
235 1 1.0816121568315159e+01 4.6121406371869497e+01 3.6173819427480836e-01 0 0 0
240 1 1.1480535284547262e+01 4.7377947308153558e+01 4.0063292528893196e-01 0 0 0
45 1 6.2329364557399854e-03 2.7352279535022351e+01 -1.1671619210575830e-01 0 0 0
53 1 4.7258347686777807e-02 3.2368884488979333e+01 2.9919213865545519e-01 0 0 0
57 1 9.0495627722170860e-03 3.4847900866970974e+01 4.9209094870272696e-01 0 0 0
289 1 1.2940018509379783e+01 2.9834964878124328e+01 4.5778635883313035e-01 0 0 0
317 1 1.2945821935218845e+01 4.7358371374264912e+01 4.0562493365308672e-01 0 0 0
301 1 1.2932023433810656e+01 3.7385537228251629e+01 1.9764616805009522e-01 0 0 0
81 1 4.3623095320433825e+00 4.9791135369741049e+01 4.0427711067107359e-02 0 -1 0
242 1 1.3618548521240159e+01 1.2431424464225795e+00 2.5284351181460429e-01 0 0 0
243 1 1.5062433787489416e+01 1.3046583152522664e+00 1.7959365498564012e-01 0 0 0
322 1 1.7984171739757183e+01 1.2803723025251992e+00 1.9840688844370516e-01 0 0 0
323 1 1.9421929316595598e+01 1.2504227690708776e+00 3.5399522312869908e-01 0 0 0
321 1 1.7244844827012983e+01 9.2909687017917672e-02 1.6201481652685365e-01 0 0 0
324 1 2.0139829313703725e+01 3.3956748917851394e-02 2.9223069018684855e-01 0 0 0
402 1 2.2270271662420999e+01 1.3355472326376505e+00 3.5128171469841107e-01 0 0 0
403 1 2.3713372684438401e+01 1.2913957998733270e+00 3.8514646968881100e-01 0 0 0
481 1 2.5860166365266963e+01 4.3150539928501160e-02 3.8440965695773377e-01 0 0 0
244 1 1.5824316334382742e+01 6.1472967999069726e-02 1.2480814529450927e-01 0 0 0
246 1 1.3623953545438312e+01 3.7700684649729341e+00 1.1992065163479516e-01 0 0 0
247 1 1.5112313414087295e+01 3.7596788962881504e+00 1.5245636451435990e-01 0 0 0
248 1 1.5773324588352056e+01 2.4874410774321825e+00 1.9389161156361012e-01 0 0 0
325 1 1.7231231316104836e+01 2.4972424831491931e+00 1.5156526165637865e-01 0 0 0
326 1 1.7975940937911165e+01 3.7296616756442176e+00 1.8066052194408952e-01 0 0 0
327 1 1.9387895622805406e+01 3.6877421773360992e+00 2.2094315535182762e-01 0 0 0
328 1 2.0157699646565142e+01 2.5005896681053534e+00 3.9881898678225314e-01 0 0 0
405 1 2.1567716314957661e+01 2.5358852955528706e+00 3.9369488477715692e-01 0 0 0
406 1 2.2267245310016300e+01 3.7445157244304750e+00 4.4745837190114918e-01 0 0 0
407 1 2.3688943296654500e+01 3.7283437499803336e+00 4.4781780719232706e-01 0 0 0
408 1 2.4426176965747523e+01 2.4794851402449538e+00 4.0244676863840118e-01 0 0 0
439 1 2.3731012704597379e+01 2.3683723141105787e+01 -1.7156493602653591e-01 0 0 0
404 1 2.4449084681147596e+01 4.8695610844568700e-02 3.6286667237987602e-01 0 0 0
250 1 1.3683728775199867e+01 6.2564033642839636e+00 -3.6784870544257532e-02 0 0 0
252 1 1.5808393762492150e+01 4.9743715940254640e+00 1.7051720586718336e-02 0 0 0
329 1 1.7244074757404572e+01 4.9800310076842997e+00 7.2143152680993444e-02 0 0 0
330 1 1.7957804891874297e+01 6.2629091566015429e+00 3.5011383158258587e-02 0 0 0
332 1 2.0104990119046203e+01 4.9572757282327276e+00 2.3956853172601811e-01 0 0 0
409 1 2.1516370252078165e+01 4.9844567874022285e+00 2.9910463655257491e-01 0 0 0
331 1 1.9362239267329830e+01 6.2112140266778892e+00 9.5367293040290971e-02 0 0 0
412 1 2.4397960120925564e+01 4.9959779991112976e+00 3.0913823399502560e-01 0 0 0
251 1 1.5108069157634109e+01 6.2068371831499931e+00 -4.4626289155602974e-02 0 0 0
256 1 1.5813658462442064e+01 7.4816554383449905e+00 -1.2286663489630248e-01 0 0 0
333 1 1.7241320262713700e+01 7.4912165791905760e+00 -2.2516800570980992e-02 0 0 0
336 1 2.0091346486441942e+01 7.4611434678329198e+00 9.6964853360215014e-02 0 0 0
413 1 2.1482750944182829e+01 7.4733983967886006e+00 6.5094059259637446e-02 0 0 0
411 1 2.3694800514003987e+01 6.2667431347561582e+00 1.3784616984510850e-01 0 0 0
410 1 2.2232768445948075e+01 6.2431459114899814e+00 1.7691764776409799e-01 0 0 0
416 1 2.4378400471460434e+01 7.5098258152762147e+00 3.0810473639032589e-02 0 0 0
254 1 1.3610268581405975e+01 8.7532482733606205e+00 -2.1881159938048197e-01 0 0 0
255 1 1.5086146124977342e+01 8.6690650978987076e+00 -2.6427346913510524e-01 0 0 0
260 1 1.5773603167533141e+01 9.9679933366672397e+00 -4.1504956981049862e-01 0 0 0
337 1 1.7201351887445540e+01 9.9826020249488074e+00 -3.1690005915247266e-01 0 0 0
334 1 1.7919526058354702e+01 8.7403671772991043e+00 -7.8590361528841857e-02 0 0 0
335 1 1.9385547492106742e+01 8.7407752895423130e+00 5.6869192931486619e-03 0 0 0
340 1 2.0127131734776697e+01 9.9955079995650049e+00 -8.1056443012495566e-02 0 0 0
417 1 2.1584395691194580e+01 9.9595836306409105e+00 -1.1915093755460593e-01 0 0 0
414 1 2.2255577223356294e+01 8.6864355951488381e+00 -6.4192000229663551e-02 0 0 0
415 1 2.3683825080493179e+01 8.7316023692719291e+00 -8.3939834021690505e-03 0 0 0
420 1 2.4411589350328146e+01 9.9912607111816545e+00 -1.7727257736204588e-01 0 0 0
258 1 1.3599911480372269e+01 1.1206481229872360e+01 -3.9991962901882350e-01 0 0 0
438 1 2.2293821523161743e+01 2.3692788288332469e+01 -1.0541064107578171e-01 0 0 0
259 1 1.5024137366920728e+01 1.1207669594705052e+01 -3.2536773019298831e-01 0 0 0
264 1 1.5751221739342158e+01 1.2452531029570306e+01 -3.7053287772866939e-01 0 0 0
338 1 1.7964968188763525e+01 1.1232508213626216e+01 -2.6586908944420057e-01 0 0 0
341 1 1.7234436500249700e+01 1.2484222046807217e+01 -3.0305416112638078e-01 0 0 0
339 1 1.9400260749405909e+01 1.1277644433188794e+01 -1.4733238703010929e-01 0 0 0
344 1 2.0146439065844692e+01 1.2510314358964548e+01 -2.1188456215953777e-01 0 0 0
418 1 2.2275499061689555e+01 1.1200867423221696e+01 -1.9608050257133100e-01 0 0 0
419 1 2.3701816640953840e+01 1.1226033611602631e+01 -2.3922166337260145e-01 0 0 0
497 1 2.5873588743675469e+01 1.0034753784679237e+01 -1.3568918736576346e-01 0 0 0
262 1 1.3646209390925153e+01 1.3676407575205475e+01 -4.1296440532423562e-01 0 0 0
263 1 1.5099180584685113e+01 1.3725976949516925e+01 -3.5923546143499624e-01 0 0 0
342 1 1.7943440273232092e+01 1.3725274155215253e+01 -2.9637956613171640e-01 0 0 0
343 1 1.9374937908337117e+01 1.3733923711558180e+01 -2.5938225165365819e-01 0 0 0
421 1 2.1584202519101197e+01 1.2492803335799374e+01 -2.2167478724240705e-01 0 0 0
422 1 2.2303436064613145e+01 1.3792693731625523e+01 -2.3169548937085119e-01 0 0 0
423 1 2.3758173110340596e+01 1.3797869606327826e+01 -2.0033712801148579e-01 0 0 0
424 1 2.4457778625672407e+01 1.2504611139504695e+01 -2.8899187668354698e-01 0 0 0
266 1 1.3656341449878466e+01 1.6199836070838636e+01 -2.4307898411215476e-01 0 0 0
359 1 1.9442747086278917e+01 2.3671827405704153e+01 -4.7708427724003431e-02 0 0 0
267 1 1.5083259707922771e+01 1.6231624240487328e+01 -2.4952688219571587e-01 0 0 0
268 1 1.5822173083321339e+01 1.4972588033287263e+01 -2.9024994396627596e-01 0 0 0
345 1 1.7225095331962883e+01 1.4978431547097877e+01 -2.7279528415840515e-01 0 0 0
346 1 1.7989913783679224e+01 1.6220645180725302e+01 -3.0102292721107637e-01 0 0 0
347 1 1.9430220485468805e+01 1.6229764540293790e+01 -2.5585159602150942e-01 0 0 0
348 1 2.0128821402185022e+01 1.4974454837149773e+01 -2.3539885979149652e-01 0 0 0
425 1 2.1534710088615050e+01 1.5007620062747304e+01 -2.9470896411147018e-01 0 0 0
426 1 2.2309916067742154e+01 1.6202027773956793e+01 -3.6330999890723070e-01 0 0 0
427 1 2.3743638018789802e+01 1.6243712545537129e+01 -3.1255017522528622e-01 0 0 0
428 1 2.4476603184126962e+01 1.5020728883790856e+01 -2.3444670087675032e-01 0 0 0
358 1 1.7984933555192502e+01 2.3697082665283670e+01 -6.1869623938572559e-02 0 0 0
272 1 1.5844648110586629e+01 1.7461693535619002e+01 -1.9103410135732785e-01 0 0 0
271 1 1.5089583694912085e+01 1.8685977671701757e+01 -2.5665776363991355e-01 0 0 0
349 1 1.7303102655970136e+01 1.7420950524198211e+01 -3.1368913742711108e-01 0 0 0
351 1 1.9447095427910174e+01 1.8693122983263041e+01 -3.2258811620665018e-01 0 0 0
352 1 2.0151559890896667e+01 1.7501457582036362e+01 -2.9106401737661386e-01 0 0 0
429 1 2.1588665415723451e+01 1.7470755150712176e+01 -3.8194822219601121e-01 0 0 0
430 1 2.2296336454608774e+01 1.8734942820333938e+01 -3.4125440226371123e-01 0 0 0
432 1 2.4424543170310400e+01 1.7475357825827778e+01 -3.1968951213170943e-01 0 0 0
270 1 1.3631944489950811e+01 1.8678767270744633e+01 -3.1569105651352058e-01 0 0 0
493 1 2.5850229806759572e+01 7.5163646798529804e+00 1.2199398652176728e-01 0 0 0
276 1 1.5839891597558733e+01 1.9957524410713951e+01 -2.4779946080276063e-01 0 0 0
353 1 1.7269409464957693e+01 1.9929169209614955e+01 -3.1795583548923800e-01 0 0 0
350 1 1.7987680242176666e+01 1.8630656570214068e+01 -3.5822593103741657e-01 0 0 0
356 1 2.0090731202062990e+01 1.9918674245142562e+01 -3.0065819059010007e-01 0 0 0
433 1 2.1549946545652237e+01 1.9965363315181030e+01 -3.3635311951690433e-01 0 0 0
431 1 2.3756195033385044e+01 1.8747623237496484e+01 -3.8839453664565138e-01 0 0 0
436 1 2.4445755415680161e+01 2.0003924038376287e+01 -4.7249187910932383e-01 0 0 0
274 1 1.3664622081193505e+01 2.1167438815340024e+01 -1.8352967477736959e-01 0 0 0
275 1 1.5139678026722159e+01 2.1228001763682762e+01 -8.9871443932001457e-02 0 0 0
280 1 1.5801986969874420e+01 2.2480819821895579e+01 -6.9011870816324428e-02 0 0 0
357 1 1.7230261035092525e+01 2.2492803483928320e+01 -1.7737088515582927e-01 0 0 0
354 1 1.7962248175996830e+01 2.1209076594878329e+01 -3.4606128407007486e-01 0 0 0
355 1 1.9381966045580857e+01 2.1216154707894447e+01 -3.0904136409433802e-01 0 0 0
360 1 2.0153159712979825e+01 2.2397011235311030e+01 -1.9542353890044337e-01 0 0 0
437 1 2.1598796086966935e+01 2.2449579472306958e+01 -2.2175882705096545e-01 0 0 0
434 1 2.2309089513861331e+01 2.1200710231423304e+01 -3.0724773428131341e-01 0 0 0
435 1 2.3762626867403299e+01 2.1260478672999145e+01 -3.7993195262386420e-01 0 0 0
440 1 2.4485165570792017e+01 2.2477753677749803e+01 -3.5659880852438286e-01 0 0 0
278 1 1.3625465708295552e+01 2.3653390304461830e+01 -2.1483530433470063e-02 0 0 0
279 1 1.5063098799565251e+01 2.3692713424873173e+01 -3.6284435873672756e-02 0 0 0
501 1 2.5878863130064577e+01 1.2579833716009258e+01 -3.0521931058190349e-01 0 0 0
485 1 2.5878402094851499e+01 2.5039841403591021e+00 5.0506901850717423e-01 0 0 0
489 1 2.5859254916733189e+01 4.9889514983387020e+00 4.5060391251829168e-01 0 0 0
513 1 2.5864253598207313e+01 1.9955509738156486e+01 -4.4876717982003661e-01 0 0 0
444 1 2.4477083415069551e+01 2.4882575055724061e+01 3.0270486419918023e-02 0 0 0
401 1 2.1551146376495272e+01 4.3419320136301565e-02 2.8655535362061441e-01 0 0 0
282 1 1.3700418050477406e+01 2.6133241977739335e+01 2.2159643397350981e-01 0 0 0