ITEM: TIMESTEP
0
ITEM: NUMBER OF ATOMS
105
ITEM: BOX BOUNDS
0 25
0 25
0 25
ITEM: ATOMS id type xs ys zs
50 3 0.826706 0.159404 0.224145
51 2 0.799674 0.0961052 0.220114
53 2 0.864352 0.183151 0.169998
54 1 0.800351 0.0688764 0.192279
56 1 0.882992 0.216815 0.164524
71 3 0.224116 0.406909 0.0979212
73 2 0.169754 0.421694 0.136403
74 2 0.215914 0.4115 0.0290464
76 1 0.132783 0.431219 0.128281
77 1 0.184852 0.416853 0.0062864
72 2 0.286678 0.39106 0.122964
75 1 0.320377 0.382055 0.105774
52 2 0.820683 0.200994 0.278309
55 1 0.832814 0.237314 0.285572
105 1 0.982758 0.24356 0.373621
99 3 0.05654 0.258936 0.439555
100 2 0.124549 0.269224 0.43555
101 2 0.0207944 0.254798 0.498062
102 2 0.0204392 0.25073 0.379808
103 1 0.14895 0.273309 0.405476
1 3 0.585252 0.461568 0.401026
2 2 0.586727 0.465773 0.332554
3 2 0.527893 0.463668 0.439193
4 2 0.643842 0.471736 0.436208
5 1 0.615032 0.462843 0.305919
6 1 0.521409 0.464572 0.477559
7 1 0.653827 0.463156 0.473198
36 3 0.652062 0.351178 0.374047
37 2 0.595669 0.315454 0.390144
38 2 0.675586 0.360866 0.309506
39 2 0.699895 0.363349 0.425621
40 1 0.579259 0.304634 0.423728
41 1 0.706855 0.378465 0.2948
42 1 0.726859 0.391935 0.425662
27 1 0.489573 0.178917 0.739023
104 1 0.983116 0.248454 0.505739
15 3 0.123764 0.480988 0.666241
16 2 0.181516 0.449147 0.645038
18 2 0.11774 0.497768 0.732902
19 1 0.20976 0.430932 0.664721
25 2 0.429716 0.296138 0.726006
28 1 0.426949 0.284274 0.689085
34 1 0.387227 0.420012 0.734971
35 1 0.484082 0.492785 0.679902
78 3 0.654924 0.368914 0.723883
79 2 0.631276 0.345801 0.66295
81 2 0.66536 0.437642 0.731779
82 1 0.624929 0.364057 0.629142
64 3 0.940789 0.418922 0.690129
65 2 0.958839 0.478504 0.721979
66 2 0.981723 0.383963 0.648847
67 2 0.876118 0.393791 0.700072
69 1 0.978399 0.351145 0.627976
70 1 0.8588 0.361961 0.685848
24 2 0.484387 0.200844 0.770833
44 2 0.219312 0.494148 0.924478
47 1 0.224921 0.487606 0.962478
22 3 0.458406 0.263199 0.781662
23 2 0.456499 0.294774 0.842947
26 1 0.441724 0.32901 0.85435
29 3 0.443384 0.493546 0.771242
31 2 0.397132 0.444189 0.763958
80 2 0.665934 0.329343 0.778371
83 1 0.678205 0.33624 0.814757
84 1 0.678103 0.458397 0.762096
13 1 0.16789 0.952032 0.0134032
88 2 0.168206 0.70562 0.497457
86 2 0.239448 0.801511 0.499115
89 1 0.236778 0.813908 0.462318
92 3 0.59084 0.831345 0.456569
93 2 0.566492 0.807524 0.396468
94 2 0.639077 0.879395 0.462484
96 1 0.539587 0.780741 0.387824
97 1 0.656507 0.896518 0.492875
17 2 0.0792864 0.511968 0.623945
20 1 0.0440704 0.527753 0.630863
85 3 0.211506 0.747965 0.532528
87 2 0.221384 0.734062 0.598889
90 1 0.209262 0.705215 0.622164
91 1 0.148828 0.673736 0.508354
32 2 0.483666 0.50793 0.715711
68 1 0.938558 0.500907 0.74654
95 2 0.565144 0.8048 0.515953
98 1 0.572867 0.812688 0.553224
21 1 0.089774 0.514384 0.754212
43 3 0.205285 0.547954 0.885262
45 2 0.203758 0.547782 0.817756
46 2 0.186736 0.607791 0.915791
48 1 0.192555 0.572062 0.789405
49 1 0.178032 0.642792 0.901168
30 2 0.453934 0.529248 0.829558
33 1 0.47871 0.557944 0.838412
62 1 0.422425 0.743 0.926518
63 1 0.420774 0.741911 0.793488
8 3 0.169334 0.929172 0.916706
9 2 0.12718 0.910657 0.865294
10 2 0.149024 0.941825 0.980838
11 2 0.236945 0.93965 0.902214
12 1 0.133412 0.90315 0.827596
14 1 0.267252 0.947706 0.92523
57 3 0.354297 0.773714 0.861102
58 2 0.290828 0.800797 0.858811
59 2 0.387673 0.759018 0.918868
60 2 0.386028 0.757571 0.801178
61 1 0.268637 0.81299 0.829182
ITEM: TIMESTEP
30
ITEM: NUMBER OF ATOMS
105
ITEM: BOX BOUNDS
0 25
0 25
0 25
ITEM: ATOMS id type xs ys zs
50 3 0.826701 0.15933 0.224083
51 2 0.799589 0.0960257 0.220226
53 2 0.864261 0.18319 0.170123
54 1 0.801355 0.0698177 0.190829
56 1 0.88315 0.217362 0.165494
71 3 0.224228 0.406903 0.0978921
73 2 0.169478 0.421717 0.136438
74 2 0.21598 0.411794 0.0290572
76 1 0.132706 0.431474 0.127366
77 1 0.183296 0.415746 0.0072091
72 2 0.286638 0.39103 0.123112
75 1 0.319718 0.382247 0.103345
52 2 0.82085 0.201152 0.278397
55 1 0.83246 0.238027 0.284255
105 1 0.9822 0.242757 0.374958
99 3 0.0566143 0.258941 0.439481
100 2 0.124673 0.26918 0.435687
101 2 0.0205622 0.25481 0.498129
102 2 0.0203984 0.250783 0.379995
103 1 0.147465 0.273884 0.403823
1 3 0.585283 0.461601 0.400878
2 2 0.586573 0.465729 0.33238
3 2 0.52775 0.463297 0.439372
4 2 0.643933 0.471714 0.436452
5 1 0.615973 0.460153 0.306608
6 1 0.523124 0.466657 0.478235
7 1 0.654683 0.464002 0.474093
36 3 0.652031 0.351081 0.374103
37 2 0.595284 0.31576 0.390082
38 2 0.675483 0.361196 0.309432
39 2 0.70002 0.363555 0.425102
40 1 0.581725 0.303388 0.424841
41 1 0.709111 0.378021 0.297706
42 1 0.728058 0.39077 0.431283
27 1 0.490304 0.1802 0.737781
104 1 0.982522 0.247776 0.50422
15 3 0.123889 0.480954 0.666211
16 2 0.181525 0.449119 0.644939
18 2 0.117694 0.497803 0.732887
19 1 0.208671 0.430241 0.666404
25 2 0.429873 0.295929 0.725997
28 1 0.42719 0.283393 0.688919
34 1 0.389398 0.418892 0.734682
35 1 0.483456 0.492312 0.679724
78 3 0.654888 0.368946 0.723789
79 2 0.631147 0.345739 0.662941
81 2 0.665353 0.437518 0.731828
82 1 0.626696 0.36545 0.629142
64 3 0.940743 0.419019 0.690206
65 2 0.958886 0.478513 0.721921
66 2 0.981919 0.383839 0.648722
67 2 0.87624 0.393749 0.70001
69 1 0.977099 0.350609 0.628291
70 1 0.858838 0.361687 0.685558
24 2 0.484313 0.200669 0.770748
44 2 0.219203 0.493744 0.924324
47 1 0.22597 0.488795 0.963066
22 3 0.458374 0.263297 0.78169
23 2 0.45658 0.294812 0.843049
26 1 0.440341 0.32943 0.852865
29 3 0.443446 0.493624 0.771277
31 2 0.396962 0.444061 0.763893
80 2 0.666015 0.329286 0.778563
83 1 0.678303 0.337365 0.81487
84 1 0.678574 0.457942 0.762673
13 1 0.169119 0.951834 0.0131692
88 2 0.168266 0.705645 0.497563
86 2 0.239556 0.801598 0.499185
89 1 0.23536 0.812522 0.461538
92 3 0.590772 0.831271 0.45653
93 2 0.566527 0.80759 0.39634
94 2 0.639203 0.879529 0.46261
96 1 0.539222 0.779913 0.389691
97 1 0.655994 0.895959 0.49396
17 2 0.0790509 0.512373 0.624054
20 1 0.0421945 0.524708 0.629345
85 3 0.211501 0.748015 0.532432
87 2 0.221248 0.733955 0.599079
90 1 0.209405 0.703848 0.621113
91 1 0.149377 0.673237 0.509475
32 2 0.483558 0.507839 0.715764
68 1 0.937346 0.500211 0.746688
95 2 0.565239 0.804873 0.51591
98 1 0.573467 0.813624 0.553327
21 1 0.0854457 0.512228 0.751542
43 3 0.205304 0.547948 0.88543
45 2 0.204193 0.5478 0.817608
46 2 0.186606 0.60782 0.915758
48 1 0.189553 0.573657 0.791089
49 1 0.179391 0.643269 0.900299
30 2 0.453884 0.529241 0.829669
33 1 0.47992 0.558004 0.836641
62 1 0.422782 0.742576 0.925733
63 1 0.421341 0.741738 0.79442
8 3 0.169331 0.929166 0.916608
9 2 0.127048 0.910557 0.865314
10 2 0.14908 0.941866 0.981042
11 2 0.236829 0.939792 0.902275
12 1 0.135292 0.903971 0.827329
14 1 0.267281 0.94658 0.926272
57 3 0.354218 0.773735 0.861034
58 2 0.290687 0.800685 0.858921
59 2 0.387883 0.75898 0.918975
60 2 0.38606 0.757553 0.801264
61 1 0.270536 0.814305 0.827739
ITEM: TIMESTEP
60
ITEM: NUMBER OF ATOMS
105
ITEM: BOX BOUNDS
0 25
0 25
0 25
ITEM: ATOMS id type xs ys zs
50 3 0.826676 0.159159 0.223974
51 2 0.799496 0.095778 0.220197
53 2 0.864076 0.183431 0.170472
54 1 0.801703 0.0702556 0.18999
56 1 0.883601 0.217572 0.166734
71 3 0.224467 0.406902 0.0978761
73 2 0.168771 0.42177 0.136426
74 2 0.215873 0.412546 0.0291012
76 1 0.13255 0.432177 0.126168
77 1 0.182129 0.412981 0.00804257
72 2 0.28672 0.390903 0.1231
75 1 0.319464 0.382437 0.102136
52 2 0.821326 0.201624 0.278547
55 1 0.830907 0.239402 0.282146
105 1 0.982006 0.240996 0.376355
99 3 0.0568124 0.258959 0.43935
100 2 0.12498 0.269088 0.435662
101 2 0.0198274 0.254804 0.498176
102 2 0.0201016 0.250873 0.380531
103 1 0.146618 0.275611 0.403061
1 3 0.58536 0.461672 0.40055
2 2 0.586519 0.465561 0.331905
3 2 0.527559 0.462407 0.440044
4 2 0.644189 0.471722 0.436999
5 1 0.615224 0.453601 0.306916
6 1 0.524824 0.471675 0.478325
7 1 0.654199 0.465695 0.475124
36 3 0.652038 0.350949 0.374273
37 2 0.594413 0.316518 0.390289
38 2 0.675599 0.362254 0.309389
39 2 0.7002 0.363491 0.424243
40 1 0.585411 0.299201 0.424769
41 1 0.712116 0.375272 0.300471
42 1 0.726189 0.390498 0.435947
27 1 0.492842 0.182336 0.736427
104 1 0.981837 0.246321 0.502722
15 3 0.124202 0.480889 0.666034
16 2 0.181625 0.448949 0.644974
18 2 0.116859 0.498075 0.732823
19 1 0.207322 0.428359 0.66702
25 2 0.430275 0.295358 0.725888
28 1 0.427397 0.282194 0.688883
34 1 0.393601 0.415909 0.735766
35 1 0.482518 0.492001 0.679619
78 3 0.654795 0.368989 0.723584
79 2 0.630863 0.345849 0.662772
81 2 0.665381 0.437226 0.732059
82 1 0.629906 0.365593 0.628471
64 3 0.940649 0.419246 0.690379
65 2 0.958821 0.478569 0.72189
66 2 0.98226 0.383433 0.648399
67 2 0.876521 0.393606 0.699827
69 1 0.975883 0.349949 0.628756
70 1 0.859177 0.361476 0.685176
24 2 0.484098 0.200256 0.770355
44 2 0.218946 0.492894 0.924181
47 1 0.228451 0.488993 0.962707
22 3 0.458317 0.263506 0.781775
23 2 0.456614 0.295161 0.843184
26 1 0.438424 0.329149 0.852446
29 3 0.443558 0.49379 0.771371
31 2 0.396617 0.443697 0.763556
80 2 0.666251 0.329264 0.779084
83 1 0.678314 0.338638 0.815148
84 1 0.679412 0.457255 0.763008
68 1 0.936866 0.49998 0.746823
13 1 0.170596 0.951291 0.013125
88 2 0.16838 0.705577 0.497953
86 2 0.239672 0.801733 0.499051
89 1 0.234456 0.812061 0.461146
92 3 0.590637 0.83112 0.456415
93 2 0.566401 0.807527 0.396171
94 2 0.639489 0.879835 0.463074
96 1 0.5394 0.779055 0.390525
97 1 0.65553 0.89538 0.495264
17 2 0.0784856 0.513357 0.624278
20 1 0.0393056 0.516127 0.627074
85 3 0.211509 0.748153 0.532243
87 2 0.220825 0.733561 0.599514
90 1 0.21076 0.701522 0.619674
91 1 0.15042 0.672604 0.510405
32 2 0.483266 0.507537 0.715815
61 1 0.272822 0.817897 0.827605
95 2 0.565555 0.805132 0.515912
98 1 0.573833 0.814803 0.553272
21 1 0.0807117 0.506083 0.749445
43 3 0.205375 0.547872 0.88587
45 2 0.205074 0.548324 0.817192
46 2 0.186274 0.607971 0.915549
48 1 0.18414 0.572786 0.793065
49 1 0.182748 0.643996 0.899719
30 2 0.454016 0.529417 0.82981
33 1 0.480981 0.557801 0.835875
62 1 0.423192 0.741735 0.924766
63 1 0.421848 0.741615 0.795438
8 3 0.169294 0.929154 0.916403
9 2 0.126964 0.910309 0.865137
10 2 0.149359 0.941985 0.981567
11 2 0.236612 0.940166 0.902557
12 1 0.136061 0.90532 0.826901
14 1 0.267308 0.94366 0.927281
57 3 0.354032 0.773771 0.86092
58 2 0.29034 0.80048 0.858834
59 2 0.388466 0.758862 0.919164
60 2 0.386273 0.757461 0.801533
ITEM: TIMESTEP
90
ITEM: NUMBER OF ATOMS
105
ITEM: BOX BOUNDS
0 25
0 25
0 25
ITEM: ATOMS id type xs ys zs
50 3 0.826621 0.15891 0.22388
51 2 0.799486 0.0953925 0.219829
53 2 0.863849 0.183953 0.171024
54 1 0.799744 0.068396 0.191696
56 1 0.884679 0.216986 0.167019
71 3 0.224769 0.406929 0.0979298
73 2 0.16776 0.421813 0.136254
74 2 0.215393 0.413656 0.0292217
76 1 0.132301 0.433427 0.125654
77 1 0.183406 0.409505 0.00671161
72 2 0.287012 0.390664 0.122673
75 1 0.321154 0.382252 0.105709
52 2 0.822105 0.202416 0.278632
55 1 0.827745 0.240865 0.280759
105 1 0.982546 0.238722 0.375943
99 3 0.0571243 0.258989 0.439229
100 2 0.125398 0.268987 0.435236
101 2 0.0185998 0.254757 0.498057
102 2 0.0194372 0.25094 0.381405
103 1 0.148968 0.278392 0.405592
1 3 0.585465 0.461754 0.400112
2 2 0.586951 0.46511 0.331131
3 2 0.527615 0.461225 0.441347
4 2 0.644536 0.471812 0.437673
5 1 0.609589 0.444514 0.30565
6 1 0.523078 0.478066 0.476388
7 1 0.650745 0.467632 0.476556
36 3 0.652085 0.350903 0.374543
37 2 0.593335 0.317572 0.391101
38 2 0.676243 0.36411 0.309573
39 2 0.700338 0.362528 0.423471
40 1 0.586545 0.2923 0.420439
41 1 0.713129 0.369895 0.297866
42 1 0.719365 0.396147 0.432714
27 1 0.49751 0.183796 0.736692
104 1 0.981588 0.244441 0.503239
15 3 0.124733 0.480837 0.665623
16 2 0.181823 0.448569 0.645331
18 2 0.114625 0.498516 0.732663
19 1 0.207322 0.425522 0.663962
25 2 0.430875 0.29449 0.725621
28 1 0.427215 0.281425 0.688822
34 1 0.397663 0.411259 0.740021
35 1 0.481862 0.492425 0.679382
78 3 0.654647 0.368998 0.723323
79 2 0.630529 0.346309 0.662357
81 2 0.665484 0.436818 0.732523
82 1 0.632829 0.361855 0.626552
64 3 0.940543 0.41956 0.690609
65 2 0.958573 0.478674 0.721967
66 2 0.982543 0.382779 0.647961
67 2 0.876904 0.393355 0.699527
69 1 0.976706 0.349456 0.628782
70 1 0.859735 0.361247 0.684843
24 2 0.483736 0.199733 0.76954
44 2 0.218589 0.491875 0.92421
47 1 0.231434 0.485265 0.960799
22 3 0.45826 0.263767 0.781933
23 2 0.456473 0.295931 0.843227
26 1 0.437338 0.327612 0.855671
29 3 0.443656 0.494006 0.771534
31 2 0.396301 0.443089 0.762809
80 2 0.666627 0.329408 0.779846
83 1 0.67811 0.338681 0.815765
84 1 0.680403 0.457137 0.762609
21 1 0.0811773 0.498472 0.753594
13 1 0.170937 0.950552 0.0138675
88 2 0.168526 0.705318 0.498665
86 2 0.239669 0.801824 0.498538
89 1 0.236154 0.81498 0.461996
92 3 0.59048 0.830946 0.456219
93 2 0.566005 0.807199 0.3961
94 2 0.639832 0.880207 0.463927
96 1 0.540583 0.778953 0.387266
97 1 0.655956 0.895623 0.495682
17 2 0.077458 0.514622 0.624684
20 1 0.0389188 0.504382 0.623609
85 3 0.211543 0.748382 0.532029
87 2 0.2201 0.732815 0.600046
90 1 0.213959 0.699563 0.619185
91 1 0.151074 0.671957 0.509743
32 2 0.482822 0.507004 0.715795
61 1 0.272596 0.823152 0.831464
95 2 0.566113 0.805601 0.516033
98 1 0.573113 0.815251 0.553384
68 1 0.938879 0.501575 0.7468
43 3 0.205526 0.54766 0.886552
45 2 0.20601 0.549738 0.816627
46 2 0.185802 0.608274 0.915075
48 1 0.179798 0.565081 0.791394
49 1 0.187372 0.64486 0.900833
30 2 0.454494 0.529863 0.829853
33 1 0.480515 0.557416 0.839019
62 1 0.423373 0.740665 0.924593
63 1 0.421939 0.74153 0.795194
8 3 0.169189 0.929143 0.916144
9 2 0.127116 0.909966 0.86465
10 2 0.14995 0.942156 0.982306
11 2 0.236392 0.940716 0.903146
12 1 0.132643 0.9063 0.826202
14 1 0.267819 0.9396 0.926856
57 3 0.35377 0.773795 0.860826
58 2 0.28988 0.800318 0.858291
59 2 0.389361 0.758678 0.919295
60 2 0.386748 0.757283 0.802008
ITEM: TIMESTEP
120
ITEM: NUMBER OF ATOMS
105
ITEM: BOX BOUNDS
0 25
0 25
0 25
ITEM: ATOMS id type xs ys zs
50 3 0.826551 0.15858 0.223788
51 2 0.799427 0.0950097 0.219521
53 2 0.863591 0.18463 0.171606
54 1 0.798162 0.067077 0.193057
56 1 0.886027 0.216214 0.167864
71 3 0.225123 0.406978 0.0980027
73 2 0.16672 0.421765 0.135945
74 2 0.214786 0.415027 0.0293588
76 1 0.132354 0.435264 0.124803
77 1 0.185682 0.40589 0.00542132
72 2 0.287288 0.390376 0.122318
75 1 0.32227 0.382396 0.108502
52 2 0.823065 0.203338 0.278598
55 1 0.82363 0.242009 0.279472
105 1 0.983254 0.23614 0.376006
99 3 0.0575013 0.259028 0.439109
100 2 0.125856 0.268842 0.434858
101 2 0.0172644 0.254738 0.497806
102 2 0.018589 0.250998 0.382382
103 1 0.150458 0.281808 0.40819
1 3 0.585571 0.461827 0.399603
2 2 0.58783 0.46418 0.330084
3 2 0.528036 0.459985 0.443043
4 2 0.644786 0.471867 0.438545
5 1 0.600255 0.435839 0.305248
6 1 0.519152 0.484105 0.472008
7 1 0.646587 0.47055 0.47742
36 3 0.65206 0.350858 0.374798
37 2 0.592224 0.318739 0.392256
38 2 0.677006 0.366493 0.309885
39 2 0.700696 0.361676 0.422682
40 1 0.586114 0.285823 0.412296
41 1 0.712209 0.362993 0.294485
42 1 0.710826 0.399835 0.429151
27 1 0.503261 0.185709 0.738274
104 1 0.981385 0.241983 0.503167
15 3 0.125489 0.48084 0.665144
16 2 0.182004 0.44814 0.645674
18 2 0.111754 0.498959 0.732609
19 1 0.206739 0.422746 0.661199
25 2 0.431562 0.293567 0.725232
28 1 0.427182 0.280109 0.688887
34 1 0.401506 0.406653 0.747149
35 1 0.480646 0.492805 0.679175
78 3 0.654459 0.368977 0.723027
79 2 0.630135 0.346818 0.661879
81 2 0.665645 0.436395 0.733107
82 1 0.636489 0.357337 0.625174
64 3 0.940439 0.419918 0.690858
65 2 0.958438 0.478772 0.722045
66 2 0.982784 0.38218 0.647582
67 2 0.877312 0.393006 0.699151
69 1 0.977489 0.348946 0.629051
70 1 0.86065 0.360878 0.684404
24 2 0.483244 0.199232 0.768501
44 2 0.218117 0.490712 0.924168
47 1 0.233449 0.48096 0.958243
22 3 0.4582 0.264065 0.782163
23 2 0.456371 0.296772 0.843252
26 1 0.435632 0.3256 0.858321
29 3 0.443739 0.494271 0.771769
31 2 0.396157 0.442316 0.761767
80 2 0.667047 0.32966 0.780575
83 1 0.677776 0.339079 0.816353
84 1 0.681605 0.456693 0.762277
21 1 0.0836038 0.490496 0.757307
20 1 0.0414704 0.498442 0.61584
13 1 0.171654 0.949796 0.0144303
88 2 0.168705 0.704945 0.499463
86 2 0.239733 0.801926 0.498063
89 1 0.237176 0.817412 0.462912
92 3 0.590307 0.830752 0.455972
93 2 0.565632 0.806913 0.395973
94 2 0.640106 0.880522 0.46489
96 1 0.541943 0.778676 0.3848
97 1 0.656211 0.895585 0.496405
17 2 0.0757598 0.515429 0.625348
60 2 0.387367 0.757089 0.802567
85 3 0.211581 0.748675 0.531794
87 2 0.219211 0.731926 0.600504
90 1 0.218001 0.697814 0.618465
91 1 0.151763 0.671489 0.509634
32 2 0.482349 0.506351 0.715706
61 1 0.272913 0.828423 0.836854
95 2 0.566774 0.806131 0.516225
98 1 0.572501 0.816179 0.553338
68 1 0.940473 0.50308 0.74628
43 3 0.205739 0.547342 0.887369
45 2 0.206895 0.551761 0.815996
46 2 0.185266 0.608659 0.914452
48 1 0.177624 0.551036 0.79022
49 1 0.192693 0.645108 0.902687
30 2 0.454973 0.530308 0.829932
33 1 0.480464 0.556799 0.841401
62 1 0.423443 0.739297 0.924123
63 1 0.42203 0.74122 0.795315
8 3 0.169026 0.92914 0.915836
9 2 0.12724 0.90955 0.864187
10 2 0.150673 0.942288 0.983023
11 2 0.236245 0.941338 0.903924
12 1 0.129563 0.907938 0.825764
14 1 0.268116 0.93519 0.925653
57 3 0.353453 0.773806 0.860741
58 2 0.289348 0.800178 0.857657
59 2 0.390336 0.758523 0.919291
ITEM: TIMESTEP
150
ITEM: NUMBER OF ATOMS
105
ITEM: BOX BOUNDS
0 25
0 25
0 25
ITEM: ATOMS id type xs ys zs
50 3 0.826482 0.158168 0.223689
51 2 0.799208 0.0947562 0.21961
53 2 0.863281 0.18537 0.172081
54 1 0.799045 0.0681899 0.191408
56 1 0.887454 0.215748 0.170794
71 3 0.225526 0.407046 0.0980474
73 2 0.165825 0.421558 0.13551
74 2 0.214292 0.416677 0.0294686
76 1 0.133187 0.437791 0.122846
77 1 0.1873 0.401927 0.00610518
72 2 0.287316 0.390076 0.122429
75 1 0.321701 0.383418 0.105884
52 2 0.824125 0.204232 0.278419
55 1 0.819132 0.24258 0.277287
105 1 0.983608 0.233135 0.378517
99 3 0.0579098 0.259074 0.438977
100 2 0.126295 0.268555 0.434878
101 2 0.0160789 0.254815 0.497451
102 2 0.0176927 0.251084 0.383301
103 1 0.148278 0.286263 0.4082
1 3 0.585665 0.461879 0.399035
2 2 0.588887 0.46254 0.32888
3 2 0.528876 0.458819 0.444894
4 2 0.644751 0.471806 0.439759
5 1 0.590881 0.431094 0.305422
6 1 0.515092 0.488668 0.465259
7 1 0.644885 0.474937 0.477418
36 3 0.651802 0.350612 0.374904
37 2 0.591145 0.319926 0.393401
38 2 0.677519 0.369179 0.31025
39 2 0.701243 0.362114 0.421751
40 1 0.585287 0.282124 0.401918
41 1 0.710148 0.355445 0.29421
42 1 0.711015 0.396313 0.435707
27 1 0.509277 0.189167 0.740987
104 1 0.981109 0.238668 0.500354
15 3 0.126361 0.480925 0.664738
16 2 0.182083 0.447844 0.645738
18 2 0.10905 0.499432 0.732795
19 1 0.204085 0.419982 0.66177
25 2 0.432274 0.292751 0.724754
28 1 0.427705 0.277563 0.689202
34 1 0.404982 0.403789 0.755913
35 1 0.478096 0.492395 0.679167
78 3 0.654248 0.368931 0.722704
79 2 0.629618 0.347155 0.661509
81 2 0.665851 0.436021 0.733734
82 1 0.642152 0.354361 0.625355
64 3 0.940353 0.420298 0.691096
65 2 0.958611 0.478785 0.722054
66 2 0.983032 0.381867 0.647392
67 2 0.877704 0.392545 0.698715
69 1 0.976032 0.34824 0.630328
70 1 0.861939 0.360298 0.683761
24 2 0.482621 0.198837 0.76737
44 2 0.217415 0.48932 0.9237
47 1 0.234034 0.479795 0.956877
22 3 0.458133 0.264386 0.782472
23 2 0.456511 0.297463 0.843279
26 1 0.431686 0.323599 0.857647
29 3 0.443815 0.494584 0.772083
31 2 0.396304 0.441392 0.760574
80 2 0.667447 0.329963 0.781066
83 1 0.677294 0.341396 0.816516
84 1 0.683175 0.45504 0.762796
21 1 0.0839396 0.481211 0.755519
13 1 0.174242 0.949098 0.0138218
97 1 0.655246 0.894127 0.49854
86 2 0.240036 0.802063 0.497979
89 1 0.234714 0.816642 0.462447
92 3 0.590116 0.830538 0.455702
93 2 0.565512 0.806944 0.395677
94 2 0.640224 0.880704 0.46575
96 1 0.542659 0.776943 0.38675
17 2 0.0737023 0.515477 0.626019
60 2 0.388034 0.75694 0.803125
85 3 0.211604 0.749011 0.531539
87 2 0.218241 0.731068 0.600766
90 1 0.222157 0.695958 0.616322
91 1 0.15297 0.671264 0.512098
32 2 0.481939 0.505666 0.715553
61 1 0.276146 0.833324 0.841697
95 2 0.567444 0.806602 0.516442
98 1 0.573013 0.818794 0.552841
68 1 0.939262 0.503333 0.745185
43 3 0.206018 0.546941 0.88829
45 2 0.207426 0.553967 0.815222
46 2 0.184752 0.60908 0.913795
48 1 0.181285 0.533989 0.79341
49 1 0.197862 0.644443 0.904429
30 2 0.455153 0.530547 0.830133
33 1 0.482803 0.556109 0.83956
62 1 0.42342 0.737498 0.922317
63 1 0.422584 0.7404 0.797523
8 3 0.168814 0.929157 0.915473
9 2 0.127134 0.909026 0.864045
10 2 0.151376 0.94231 0.983555
11 2 0.236212 0.941968 0.904783
12 1 0.130346 0.911452 0.825486
14 1 0.267675 0.930863 0.924667
57 3 0.353098 0.773813 0.860646
58 2 0.288762 0.799966 0.857223
59 2 0.391227 0.758471 0.9191
20 1 0.0450701 0.500486 0.605921
88 2 0.168923 0.704527 0.50016
ITEM: TIMESTEP
180
ITEM: NUMBER OF ATOMS
105
ITEM: BOX BOUNDS
0 25
0 25
0 25
ITEM: ATOMS id type xs ys zs
50 3 0.826418 0.157702 0.223639
51 2 0.798925 0.0946197 0.219831
53 2 0.862978 0.186266 0.172461
54 1 0.800504 0.0699482 0.189334
56 1 0.88904 0.215069 0.174412
71 3 0.225925 0.407158 0.0981089
73 2 0.16513 0.421199 0.134833
74 2 0.213813 0.418453 0.0295701
76 1 0.134653 0.440836 0.121303
77 1 0.189062 0.399337 0.00693467
72 2 0.287248 0.389747 0.122712
75 1 0.320405 0.384921 0.101996
52 2 0.825195 0.205082 0.277995
55 1 0.814874 0.242369 0.275447
105 1 0.98375 0.230577 0.381595
99 3 0.058344 0.25913 0.438887
100 2 0.12666 0.268276 0.434995
101 2 0.0149868 0.254885 0.496846
102 2 0.0166477 0.251093 0.38419
103 1 0.145431 0.290663 0.408594
1 3 0.585821 0.461843 0.398435
2 2 0.589771 0.460239 0.327803
3 2 0.53018 0.458053 0.446689
4 2 0.644364 0.471736 0.441204
5 1 0.584583 0.430795 0.303653
6 1 0.510115 0.489002 0.458113
7 1 0.644619 0.480048 0.477089
36 3 0.651322 0.350379 0.374938
37 2 0.590308 0.32091 0.394364
38 2 0.677999 0.371618 0.310753
39 2 0.70216 0.363207 0.421032
40 1 0.580928 0.282948 0.391707
41 1 0.70661 0.35192 0.293068
42 1 0.713698 0.388702 0.444696
104 1 0.981288 0.235488 0.497399
27 1 0.514325 0.191603 0.745742
21 1 0.0826756 0.476234 0.75264
15 3 0.127153 0.48119 0.664312
16 2 0.182069 0.447588 0.645675
18 2 0.106511 0.499376 0.733186
19 1 0.200689 0.417371 0.662684
25 2 0.432984 0.292022 0.724156
28 1 0.428462 0.275053 0.689499
34 1 0.405258 0.402793 0.763671
35 1 0.475257 0.491606 0.679277
78 3 0.653992 0.368838 0.722384
79 2 0.629207 0.347414 0.661156
81 2 0.666166 0.435718 0.734484
82 1 0.646667 0.351076 0.626219
64 3 0.940326 0.420683 0.691283
65 2 0.958891 0.47871 0.722128
66 2 0.983121 0.381786 0.647463
67 2 0.87806 0.391945 0.698202
69 1 0.974002 0.347723 0.631968
70 1 0.863288 0.35951 0.683161
24 2 0.482029 0.198715 0.766062
44 2 0.21655 0.487817 0.922752
47 1 0.23209 0.480264 0.957136
22 3 0.45808 0.264681 0.782869
23 2 0.456639 0.298167 0.84319
26 1 0.427782 0.321027 0.856716
29 3 0.443831 0.494907 0.772455
31 2 0.396955 0.440272 0.759442
80 2 0.667823 0.330447 0.781288
83 1 0.676512 0.344127 0.816405
84 1 0.684803 0.452928 0.763759
13 1 0.177234 0.948693 0.0126085
96 1 0.543381 0.775143 0.389686
86 2 0.240413 0.80217 0.498032
89 1 0.231322 0.815136 0.462015
92 3 0.589945 0.83035 0.455406
93 2 0.565508 0.80708 0.395348
94 2 0.640119 0.880681 0.466582
17 2 0.0719112 0.515175 0.626573
60 2 0.388852 0.756793 0.803724
85 3 0.211618 0.749387 0.531332
87 2 0.217246 0.730188 0.600695
90 1 0.226149 0.695077 0.614306
91 1 0.15385 0.671527 0.515718
32 2 0.481567 0.504947 0.715263
61 1 0.27857 0.836392 0.846732
95 2 0.568162 0.807067 0.516756
98 1 0.573755 0.821961 0.552157
68 1 0.937423 0.503675 0.743349
43 3 0.206384 0.546529 0.889373
45 2 0.207115 0.555331 0.814465
46 2 0.184477 0.609528 0.913185
48 1 0.19438 0.525942 0.792828
49 1 0.200593 0.643869 0.906284
30 2 0.45526 0.530731 0.83032
33 1 0.485506 0.555117 0.836808
62 1 0.423071 0.735589 0.920339
63 1 0.423253 0.739173 0.800744
8 3 0.168538 0.929201 0.915109
9 2 0.126985 0.908499 0.864048
10 2 0.152151 0.942195 0.983845
11 2 0.236336 0.942501 0.905728
12 1 0.131662 0.915327 0.825658
14 1 0.267111 0.927632 0.923719
57 3 0.352712 0.77379 0.860569
58 2 0.288279 0.799926 0.856924
59 2 0.392017 0.758488 0.9186
20 1 0.0507322 0.502555 0.598247
88 2 0.169178 0.70396 0.500816
97 1 0.653943 0.892103 0.50084
ITEM: TIMESTEP
210
ITEM: NUMBER OF ATOMS
105
ITEM: BOX BOUNDS
0 25
0 25
0 25
ITEM: ATOMS id type xs ys zs
50 3 0.826357 0.15722 0.22371
51 2 0.798733 0.0945527 0.21975
53 2 0.862793 0.187451 0.172858
54 1 0.799237 0.0686982 0.190579
56 1 0.890884 0.213863 0.175931
71 3 0.226229 0.407349 0.0982521
73 2 0.164649 0.420748 0.1338
74 2 0.213229 0.420176 0.0296937
76 1 0.136099 0.443935 0.122006
77 1 0.191593 0.400455 0.00528246
72 2 0.287333 0.389403 0.122631
75 1 0.321417 0.385421 0.10393
52 2 0.826169 0.205906 0.277221
55 1 0.811723 0.241678 0.275851
105 1 0.983354 0.229569 0.382485
99 3 0.0588044 0.259197 0.438891
100 2 0.126869 0.268299 0.434834
101 2 0.0138954 0.254792 0.495836
102 2 0.015325 0.250865 0.38515
103 1 0.147177 0.293109 0.412594
1 3 0.586138 0.461607 0.397799
2 2 0.590328 0.457736 0.327118
3 2 0.531875 0.457882 0.448175
4 2 0.643653 0.471766 0.442616
5 1 0.581479 0.430949 0.301824
6 1 0.503954 0.483438 0.453
7 1 0.642691 0.485459 0.477009
36 3 0.650685 0.350445 0.375093
37 2 0.58978 0.321664 0.394987
38 2 0.678515 0.373385 0.311409
39 2 0.70374 0.363569 0.420359
40 1 0.572451 0.288932 0.383574
41 1 0.702959 0.355799 0.288293
42 1 0.708525 0.386318 0.450467
104 1 0.981655 0.233654 0.497708
27 1 0.517017 0.189993 0.752323
21 1 0.0787314 0.47978 0.753736
15 3 0.127761 0.481758 0.663803
16 2 0.181975 0.447192 0.645743
18 2 0.104047 0.498304 0.733496
19 1 0.19899 0.41493 0.660008
25 2 0.433681 0.291291 0.723406
28 1 0.429229 0.273852 0.689258
34 1 0.402095 0.402534 0.768428
35 1 0.473932 0.490971 0.679124
78 3 0.653651 0.368685 0.722072
79 2 0.629187 0.347646 0.66073
81 2 0.666688 0.435464 0.735499
82 1 0.646281 0.345924 0.625944
64 3 0.940393 0.421069 0.691396
65 2 0.958983 0.478588 0.722423
66 2 0.982839 0.381776 0.647833
67 2 0.878379 0.391189 0.697589
69 1 0.974429 0.347598 0.632521
70 1 0.864502 0.358468 0.682794
24 2 0.481678 0.199012 0.764565
44 2 0.215734 0.486386 0.921539
47 1 0.225932 0.477675 0.957712
22 3 0.458069 0.264908 0.783335
23 2 0.456368 0.299051 0.842873
26 1 0.427033 0.318233 0.859845
29 3 0.443726 0.495155 0.772834
31 2 0.398136 0.439079 0.758607
80 2 0.66819 0.331284 0.78129
83 1 0.675418 0.344857 0.816668
84 1 0.686073 0.451749 0.764521
13 1 0.178343 0.948945 0.0123133
96 1 0.544448 0.775002 0.387601
86 2 0.240555 0.802168 0.497803
89 1 0.231704 0.817455 0.462971
92 3 0.589828 0.830238 0.45507
93 2 0.565416 0.806958 0.3952
94 2 0.639745 0.880401 0.46756
17 2 0.0706369 0.514589 0.627044
60 2 0.389995 0.756532 0.804488
85 3 0.21164 0.7498 0.53126
87 2 0.21629 0.729209 0.600197
90 1 0.229605 0.695963 0.614386
91 1 0.152927 0.672139 0.517752
32 2 0.481129 0.504171 0.714754
61 1 0.276094 0.836667 0.852082
95 2 0.569013 0.807664 0.517268
98 1 0.573337 0.823743 0.552073
68 1 0.938251 0.505989 0.740904
43 3 0.206744 0.546193 0.890508
45 2 0.206562 0.55556 0.814052
46 2 0.184564 0.609914 0.912743
48 1 0.210769 0.52967 0.787831
49 1 0.200049 0.644292 0.90759
30 2 0.45566 0.531069 0.830298
33 1 0.485878 0.554311 0.838945
62 1 0.422397 0.734011 0.919874
63 1 0.423727 0.737872 0.802526
8 3 0.168191 0.929272 0.914806
9 2 0.127057 0.908183 0.863898
10 2 0.153174 0.941928 0.983892
11 2 0.236629 0.942845 0.906781
12 1 0.128334 0.916536 0.825825
14 1 0.267272 0.926385 0.922691
57 3 0.352271 0.773731 0.860521
58 2 0.288057 0.8003 0.856754
59 2 0.392732 0.758491 0.917679
20 1 0.0587489 0.502307 0.592883
88 2 0.169469 0.703086 0.501609
97 1 0.654053 0.891261 0.501663
ITEM: TIMESTEP
240
ITEM: NUMBER OF ATOMS
105
ITEM: BOX BOUNDS
0 25
0 25
0 25
ITEM: ATOMS id type xs ys zs
50 3 0.826305 0.156743 0.223868
51 2 0.798574 0.0945759 0.219554
53 2 0.862737 0.18883 0.17324
54 1 0.796504 0.0660898 0.193885
56 1 0.892717 0.212629 0.175478
71 3 0.226425 0.407603 0.0984137
73 2 0.164442 0.420218 0.132504
74 2 0.212721 0.421974 0.0298458
76 1 0.137654 0.446685 0.124348
77 1 0.193705 0.403386 0.00304795
72 2 0.287495 0.389051 0.12235
75 1 0.323454 0.385423 0.109672
52 2 0.826999 0.206553 0.27619
55 1 0.809937 0.240842 0.277613
105 1 0.982047 0.229806 0.382547
99 3 0.0592439 0.259278 0.438959
100 2 0.126924 0.268495 0.434606
101 2 0.0130151 0.254613 0.494578
102 2 0.0138874 0.25045 0.386066
103 1 0.15076 0.294099 0.418731
1 3 0.586603 0.461119 0.397142
2 2 0.590557 0.455519 0.327031
3 2 0.53383 0.458109 0.44917
4 2 0.642666 0.47189 0.443885
5 1 0.580212 0.428023 0.302582
6 1 0.499249 0.473919 0.448732
7 1 0.638918 0.49096 0.476957
36 3 0.649957 0.350748 0.375239
37 2 0.589477 0.322452 0.395248
38 2 0.678612 0.374761 0.312184
39 2 0.705776 0.363435 0.419957
40 1 0.56463 0.29915 0.376685
41 1 0.700649 0.361066 0.285241
42 1 0.698242 0.387274 0.452333
104 1 0.982066 0.232648 0.499088
27 1 0.517186 0.186449 0.759642
21 1 0.0711323 0.486183 0.751663
15 3 0.128094 0.482573 0.663488
16 2 0.181837 0.446779 0.645843
18 2 0.102119 0.496666 0.733484
19 1 0.197632 0.412636 0.655261
25 2 0.434305 0.290638 0.722581
28 1 0.43063 0.273154 0.688561
34 1 0.399863 0.402668 0.771254
35 1 0.474118 0.489809 0.678765
78 3 0.65325 0.368499 0.721723
79 2 0.629347 0.347721 0.660414
81 2 0.667391 0.435261 0.736719
82 1 0.643803 0.340717 0.625632
64 3 0.940548 0.421443 0.691428
65 2 0.958968 0.478431 0.72296
66 2 0.982249 0.381869 0.648509
67 2 0.878658 0.390329 0.696914
69 1 0.976366 0.347845 0.632255
70 1 0.865828 0.357077 0.682453
24 2 0.481513 0.199663 0.76312
44 2 0.215046 0.485066 0.920243
47 1 0.215953 0.47215 0.956754
22 3 0.458099 0.26507 0.783818
23 2 0.455862 0.299997 0.842393
26 1 0.428301 0.314871 0.864814
29 3 0.443544 0.495257 0.773195
31 2 0.399579 0.438189 0.758099
80 2 0.66852 0.33236 0.781021
83 1 0.673946 0.344365 0.817086
84 1 0.687074 0.451242 0.765409
13 1 0.178149 0.949894 0.012564
96 1 0.545864 0.77607 0.38282
86 2 0.240551 0.80209 0.497445
89 1 0.234247 0.821836 0.465124
92 3 0.58975 0.830181 0.45472
93 2 0.565335 0.806729 0.395153
94 2 0.639121 0.879896 0.468542
17 2 0.0700785 0.513344 0.627067
60 2 0.391385 0.756131 0.805381