ITEM: TIMESTEP
0
ITEM: NUMBER OF ATOMS
2898
ITEM: BOX BOUNDS
0 26.052
0 20.312
0 48.3627
ITEM: ATOMS
26 3 0.0669087 0.0778283 0.00304092
54 3 0.237678 0.22248 0.00156454
142 3 0.0141504 0.481749 0.000123399
160 3 0.134085 0.459324 0.00211144
252 3 0.96657 0.571315 0.00163519
272 3 0.129071 0.730827 0.00336182
278 3 0.220843 0.713894 0.00351503
362 3 0.0488184 0.826148 0.00245454
366 3 0.00661038 0.962154 0.00281388
502 3 0.553621 0.204065 0.0044645
590 3 0.342716 0.463784 0.000223188
608 3 0.456706 0.460971 0.00258432
614 3 0.574226 0.453466 0.00452889
702 3 0.34482 0.710915 0.00299994
720 3 0.449583 0.715638 0.00230128
728 3 0.507175 0.58571 0.00166387
814 3 0.33967 0.942297 0.002419
838 3 0.559798 0.98045 0.00192501
840 3 0.497959 0.8239 0.000619072
952 3 0.834549 0.107157 0.00140248
1038 3 0.660402 0.457389 0.00419113
1056 3 0.786547 0.477685 0.00488235
1176 3 0.834754 0.584445 0.0013143
1258 3 0.737585 0.848533 0.00222906
1260 3 0.627264 0.821121 0.000775144
1262 3 0.670344 0.958401 0.0037678
1280 3 0.771456 0.945577 0.000374697
1286 3 0.908563 0.962151 0.0043686
1345 4 0.0525231 0.585468 0.17875
1346 5 0.0170994 0.602558 0.169748
1347 5 0.0796927 0.611965 0.168493
1348 4 0.296347 0.986423 0.0526799
1349 5 0.308871 0.939961 0.0491786
1350 5 0.307562 0.00194577 0.0720872
1360 4 0.0752044 0.756468 0.181964
1361 5 0.0902143 0.713352 0.174404
1362 5 0.0455364 0.749729 0.195825
1369 4 0.643057 0.966995 0.153815
1370 5 0.638386 0.947895 0.173237
1371 5 0.673538 0.944405 0.145948
1381 4 0.921311 0.626483 0.0886602
1382 5 0.958298 0.612261 0.0824945
1383 5 0.907828 0.661729 0.0749108
1384 4 0.915035 0.0142051 0.0565412
1385 5 0.951289 0.00999613 0.0501017
1386 5 0.910539 0.96818 0.062795
1408 4 0.262928 0.536788 0.0820521
1409 5 0.252246 0.489096 0.0851063
1410 5 0.258454 0.54921 0.0619457
1411 4 0.815287 0.590731 0.0456711
1412 5 0.783731 0.619747 0.0482903
1413 5 0.807657 0.550349 0.055712
1417 4 0.180938 0.986342 0.0379154
1418 5 0.157504 0.0158639 0.0282092
1419 5 0.211152 0.990544 0.0239926
1429 4 0.865232 0.455055 0.0373042
1430 5 0.896861 0.479446 0.043493
1431 5 0.872426 0.457118 0.0171344
1450 4 0.452538 0.807844 0.159335
1451 5 0.438911 0.827669 0.142218
1452 5 0.491344 0.808634 0.158885
1453 4 0.470833 0.440381 0.167707
1454 5 0.499857 0.408702 0.163173
1455 5 0.481039 0.458765 0.186648
1465 4 0.47294 0.459398 0.0375556
1466 5 0.490867 0.452081 0.0558076
1467 5 0.47581 0.510284 0.0355053
1468 4 0.0841904 0.0969577 0.0447505
1469 5 0.116774 0.123307 0.0406448
1470 5 0.056706 0.131448 0.0503734
1477 4 0.228721 0.100658 0.111276
1478 5 0.209519 0.0568076 0.110481
1479 5 0.26396 0.0891486 0.104246
1480 4 0.916487 0.472429 0.113836
1481 5 0.955432 0.473151 0.11759
1482 5 0.915198 0.465675 0.0923946
1492 4 0.395313 0.907375 0.183386
1493 5 0.41364 0.867615 0.174425
1494 5 0.420136 0.933917 0.194814
1498 4 0.165247 0.750281 0.0327667
1499 5 0.184853 0.794082 0.032602
1500 5 0.15418 0.752857 0.0529101
1519 4 0.0807126 0.0453467 0.146489
1520 5 0.0493789 0.0392775 0.158038
1521 5 0.11084 0.0311655 0.1581
1522 4 0.794015 0.651218 0.18594
1523 5 0.816556 0.61349 0.189694
1524 5 0.758897 0.630869 0.191315
1531 4 0.241158 0.805128 0.0798488
1532 5 0.249435 0.825962 0.0620817
1533 5 0.246544 0.755134 0.0777581
1537 4 0.6058 0.694023 0.124053
1538 5 0.582577 0.731626 0.12751
1539 5 0.580935 0.654663 0.128032
1549 4 0.681629 0.812305 0.122793
1550 5 0.689325 0.841945 0.140038
1551 5 0.670644 0.764726 0.127013
1552 4 0.726434 0.894507 0.158312
1553 5 0.736771 0.852257 0.168726
1554 5 0.740401 0.932605 0.169666
1558 4 0.577458 0.230043 0.124953
1559 5 0.567252 0.186532 0.133709
1560 5 0.601365 0.221176 0.10843
1561 4 0.04097 0.321314 0.0368445
1562 5 0.0425461 0.315502 0.0166601
1563 5 0.0450441 0.27548 0.0448813
1568 5 0.420617 0.776837 0.196782
1573 4 0.30431 0.304414 0.108532
1574 5 0.332918 0.334306 0.0991835
1575 5 0.30377 0.263394 0.0978555
1576 4 0.579065 0.924874 0.112486
1577 5 0.598758 0.942628 0.129315
1578 5 0.597675 0.944993 0.0954181
1582 4 0.897197 0.884609 0.0802745
1583 5 0.880624 0.858886 0.0638109
1584 5 0.867578 0.884837 0.0937719
1591 4 0.867048 0.8029 0.191152
1592 5 0.886111 0.841456 0.18145
1593 5 0.870575 0.766653 0.176664
1597 4 0.341583 0.0180123 0.158159
1598 5 0.37601 0.043733 0.156867
1599 5 0.356869 0.982333 0.171491
1600 4 0.121972 0.215449 0.184719
1601 5 0.156204 0.199975 0.175218
1602 5 0.0967717 0.2252 0.169207
1603 4 0.404961 0.120665 0.109222
1604 5 0.422258 0.150663 0.122255
1605 5 0.432425 0.09572 0.0993699
1615 4 0.557899 0.800399 0.149684
1616 5 0.567629 0.810386 0.169862
1617 5 0.566407 0.839461 0.13872
1621 4 0.324904 0.0451233 0.100629
1622 5 0.351889 0.0838768 0.102739
1623 5 0.329185 0.0191011 0.118426
1624 4 0.897744 0.688498 0.0412583
1625 5 0.865012 0.662185 0.0412396
1626 5 0.885153 0.734796 0.0452088
1633 4 0.00637162 0.992131 0.0391557
1634 5 0.0287122 0.951438 0.0427165
1635 5 0.0268983 0.0335843 0.0440267
1639 4 0.971579 0.412954 0.0656112
1640 5 0.991888 0.380597 0.0548891
1641 5 0.974818 0.392806 0.0846477
1648 4 0.976489 0.868355 0.114534
1649 5 0.0037912 0.901069 0.107149
1650 5 0.949594 0.861951 0.0992256
1651 4 0.193541 0.97569 0.097345
1652 5 0.193446 0.975873 0.0764358
1653 5 0.167429 0.942132 0.104625
1663 4 0.35033 0.698972 0.056618
1664 5 0.320537 0.688083 0.0711319
1665 5 0.357725 0.652305 0.0505688
1673 4 0.614224 0.476919 0.0385554
1674 5 0.621114 0.455573 0.0574793
1675 5 0.26177 0.740538 0.195741
1676 5 0.628475 0.524943 0.0403456
1677 5 0.318869 0.760515 0.183562
1678 4 0.411658 0.732594 0.0972942
1679 5 0.446999 0.752524 0.0932073
1680 5 0.395163 0.718385 0.0793873
1684 4 0.978125 0.769097 0.15147
1685 5 0.984594 0.792003 0.133245
1686 5 0.0123145 0.773046 0.162716
1720 4 0.866434 0.546166 0.175685
1721 5 0.843478 0.512561 0.185053
1722 5 0.901055 0.544941 0.185369
1729 4 0.632049 0.258824 0.0779125
1730 5 0.65748 0.23329 0.0651956
1731 5 0.62282 0.299153 0.0665947
1735 4 0.942803 0.244644 0.0264437
1736 5 0.969942 0.266872 0.0364728
1737 5 0.938032 0.201279 0.0368051
1741 4 0.365468 0.569185 0.0331125
1742 5 0.373232 0.573359 0.0127729
1743 5 0.333525 0.542542 0.0335592
1744 4 0.71242 0.0791124 0.138311
1745 5 0.735104 0.0375856 0.138489
1746 5 0.686221 0.0757391 0.152923
1765 4 0.151296 0.837256 0.119895
1766 5 0.182218 0.83398 0.10754
1767 5 0.128257 0.798324 0.11962
1768 4 0.687503 0.303966 0.136321
1769 5 0.70846 0.332553 0.122483
1770 5 0.664365 0.271365 0.126388
1771 4 0.647592 0.123233 0.0995466
1772 5 0.675037 0.10242 0.112249
1773 5 0.66557 0.151865 0.0864098
1810 4 0.279914 0.931875 0.133434
1811 5 0.25491 0.960279 0.12279
1812 5 0.297511 0.962579 0.147807
1816 4 0.855929 0.0728789 0.198556
1817 5 0.843642 0.099293 0.181823
1822 4 0.540623 0.111217 0.149634
1823 5 0.505568 0.135926 0.150633
1824 5 0.536611 0.0771414 0.134175
1831 4 0.0754038 0.721067 0.11396
1832 5 0.074291 0.75685 0.100864
1833 5 0.0592059 0.681735 0.10372
1837 4 0.944497 0.14021 0.0638715
1838 5 0.930379 0.0971444 0.0576723
1839 5 0.929244 0.144573 0.083567
1850 4 0.063331 0.79084 0.062115
1851 5 0.0294117 0.785833 0.0527217
1853 5 0.0747742 0.837602 0.0578057
1855 4 0.379571 0.379558 0.0852481
1856 5 0.396867 0.417392 0.0955188
1857 5 0.391708 0.380246 0.0647726
1867 4 0.390346 0.298716 0.172407
1868 5 0.385867 0.347836 0.172213
1869 5 0.396984 0.283301 0.192564
1895 5 0.118216 0.310289 0.191571
1897 4 0.818058 0.865023 0.117244
1898 5 0.824151 0.816979 0.122293
1899 5 0.783178 0.878471 0.124977
1907 5 0.63735 0.695443 0.1959
1909 4 0.471327 0.600875 0.0440008
1910 5 0.47475 0.647273 0.0495095
1911 5 0.43441 0.589081 0.0440177
1912 4 0.107746 0.465417 0.162873
1913 5 0.083892 0.503089 0.166554
1914 5 0.113072 0.438246 0.181214
1915 4 0.0873924 0.937943 0.11141
1916 5 0.0872911 0.978807 0.124487
1917 5 0.104998 0.898312 0.120981
1918 4 0.279893 0.115328 0.0373772
1919 5 0.281734 0.0665778 0.0442393
1920 5 0.28176 0.116262 0.0156429
1924 4 0.858643 0.382549 0.148445
1925 5 0.886681 0.409598 0.139083
1926 5 0.853118 0.350971 0.132586
1933 4 0.548354 0.595868 0.130507
1934 5 0.509638 0.609467 0.1329
1935 5 0.548406 0.551659 0.140052
1937 5 0.907809 0.939786 0.187925
1945 4 0.600345 0.464203 0.147271
1946 5 0.612127 0.458464 0.167537
1947 5 0.579255 0.420883 0.145147
1954 4 0.417454 0.48499 0.121478
1955 5 0.435852 0.522025 0.112917
1956 5 0.436445 0.469822 0.138655
1969 4 0.678159 0.191123 0.0362157
1970 5 0.679388 0.200125 0.0148518
1971 5 0.691438 0.143226 0.0390435
1972 4 0.763671 0.805369 0.190316
1973 5 0.756201 0.75945 0.185617
1974 5 0.802674 0.808014 0.191678
1990 4 0.166663 0.201459 0.0877847
1991 5 0.164108 0.192629 0.0667187
1992 5 0.198313 0.171946 0.0909128
1999 4 0.454937 0.178195 0.158812
2000 5 0.439203 0.152115 0.174778
2001 5 0.451186 0.223822 0.164081
2002 4 0.428189 0.938753 0.0920243
2003 5 0.399161 0.916533 0.101841
2004 5 0.409316 0.949621 0.0745981
2026 4 0.425061 0.21727 0.0553335
2027 5 0.445073 0.234887 0.0724408
2028 5 0.426402 0.259399 0.043875
2029 4 0.318276 0.516895 0.128465
2030 5 0.302 0.534217 0.110063
2031 5 0.355682 0.505358 0.12358
2032 4 0.671537 0.664549 0.167903
2033 5 0.656171 0.67947 0.149422
2034 5 0.660196 0.614255 0.167389
2038 4 0.809696 0.733939 0.129109
2039 5 0.789091 0.698616 0.120471
2040 5 0.82548 0.703232 0.143279
2041 4 0.0053223 0.0162032 0.185708
2043 5 0.974829 0.984624 0.189189
2044 4 0.905929 0.902867 0.158478
2045 5 0.875611 0.905584 0.14522
2046 5 0.93831 0.884739 0.148038
2050 4 0.525036 0.245611 0.0331779
2051 5 0.552052 0.283028 0.0321704
2052 5 0.495784 0.2543 0.0187256
2062 4 0.6286 0.422437 0.0871229
2063 5 0.661039 0.39475 0.0868496
2064 5 0.624422 0.431941 0.107351
2065 4 0.667864 0.560766 0.12236
2066 5 0.641363 0.592498 0.115975
2067 5 0.648063 0.521775 0.128538
2068 4 0.583235 0.681812 0.0674946
2069 5 0.606617 0.651484 0.0562231
2070 5 0.600242 0.688996 0.0861703
2080 4 0.748616 0.896835 0.0346696
2081 5 0.76757 0.928874 0.0469567
2082 5 0.722491 0.88026 0.0478991
2083 4 0.533442 0.135012 0.0622055
2086 5 0.520459 0.140783 0.0814554
2088 5 0.528484 0.176921 0.0518619
2092 4 0.376076 0.429279 0.190836
2093 5 0.409915 0.439156 0.180545
2104 4 0.0189453 0.461286 0.124017
2105 5 0.0566946 0.455427 0.129142
2106 5 0.000606516 0.419457 0.13118
2110 4 0.501257 0.0395982 0.104434
2111 5 0.476175 0.999177 0.105555
2112 5 0.517449 0.0407208 0.085656
2115 5 0.00993129 0.52305 0.193665
2116 4 0.199214 0.751343 0.182398
2117 5 0.186847 0.721968 0.166769
2118 5 0.185151 0.796135 0.178872
2134 4 0.734507 0.650334 0.0575206
2135 5 0.741837 0.702366 0.0619895
2136 5 0.734181 0.634812 0.0786286
2140 4 0.160915 0.980496 0.173552
2141 5 0.150155 0.937142 0.182727
2142 5 0.188411 0.000715833 0.186585
2143 4 0.966604 0.633308 0.155368
2144 5 0.958684 0.624103 0.135234
2145 5 0.960168 0.681852 0.15792
2149 4 0.556594 0.343691 0.154723
2150 5 0.556703 0.327462 0.174406
2151 5 0.564026 0.300101 0.14429
2162 5 0.856543 0.38536 0.181302
2170 4 0.291339 0.268899 0.162805
2171 5 0.329355 0.259209 0.166226
2172 5 0.292277 0.288667 0.142958
2177 5 0.247401 0.309846 0.189894
2178 5 0.242178 0.389373 0.195345
2182 4 0.440477 0.987417 0.0379928
2183 5 0.446287 0.977698 0.0174803
2184 5 0.419847 0.0292825 0.0388187
2188 4 0.592497 0.337748 0.0301211
2189 5 0.602927 0.344915 0.0105028
2190 5 0.589016 0.384506 0.0385587
2197 4 0.7562 0.765516 0.0720106
2198 5 0.730011 0.801684 0.0765044
2199 5 0.777905 0.764081 0.0898132
2215 4 0.669188 0.279919 0.18768
2216 5 0.674042 0.289208 0.166156
2217 5 0.632188 0.268078 0.190457
2224 4 0.984844 0.760252 0.0313582
2225 5 0.962938 0.722006 0.0387474
2226 5 0.997132 0.740519 0.013182
2230 4 0.121118 0.661004 0.155199
2231 5 0.104961 0.682903 0.137625
2232 5 0.14541 0.631168 0.14545
2239 4 0.761378 0.204487 0.181706
2240 5 0.788787 0.228954 0.192421
2241 5 0.727471 0.227468 0.18288
2275 4 0.42227 0.343414 0.0323778
2276 5 0.407819 0.335561 0.0131237
2277 5 0.44265 0.387323 0.0333519
2287 4 0.864699 0.287388 0.109006
2288 5 0.885384 0.247101 0.109777
2289 5 0.844174 0.280615 0.0913223
2314 4 0.79642 0.459374 0.0770458
2315 5 0.819363 0.458954 0.0938255
2316 5 0.81862 0.449851 0.0604172
2341 4 0.72149 0.369873 0.0884997
2342 5 0.728961 0.337657 0.0725455
2343 5 0.7489 0.408122 0.0850307
2344 4 0.292705 0.437973 0.0304812
2345 5 0.318663 0.406553 0.0347167
2346 5 0.261322 0.423513 0.0412162
2371 4 0.35268 0.866025 0.109889
2372 5 0.324349 0.887395 0.120698
2373 5 0.331825 0.851615 0.0936829
2377 4 0.900884 0.144635 0.117296
2378 5 0.923235 0.13028 0.13256
2379 5 0.867409 0.126414 0.124832
2380 4 0.0449781 0.597376 0.0922534
2381 5 0.0370962 0.559898 0.104505
2382 5 0.0774363 0.583157 0.0820832
2389 4 0.494904 0.850598 0.102574
2390 5 0.52794 0.873998 0.107943
2391 5 0.466586 0.88758 0.0973664
2395 4 0.622274 0.087802 0.180112
2396 5 0.588842 0.106349 0.169233
2397 5 0.624179 0.0409951 0.171683
2401 4 0.389918 0.0976201 0.0340581
2402 5 0.353715 0.10831 0.0387462
2403 5 0.407468 0.137109 0.041939
2410 4 0.811645 0.123985 0.14895
2411 5 0.774018 0.115071 0.144113
2412 5 0.805951 0.163531 0.16137
2416 4 0.079401 0.540419 0.0349647
2417 5 0.10794 0.569966 0.0444858
2418 5 0.0820141 0.547628 0.01451
2455 4 0.832832 0.578848 0.126589
2456 5 0.851306 0.56077 0.143411
2457 5 0.863521 0.58396 0.114099
2467 4 0.636502 0.988319 0.0730611
2468 5 0.647926 0.0301421 0.080981
2469 5 0.612384 0.99902 0.0574761
2476 4 0.495575 0.75717 0.0631409
2477 5 0.524702 0.725953 0.0621864
2478 5 0.510719 0.792232 0.0767096
2488 4 0.515196 0.430725 0.0854643
2489 5 0.552907 0.426342 0.0885441
2490 5 0.500757 0.411866 0.102939
2500 4 0.0734427 0.145092 0.1148
2501 5 0.0850797 0.105477 0.125685
2502 5 0.105147 0.146842 0.102017
2506 4 0.63134 0.768399 0.0261877
2507 5 0.61614 0.734609 0.0391452
2508 5 0.653436 0.802801 0.035618
2530 4 0.203177 0.316702 0.108178
2531 5 0.18943 0.270936 0.104658
2532 5 0.243065 0.316821 0.110989
2545 4 0.273564 0.275255 0.0289902
2546 5 0.246922 0.303134 0.0382238
2547 5 0.293857 0.245291 0.0418908
2548 4 0.746153 0.637135 0.113022
2549 5 0.715999 0.607697 0.120133
2550 5 0.777607 0.608067 0.115185
2557 4 0.340528 0.769872 0.151301
2558 5 0.372047 0.761171 0.139785
2559 5 0.332781 0.810246 0.141591
2560 4 0.840388 0.809315 0.0413094
2561 5 0.838925 0.813971 0.0204321
2562 5 0.802997 0.794642 0.0469039
2563 4 0.281649 0.663458 0.140318
2564 5 0.285912 0.621958 0.15278
2565 5 0.301552 0.698359 0.149815
2575 4 0.710763 0.0659428 0.0320444
2576 5 0.744005 0.0444466 0.0375602
2577 5 0.714556 0.0679347 0.0106736
2587 4 0.261058 0.672641 0.0851831
2588 5 0.262928 0.67782 0.106384
2589 5 0.255521 0.62635 0.0803158
2593 4 0.0288213 0.226095 0.152265
2594 5 0.0492287 0.204721 0.137086
2595 5 0.00456572 0.192033 0.160319
2611 4 0.957646 0.134203 0.165792
2612 5 0.976284 0.0900808 0.166361
2613 5 0.946326 0.145179 0.185524
2614 4 0.813479 0.0234608 0.0426603
2615 5 0.852421 0.024614 0.0477112
2616 5 0.817108 0.00811964 0.0241558
2629 4 0.18006 0.452261 0.116246
2630 5 0.191595 0.405637 0.11162
2631 5 0.152443 0.446655 0.130964
2644 4 0.0294222 0.203621 0.0678186
2645 5 0.0433415 0.181736 0.0854607
2646 5 0.992858 0.183197 0.0659292
2665 4 0.275861 0.463437 0.181233
2666 5 0.31485 0.451776 0.18518
2667 5 0.274984 0.47417 0.161454
2668 4 0.155194 0.598122 0.0658051
2669 5 0.184405 0.589377 0.0511413
2670 5 0.170269 0.602965 0.0841225
2671 4 0.477795 0.2708 0.10067
2672 5 0.496221 0.261034 0.118483
2673 5 0.507117 0.288686 0.0885654
2683 4 0.11951 0.41323 0.0397455
2684 5 0.0977921 0.373509 0.0434608
2685 5 0.101215 0.456707 0.0419832
2692 4 0.835588 0.272399 0.0502444
2693 5 0.801141 0.291438 0.0445939
2694 5 0.864601 0.297092 0.0399431
2695 4 0.97488 0.332815 0.131641
2696 5 0.94486 0.305207 0.126225
2697 5 0.996301 0.302926 0.144682
2707 4 0.087672 0.915456 0.0526541
2708 5 0.0803864 0.921193 0.0734013
2709 5 0.122226 0.935334 0.0485603
2713 4 0.581738 0.0304375 0.0309771
2714 5 0.609544 0.0598876 0.0233914
2715 5 0.549908 0.0600143 0.0322237
2719 4 0.319032 0.208064 0.0695811
2720 5 0.304086 0.167804 0.0606304
2721 5 0.358655 0.201719 0.0694956
2731 4 0.450483 0.841526 0.0275448
2732 5 0.462818 0.803714 0.040372
2733 5 0.463395 0.885513 0.0360942
2740 4 0.161392 0.167802 0.0334374
2741 5 0.193663 0.152429 0.0241894
2742 5 0.151252 0.195537 0.0172854
2749 4 0.125288 0.872688 0.198025
2750 5 0.104805 0.83443 0.190953
2753 4 0.215271 0.377032 0.0566443
2754 5 0.182188 0.395286 0.047633
2756 5 0.206393 0.351944 0.074323
2767 4 0.683743 0.855948 0.0716433
2768 5 0.681202 0.84408 0.0921567
2769 5 0.659575 0.895501 0.0724128
2782 4 0.2448 0.594746 0.0323253
2783 5 0.27194 0.629843 0.026083
2784 5 0.230272 0.575773 0.0140378
2785 4 0.28702 0.120943 0.184129
2786 5 0.295045 0.085688 0.171114
2787 5 0.254925 0.144856 0.1784
2806 4 0.223001 0.853132 0.0288881
2807 5 0.205551 0.898588 0.0303902
2808 5 0.215996 0.841044 0.00822242
2812 4 0.735686 0.305239 0.0334581
2813 5 0.738759 0.319197 0.0130691
2814 5 0.718094 0.260473 0.0327704
2824 4 0.207051 0.173539 0.153827
2825 5 0.227892 0.215003 0.157696
2826 5 0.218888 0.152271 0.13596
2833 4 0.449956 0.643307 0.1327
2834 5 0.4465 0.668654 0.150777
2835 5 0.428759 0.666178 0.11843
2842 4 0.809799 0.153914 0.0292326
2843 5 0.789165 0.120502 0.0407509
2844 5 0.819515 0.196623 0.0396874
2848 4 0.763851 0.00123098 0.193461
2849 5 0.797843 0.0272921 0.195477
2854 4 0.345996 0.875364 0.0322456
2855 5 0.32622 0.850471 0.0171106
2856 5 0.3826 0.860742 0.0298856
2875 4 0.644678 0.610353 0.0339055
2876 5 0.633872 0.590912 0.0150303
2877 5 0.68313 0.62101 0.0305555
2884 4 0.184933 0.588321 0.124699
2885 5 0.17838 0.541081 0.11607
2886 5 0.222177 0.584888 0.127346
2890 4 0.978703 0.519 0.0308353
2891 5 0.010727 0.539002 0.0369558
2892 5 0.970547 0.475999 0.0407888
1363 4 0.634544 0.717612 0.291917
1364 5 0.617145 0.684068 0.279079
1365 5 0.672375 0.705724 0.287734
1389 5 0.568314 0.481015 0.398863
1396 4 0.657262 0.0250293 0.31446
1397 5 0.677007 0.985091 0.309101
1398 5 0.628749 0.0254407 0.299508
1399 4 0.694543 0.382389 0.306454
1400 4 0.605567 0.199345 0.381665
1401 5 0.687728 0.370068 0.28701
1402 5 0.575283 0.169364 0.377864
1403 5 0.587271 0.241131 0.387592
1404 5 0.676717 0.343666 0.315774
1420 4 0.0281956 0.672299 0.361152
1421 5 0.0500085 0.682955 0.344283
1422 5 0.995921 0.70235 0.363662
1426 4 0.998905 0.186833 0.34828
1427 5 0.997015 0.200166 0.32754
1428 5 0.0115795 0.140996 0.348271
1438 4 0.200236 0.663032 0.22898
1439 5 0.214766 0.622878 0.219842
1440 5 0.193316 0.701463 0.215697
1444 4 0.346293 0.150982 0.228324
1445 5 0.319703 0.147489 0.213116
1446 5 0.353535 0.10237 0.233301
1447 4 0.417777 0.55189 0.370985
1448 5 0.440984 0.590529 0.365766
1449 5 0.397116 0.563017 0.388687
1459 4 0.632068 0.185968 0.260633
1460 5 0.598561 0.161529 0.261421
1461 5 0.653311 0.166781 0.244753
1462 4 0.718887 0.958704 0.280687
1463 5 0.720725 0.9317 0.26325
1464 5 0.730447 0.00241958 0.273641
1471 4 0.377467 0.443632 0.248156
1472 5 0.349376 0.472575 0.256588
1473 5 0.412972 0.452195 0.257127
1474 4 0.188614 0.0348777 0.31485
1475 5 0.223091 0.0473993 0.30907
1476 5 0.173078 0.0792033 0.319499
1513 4 0.153187 0.283208 0.388506
1514 5 0.123127 0.306149 0.379453
1515 5 0.139187 0.241732 0.394372
1534 4 0.589137 0.630482 0.333754
1535 5 0.602176 0.664353 0.31949
1536 5 0.621453 0.605665 0.340841
1546 4 0.32674 0.00516184 0.240633
1547 5 0.309723 0.967306 0.233065
1548 5 0.315358 0.997146 0.260198
1555 4 0.511144 0.521461 0.209025
1556 5 0.485152 0.556316 0.213258
1557 5 0.537818 0.53049 0.222627
1564 4 0.841623 0.783795 0.292557
1565 5 0.820729 0.766903 0.309703
1566 5 0.863264 0.819802 0.300941
1567 4 0.400215 0.758317 0.212732
1569 5 0.361678 0.767304 0.207301
1585 4 0.927969 0.441926 0.34945
1586 5 0.919951 0.486625 0.357807
1587 5 0.925012 0.44798 0.328718
1588 4 0.709005 0.229024 0.363945
1589 5 0.732064 0.189391 0.367057
1590 5 0.677651 0.219591 0.375447
1609 4 0.217546 0.0422999 0.215814
1610 5 0.243509 0.078747 0.214817
1611 5 0.185745 0.0715817 0.22156
1612 4 0.43476 0.0385066 0.26169
1613 5 0.453563 0.995894 0.266478
1614 5 0.39561 0.0285218 0.259838
1618 4 0.139192 0.495349 0.298105
1619 5 0.136807 0.54557 0.299923
1620 5 0.158139 0.484429 0.316035
1636 4 0.865149 0.756235 0.364757
1637 5 0.857722 0.724978 0.380562
1638 5 0.833814 0.750152 0.353296
1645 4 0.559854 0.276557 0.208289
1646 5 0.539556 0.311777 0.218973
1647 5 0.560697 0.232756 0.219149
1654 4 0.394048 0.150074 0.363297
1655 5 0.408341 0.179073 0.377552
1656 5 0.390047 0.102643 0.36942
1657 4 0.51113 0.793968 0.352381
1658 5 0.509135 0.838453 0.361018
1659 5 0.542932 0.791694 0.340275
1660 4 0.281848 0.804322 0.252469
1661 5 0.284983 0.776205 0.234696
1662 5 0.254431 0.83667 0.250107
1666 4 0.187369 0.457783 0.345154
1667 5 0.218183 0.486394 0.350538
1668 5 0.179175 0.435978 0.363377
1669 4 0.0349636 0.293421 0.373675
1670 5 0.0340359 0.335245 0.360792
1671 5 0.0233725 0.255152 0.360915
1672 4 0.297913 0.751168 0.20157
1693 4 0.445244 0.268853 0.332718
1694 5 0.481332 0.27732 0.327295
1695 5 0.4366 0.304173 0.347095
1699 4 0.662684 0.0597546 0.366607
1700 5 0.65614 0.0432641 0.347282
1701 5 0.632528 0.0811898 0.373762
1705 4 0.318425 0.418499 0.309846
1707 5 0.298975 0.389039 0.296152
1709 5 0.315848 0.461852 0.299686
1717 4 0.835816 0.957716 0.299581
1718 5 0.811529 0.967308 0.2831
1719 5 0.870997 0.949967 0.292099
1723 4 0.221824 0.263232 0.277069
1724 5 0.23254 0.307958 0.270826
1725 5 0.211731 0.268635 0.297784
1726 4 0.0729546 0.506974 0.365502
1727 5 0.0538191 0.544034 0.374384
1728 5 0.100693 0.530343 0.353495
1732 4 0.712457 0.774655 0.398957
1733 5 0.683019 0.759167 0.387531
1734 5 0.735032 0.803222 0.386446
1738 4 0.922532 0.56601 0.230564
1739 5 0.931708 0.560095 0.2512
1740 5 0.908651 0.613189 0.232055
1747 4 0.207662 0.104079 0.386973
1748 5 0.173341 0.122471 0.392394
1750 4 0.161724 0.778339 0.352371
1751 5 0.159615 0.74846 0.368694
1752 5 0.200765 0.790533 0.351321
1753 4 0.00195997 0.188864 0.292724
1754 5 0.0356646 0.207873 0.285516
1755 5 0.979133 0.208733 0.279163
1762 4 0.966777 0.771744 0.377364
1763 5 0.968806 0.792118 0.396398
1764 5 0.929953 0.757204 0.373772
1774 4 0.520137 0.0570672 0.322007
1775 5 0.490218 0.0238815 0.324361
1776 5 0.547484 0.038541 0.308827
1777 4 0.482814 0.665034 0.357928
1778 5 0.509431 0.632416 0.35081
1779 5 0.497492 0.71106 0.356728
1786 4 0.752544 0.866047 0.364879
1787 5 0.737621 0.855636 0.346639
1788 5 0.77408 0.907563 0.363855
1795 4 0.517453 0.45714 0.367707
1796 5 0.491446 0.478137 0.35472
1797 5 0.496021 0.429577 0.379823
1798 4 0.543866 0.308224 0.31488
1799 5 0.556759 0.356036 0.316058
1800 5 0.577158 0.28105 0.311745
1801 4 0.449469 0.156316 0.289012
1802 5 0.481128 0.180244 0.29508
1803 5 0.46126 0.11595 0.277047
1804 4 0.580206 0.0228922 0.275886
1805 5 0.579708 0.971318 0.275075
1806 5 0.56532 0.0355665 0.257403
1813 4 0.729827 0.654723 0.281734
1814 5 0.751222 0.628455 0.294603
1815 5 0.755951 0.678177 0.269507
1818 5 0.86968 0.106107 0.212546
1825 4 0.780044 0.731539 0.333837
1826 5 0.759207 0.689368 0.338205
1827 5 0.753027 0.763874 0.328785
1846 4 0.327679 0.296224 0.337749
1847 5 0.318906 0.344436 0.334518
1848 5 0.31411 0.292876 0.35687
1849 4 0.649584 0.26094 0.319517
1852 5 0.668636 0.243452 0.336036
1854 5 0.644284 0.220015 0.306031
1861 4 0.778607 0.468075 0.205172
1862 5 0.770658 0.423505 0.211501
1863 5 0.748158 0.491881 0.212111
1879 4 0.720801 0.598746 0.220179
1880 5 0.7311 0.602294 0.240021
1881 5 0.709175 0.64478 0.215649
1882 4 0.376294 0.795258 0.265887
1883 5 0.337732 0.800086 0.266741
1884 5 0.38499 0.779156 0.245728
1888 4 0.723145 0.831333 0.309179
1889 5 0.748772 0.855832 0.2986
1890 5 0.692139 0.856824 0.308718
1894 4 0.125418 0.344772 0.205858
1896 5 0.163963 0.345796 0.20707
1900 4 0.85821 0.317213 0.285922
1901 5 0.828625 0.348395 0.284798
1902 5 0.84063 0.274394 0.293243
1903 4 0.830272 0.352353 0.35032
1904 5 0.819063 0.306961 0.344164
1905 5 0.82195 0.383091 0.333541
1906 4 0.616593 0.706008 0.213606
1908 5 0.607127 0.754116 0.216479
1930 4 0.787766 0.494614 0.362126
1931 5 0.787071 0.50999 0.38134
1932 5 0.819998 0.469622 0.360175
1936 4 0.915532 0.959628 0.207868
1938 5 0.888742 0.995375 0.204044
1942 4 0.0333537 0.85411 0.353097
1943 5 0.0632809 0.869107 0.365856
1944 5 0.0117049 0.822887 0.363602
1948 4 0.173917 0.641881 0.396898
1949 5 0.213737 0.64794 0.39581
1951 4 0.52971 0.109475 0.373919
1952 5 0.527359 0.0923805 0.353769
1953 5 0.500046 0.0889181 0.38336
1966 4 0.574025 0.51407 0.28634
1967 5 0.594416 0.484939 0.29971
1968 5 0.575911 0.558983 0.295278
1975 4 0.434375 0.973445 0.335914
1976 5 0.433375 0.975679 0.357529
1977 5 0.419662 0.930127 0.33088
1978 4 0.954945 0.527877 0.299025
1979 5 0.981758 0.550638 0.287482
1980 5 0.957088 0.478145 0.294335
1981 4 0.55753 0.32077 0.388933
1982 5 0.536719 0.335125 0.372114
1987 4 0.679809 0.47323 0.363783
1988 5 0.681524 0.424907 0.368986
1989 5 0.714409 0.47693 0.354655
1996 4 0.0611671 0.414868 0.23917
1997 5 0.0818363 0.386666 0.225226
1998 5 0.0383163 0.447521 0.22919
2011 4 0.535802 0.15185 0.236246
2012 5 0.501807 0.172406 0.231065
2013 5 0.539627 0.108695 0.225837
2014 4 0.210317 0.913163 0.385031
2016 5 0.23763 0.898079 0.372498
2017 4 0.270898 0.151403 0.340781
2018 5 0.25816 0.132058 0.359232
2019 5 0.236568 0.162833 0.331676
2035 4 0.756617 0.116586 0.374025
2036 5 0.719781 0.0975569 0.370849
2037 5 0.766078 0.0971693 0.392797
2042 5 0.0309429 0.00203803 0.202009
2053 4 0.486728 0.315074 0.265951
2054 5 0.485533 0.364978 0.269672
2055 5 0.522005 0.303659 0.273183
2056 4 0.943844 0.395665 0.292926
2057 5 0.912554 0.366621 0.296338
2058 5 0.950956 0.384896 0.273286
2059 4 0.662473 0.598202 0.370653
2060 5 0.659818 0.546956 0.366343
2061 5 0.670074 0.597882 0.391606
2071 4 0.446668 0.0710453 0.203093
2072 5 0.439278 0.0842453 0.22206
2073 5 0.477399 0.0403247 0.205102
2077 4 0.947071 0.0668357 0.289097
2078 5 0.97236 0.105639 0.287806
2079 5 0.966299 0.039549 0.303541
2084 4 0.0678204 0.205188 0.231053
2085 5 0.0859487 0.197214 0.211998
2087 5 0.0421709 0.240185 0.224886
2094 5 0.382896 0.435872 0.211785
2095 4 0.482002 0.942538 0.2163
2096 5 0.509855 0.911196 0.212791
2097 5 0.463019 0.927968 0.233996
2098 4 0.0992643 0.229577 0.281835
2099 5 0.0977837 0.277828 0.288888
2100 5 0.098475 0.236756 0.260837
2107 4 0.63956 0.344508 0.256919
2108 5 0.669716 0.35988 0.244191
2109 5 0.643169 0.295625 0.258172
2113 4 0.0012417 0.484924 0.207205
2114 5 0.978798 0.512491 0.218354
2119 4 0.787701 0.0455751 0.255246
2120 5 0.774025 0.0770201 0.241142
2121 5 0.812561 0.0702449 0.26734
2125 4 0.570348 0.891403 0.289789
2126 5 0.589773 0.868882 0.305358
2127 5 0.559605 0.857179 0.275804
2128 4 0.363643 0.0619962 0.312534
2129 5 0.341044 0.0247755 0.306579
2130 5 0.393227 0.0391154 0.321448
2131 4 0.00922131 0.702502 0.224002
2132 5 0.0292318 0.675139 0.238242
2133 5 0.972995 0.704331 0.232078
2137 4 0.251887 0.381796 0.25644
2138 5 0.253235 0.363655 0.236955
2139 5 0.228354 0.421106 0.25195
2153 5 0.289167 0.511032 0.389426
2155 4 0.907991 0.706433 0.238405
2156 5 0.884425 0.717063 0.25467
2157 5 0.898667 0.739071 0.22433
2160 5 0.0121729 0.630382 0.390759
2161 4 0.859726 0.391083 0.201863
2163 5 0.840677 0.433457 0.203716
2164 4 0.901014 0.36031 0.390682
2165 5 0.870553 0.349603 0.377821
2166 5 0.914856 0.396595 0.377324
2176 4 0.230537 0.342879 0.202917
2179 4 0.103249 0.598481 0.231667
2180 5 0.132105 0.631833 0.229144
2181 5 0.0812557 0.603707 0.214935
2185 4 0.176712 0.463692 0.248273
2186 5 0.164951 0.469153 0.269231
2187 5 0.144266 0.45593 0.237884
2191 4 0.558226 0.652724 0.257221
2192 5 0.528142 0.633616 0.245705
2193 5 0.583497 0.660952 0.241812
2200 4 0.0461763 0.0820876 0.2457
2201 5 0.0588819 0.129972 0.239936
2202 5 0.0685643 0.0722678 0.262462
2206 4 0.797237 0.717481 0.248351
2207 5 0.78537 0.746839 0.233278
2208 5 0.815052 0.747157 0.262641
2209 4 0.452864 0.902056 0.269095
2210 5 0.477584 0.887024 0.283373
2211 5 0.432241 0.861055 0.263238
2221 4 0.71742 0.360981 0.225412
2222 5 0.699146 0.349227 0.207324
2223 5 0.731329 0.316061 0.23084
2233 4 0.305782 0.522992 0.281776
2234 5 0.275999 0.538774 0.269828
2235 5 0.31013 0.558904 0.295852
2242 4 0.0802557 0.702125 0.31348
2243 5 0.0949477 0.748065 0.311913
2244 5 0.0422118 0.712425 0.310213
2260 4 0.626555 0.723953 0.372769
2261 5 0.637646 0.680318 0.365898
2262 5 0.602677 0.716173 0.388455
2269 4 0.0389324 0.555453 0.270364
2270 5 0.0527424 0.513546 0.280162
2271 5 0.0672588 0.574195 0.258101
2284 4 0.428616 0.371827 0.374014
2285 5 0.393008 0.389153 0.378442
2286 5 0.446515 0.376464 0.392211
2293 4 0.163349 0.170758 0.324429
2294 5 0.166832 0.209959 0.337381
2295 5 0.144581 0.188514 0.308565
2320 4 0.932615 0.134683 0.22428
2321 5 0.927301 0.17495 0.238142
2322 5 0.959351 0.106211 0.232379
2326 4 0.920395 0.225244 0.389594
2327 5 0.92501 0.276074 0.393599
2328 5 0.950773 0.218857 0.377301
2332 4 0.107167 0.35876 0.298302
2333 5 0.0816555 0.37631 0.313632
2334 5 0.117545 0.398648 0.286943
2335 4 0.912856 0.571917 0.378166
2336 5 0.940455 0.56958 0.393062
2337 5 0.885453 0.602258 0.388292
2347 4 0.332159 0.38472 0.389438
2348 5 0.313376 0.419315 0.399484
2349 5 0.303661 0.352735 0.391433
2350 4 0.895943 0.611956 0.325795
2351 5 0.910096 0.574433 0.314835
2352 5 0.902669 0.602327 0.344964
2356 4 0.60022 0.439057 0.334526
2357 5 0.5702 0.452836 0.346152
2358 5 0.63067 0.432307 0.34761
2365 4 0.709023 0.879258 0.235815
2366 5 0.670831 0.877085 0.233607
2367 5 0.721215 0.853662 0.219419
2368 4 0.560369 0.0329357 0.222148
2369 5 0.592665 0.0365608 0.209828
2370 5 0.548938 0.984328 0.222782
2374 4 0.946399 0.365669 0.234772
2375 5 0.912952 0.383494 0.227652
2376 5 0.972872 0.388137 0.222894
2383 4 0.856801 0.118472 0.298448
2384 5 0.854003 0.12918 0.319311
2385 5 0.889181 0.0882611 0.297134
2398 4 0.355332 0.774662 0.362159
2399 5 0.365756 0.741335 0.347516
2400 5 0.37149 0.760052 0.380244
2404 4 0.761011 0.244391 0.246207
2405 5 0.765282 0.238648 0.266858
2406 5 0.796254 0.247357 0.238462
2413 4 0.53703 0.790893 0.254327