ITEM: TIMESTEP
2
ITEM: NUMBER OF ATOMS
10
ITEM: BOX BOUNDS pp pp pp
0.0000000000000000e+00 5.7209004999999999e+00
0.0000000000000000e+00 5.7209004999999999e+00
0.0000000000000000e+00 3.5556619999999999e+00
ITEM: ATOMS id type fx fy fz
1 1 -0.00145405 -0.0014157 -0.00437929
5 2 0.0484153 -0.0319671 0.000741695
10 2 -0.0551658 0.0330298 0.00107644
3 2 0.033659 0.0539066 0.0017504
8 2 -0.0329891 -0.0484647 0.00266786
4 2 -0.03122 -0.0532983 0.00250335
7 2 0.034752 0.0504247 -0.00242198
2 1 0.00333417 -0.00505301 -0.000618701
6 2 -0.0492679 0.0349087 0.00163536
9 2 0.0499364 -0.0320709 -0.00295513
