ITEM: TIMESTEP
1
ITEM: NUMBER OF ATOMS
10
ITEM: BOX BOUNDS pp pp pp
0.0000000000000000e+00 5.7209004999999999e+00
0.0000000000000000e+00 5.7209004999999999e+00
0.0000000000000000e+00 3.5556619999999999e+00
ITEM: ATOMS id type fx fy fz
1 1 -0.000729125 -0.000714994 -0.00220841
5 2 0.0496682 -0.0324377 0.00038266
10 2 -0.0530431 0.0329728 0.000550495
3 2 0.0332856 0.052411 0.000870549
8 2 -0.032953 -0.0497086 0.00132549
4 2 -0.0320752 -0.0521202 0.00124439
7 2 0.0338522 0.050681 -0.00121784
2 1 0.00165517 -0.00250976 -0.000302692
6 2 -0.050105 0.0339082 0.000826425
9 2 0.0504443 -0.0324816 -0.00147106
