ITEM: TIMESTEP
100
ITEM: NUMBER OF ATOMS
2
ITEM: BOX BOUNDS pp pp pp
0.0000000000000000e+00 3.1802999999999999e+00
0.0000000000000000e+00 3.1802999999999999e+00
0.0000000000000000e+00 3.1802999999999999e+00
ITEM: ATOMS id type fx fy fz c_eatom 
1 1 -0.373431 0.0494017 -1.17879 -1.14648 
2 1 0.373431 -0.0494017 1.17879 -1.14648 
