ITEM: TIMESTEP
0
ITEM: NUMBER OF ATOMS
2
ITEM: BOX BOUNDS pp pp pp
0.0000000000000000e+00 3.1802999999999999e+00
0.0000000000000000e+00 3.1802999999999999e+00
0.0000000000000000e+00 3.1802999999999999e+00
ITEM: ATOMS id type fx fy fz c_eatom 
1 1 -0.00995108 -0.61461 0.688381 -1.15754 
2 1 0.00995108 0.61461 -0.688381 -1.15754 
