ITEM: TIMESTEP
3
ITEM: NUMBER OF ATOMS
10
ITEM: BOX BOUNDS pp pp pp
0.0000000000000000e+00 5.7209004999999999e+00
0.0000000000000000e+00 5.7209004999999999e+00
0.0000000000000000e+00 3.5556619999999999e+00
ITEM: ATOMS id type fx fy fz
1 1 -0.00217493 -0.0021024 -0.00651463
5 2 0.0471778 -0.0314961 0.00107734
10 2 -0.0573094 0.0330784 0.00157862
3 2 0.0340287 0.0554264 0.0026393
8 2 -0.0330162 -0.0472058 0.00402941
4 2 -0.030341 -0.0544744 0.00377712
7 2 0.03561 0.0501692 -0.00361334
2 1 0.00503727 -0.00762942 -0.000948075
6 2 -0.048426 0.0359101 0.00242874
9 2 0.0494137 -0.031676 -0.00445449
