ITEM: TIMESTEP
0
ITEM: NUMBER OF ATOMS
10
ITEM: BOX BOUNDS pp pp pp
0.0000000000000000e+00 5.7209004999999999e+00
0.0000000000000000e+00 5.7209004999999999e+00
0.0000000000000000e+00 3.5556619999999999e+00
ITEM: ATOMS id type fx fy fz
1 1 1.72085e-15 3.09128e-15 9.31869e-17
5 2 0.050938 -0.032908 -1.25321e-16
10 2 -0.050938 0.032908 9.15529e-17
3 2 0.032908 0.050938 -1.38233e-16
8 2 -0.032908 -0.050938 -1.22814e-17
4 2 -0.032908 -0.050938 9.26486e-17
7 2 0.032908 0.050938 -3.02615e-17
2 1 -4.44089e-16 -3.19189e-16 -6.33482e-17
6 2 -0.050938 0.032908 -3.00332e-17
9 2 0.050938 -0.032908 3.78648e-17
