LAMMPS data file from msi2lmp v3.8 for benzene-class1

     12 atoms
     12 bonds
     18 angles
     24 dihedrals
      6 impropers

   2 atom types
   2 bond types
   2 angle types
   3 dihedral types
   1 improper types

    -0.014180000     9.985820000 xlo xhi
    -0.000000000    10.000000000 ylo yhi
   -10.000000000     0.000000000 zlo zhi

Masses

   1   1.007970
   2  12.011150

Pair Coeffs

   1   0.0380000011   2.4499714540 
   2   0.1479999981   3.6170487995 

Bond Coeffs

  1   363.4164     1.0800 
  2   480.0000     1.3400 

Angle Coeffs

  1    37.0000   120.0000 
  2    90.0000   120.0000 

Dihedral Coeffs

  1     3.0000         -1          2 
  2     3.0000         -1          2 
  3     3.0000         -1          2 

Improper Coeffs

    1     0.3700  -1   2

Atoms

      1      1   1  0.102000     2.500000000     5.000000000    -5.000000000
      2      1   2 -0.102000     3.594720000     5.000000000    -5.000000000
      3      1   2 -0.102000     4.290270000     6.204730000    -5.000000000
      4      1   2 -0.102000     5.681370000     6.204730000    -5.000000000
      5      1   2 -0.102000     6.376920000     5.000000000    -5.000000000
      6      1   2 -0.102000     5.681370000     3.795270000    -5.000000000
      7      1   2 -0.102000     4.290270000     3.795270000    -5.000000000
      8      1   1  0.102000     7.471640000     5.000000000    -5.000000000
      9      1   1  0.102000     3.742910000     7.152785000    -5.000000000
     10      1   1  0.102000     6.228730000     7.152785000    -5.000000000
     11      1   1  0.102000     6.228730000     2.847215000    -5.000000000
     12      1   1  0.102000     3.742910000     2.847215000    -5.000000000

Bonds

     1   1      1      2
     2   2      2      3
     3   2      2      7
     4   2      3      4
     5   1      9      3
     6   2      4      5
     7   1     10      4
     8   1      8      5
     9   2      5      6
    10   2      6      7
    11   1     11      6
    12   1     12      7

Angles

     1   1      1      2      3
     2   1      1      2      7
     3   2      3      2      7
     4   2      2      3      4
     5   1      9      3      2
     6   1      9      3      4
     7   2      3      4      5
     8   1     10      4      3
     9   1     10      4      5
    10   1      8      5      4
    11   2      4      5      6
    12   1      8      5      6
    13   2      5      6      7
    14   1     11      6      5
    15   1     11      6      7
    16   2      2      7      6
    17   1     12      7      2
    18   1     12      7      6

Dihedrals

     1   1      1      2      3      4
     2   2      1      2      3      9
     3   3      7      2      3      4
     4   1      9      3      2      7
     5   1      1      2      7      6
     6   2      1      2      7     12
     7   3      3      2      7      6
     8   1     12      7      2      3
     9   3      2      3      4      5
    10   1     10      4      3      2
    11   1      9      3      4      5
    12   2      9      3      4     10
    13   1      8      5      4      3
    14   3      3      4      5      6
    15   2     10      4      5      8
    16   1     10      4      5      6
    17   3      4      5      6      7
    18   1     11      6      5      4
    19   1      8      5      6      7
    20   2      8      5      6     11
    21   3      5      6      7      2
    22   1     12      7      6      5
    23   1     11      6      7      2
    24   2     11      6      7     12

Impropers

     1   1      1      2      3      7 
     2   1      9      3      4      2 
     3   1     10      4      5      3 
     4   1      8      5      4      6 
     5   1     11      6      7      5 
     6   1     12      7      6      2 

