LAMMPS data file via write_data, version 24 Oct 2015-ICMS, timestep = 16

604 atoms
1 atom types
906 bonds
1 bond types
1812 angles
1 angle types
3624 dihedrals
1 dihedral types
604 impropers
1 improper types

-3.2533135409999998e+00 9.7599864590000003e+00 xlo xhi
1.9848000000000000e-05 1.1269868235000001e+01 ylo yhi
2.1981185000000000e-02 5.2620381184999999e+01 zlo zhi
-6.5066499999999996e+00 0.0000000000000000e+00 0.0000000000000000e+00 xy xz yz

Masses

1 12.0112

Pair Coeffs # lj/class2/coul/cut

1 0.068 3.915

Bond Coeffs # class2

1 1.417 470.836 -627.618 1327.63

Angle Coeffs # class2

1 118.9 61.0226 -34.9931 0

BondBond Coeffs

1 68.2856 1.417 1.417

BondAngle Coeffs

1 28.8708 28.8708 1.417 1.417

Dihedral Coeffs # class2

1 8.3667 0 1.2 0 0 0

AngleAngleTorsion Coeffs

1 0 118.9 118.9

EndBondTorsion Coeffs

1 -0.1185 6.3204 0 -0.1185 6.3204 0 1.417 1.417

MiddleBondTorsion Coeffs

1 27.5989 -2.312 0 1.417

BondBond13 Coeffs

1 0 1.417 1.417

AngleTorsion Coeffs

1 1.9767 1.0239 0 1.9767 1.0239 0 118.9 118.9

Improper Coeffs # class2

1 7.1794 0

AngleAngle Coeffs

1 0 0 0 118.9 118.9 118.9

Atoms # full

1 1 1 0.0000000000000000e+00 -5.8325467014057333e+00 8.1761103525427004e+00 1.1225819084775017e+00 1 0 0
2 1 1 0.0000000000000000e+00 -6.3630256107813512e+00 8.8503640864018056e+00 2.2305651533544784e+00 1 0 0
3 1 1 0.0000000000000000e+00 -7.8639778893210872e+00 9.9094167711565451e+00 6.6306400435010759e-01 1 0 0
4 1 1 0.0000000000000000e+00 -7.4446276116435230e+00 9.6979561972412291e+00 1.9933436019936404e+00 1 0 0
5 1 1 0.0000000000000000e+00 -8.2253157018810228e+00 1.0053279810627224e+01 3.1013828495308209e+00 1 0 0
6 1 1 0.0000000000000000e+00 -6.0574583647427822e+00 8.4939517318509594e+00 3.5609031271732818e+00 1 0 0
7 1 1 0.0000000000000000e+00 -6.6419151032617112e+00 9.1220722019207017e+00 4.6688834418558240e+00 1 0 0
8 1 1 0.0000000000000000e+00 -6.3079781871240570e+00 8.7920733831294768e+00 5.9992303967230765e+00 1 0 0
9 1 1 0.0000000000000000e+00 -6.9426395211740193e+00 9.3692934678121009e+00 7.1072595180179592e+00 1 0 0
10 1 1 0.0000000000000000e+00 -5.7219229627580557e+00 7.9964695019558079e+00 8.6747322665594453e+00 1 0 0
11 1 1 0.0000000000000000e+00 -5.9321617555807151e+00 8.3236558134399594e+00 1.1113110415898467e+01 1 0 0
12 1 1 0.0000000000000000e+00 3.8253691803316858e+00 1.0277418525648441e+01 4.2584802087692103e-01 0 0 0
13 1 1 0.0000000000000000e+00 2.9680296351287980e+00 1.0304067564676881e+01 1.5339187848177740e+00 0 0 0
14 1 1 0.0000000000000000e+00 3.4377857646060912e+00 1.0309178799952003e+01 2.8642215580604895e+00 0 0 0
15 1 1 0.0000000000000000e+00 2.5812109381377777e+00 1.0263885310077567e+01 3.9722867892938778e+00 0 0 0
16 1 1 0.0000000000000000e+00 -7.7898634938545310e+00 9.8774400945437080e+00 4.4316929156677727e+00 1 0 0
17 1 1 0.0000000000000000e+00 -8.5976410961161598e+00 1.0166202583225676e+01 5.5397325453021145e+00 1 0 0
18 1 1 0.0000000000000000e+00 -8.1492693457556911e+00 1.0026881344374591e+01 6.8700718227674757e+00 1 0 0
19 1 1 0.0000000000000000e+00 -8.9784684194212989e+00 1.0247138241955934e+01 7.9780731518320698e+00 1 0 0
20 1 1 0.0000000000000000e+00 -6.5825907673319133e+00 9.0678462805894195e+00 8.4375862565261510e+00 1 0 0
21 1 1 0.0000000000000000e+00 -7.2633194808635553e+00 9.5897482090258084e+00 9.5456306519968237e+00 1 0 0
22 1 1 0.0000000000000000e+00 -6.8795099018276389e+00 9.3190935564449724e+00 1.0875916001638277e+01 1 0 0
23 1 1 0.0000000000000000e+00 -7.6011729792389202e+00 9.7826809910750328e+00 1.1983937265657074e+01 1 0 0
24 1 1 0.0000000000000000e+00 -6.1690568550208686e+00 8.6321578328221502e+00 1.3551451010732624e+01 1 0 0
25 1 1 0.0000000000000000e+00 -5.8862865520307501e+00 8.2572792955867591e+00 1.4881763863376408e+01 1 0 0
26 1 1 0.0000000000000000e+00 -6.4306242142254764e+00 8.9204327635659428e+00 1.5989738130847174e+01 1 0 0
27 1 1 0.0000000000000000e+00 -5.1008388945420702e-01 8.4132282711557469e+00 8.3722165787363423e-01 0 0 0
28 1 1 0.0000000000000000e+00 1.6237514621829163e+00 1.0018819668733354e+01 1.2967456559976893e+00 0 0 0
29 1 1 0.0000000000000000e+00 8.5091133234036942e-01 9.6467511320607073e+00 2.4047747581592320e+00 0 0 0
30 1 1 0.0000000000000000e+00 1.2655468254016489e+00 9.8673110364593288e+00 3.7350571363586944e+00 0 0 0
31 1 1 0.0000000000000000e+00 5.2583606901707025e-01 9.4330993940403260e+00 4.8430738511150224e+00 0 0 0
32 1 1 0.0000000000000000e+00 3.0487397623726418e+00 1.0308306098319541e+01 5.3025897247406926e+00 0 0 0
33 1 1 0.0000000000000000e+00 2.1987655486508340e+00 1.0191892526303858e+01 6.4105735487794826e+00 0 0 0
34 1 1 0.0000000000000000e+00 2.6608046819437492e+00 1.0275123923702987e+01 7.7409050547666771e+00 0 0 0
35 1 1 0.0000000000000000e+00 1.8232983300647785e+00 1.0088811402505636e+01 8.8488842723257353e+00 0 0 0
36 1 1 0.0000000000000000e+00 -8.5202077274095593e+00 1.0145223081607423e+01 9.3084222020850600e+00 1 0 0
37 1 1 0.0000000000000000e+00 3.6484883323378661e+00 1.0296045598733857e+01 1.0416391281952588e+01 0 0 0
38 1 1 0.0000000000000000e+00 -8.8995932810793441e+00 1.0232487208086255e+01 1.1746704709258811e+01 1 0 0
39 1 1 0.0000000000000000e+00 3.2596432278963654e+00 1.0312816332204623e+01 1.2854731534128536e+01 0 0 0
40 1 1 0.0000000000000000e+00 -7.1960112505683167e+00 9.5451671557497377e+00 1.3314217102893247e+01 1 0 0
41 1 1 0.0000000000000000e+00 -7.9531849702753163e+00 9.9481537977777119e+00 1.4422239124574535e+01 1 0 0
42 1 1 0.0000000000000000e+00 -7.5295037972717216e+00 9.7455190132408660e+00 1.5752525280853053e+01 1 0 0
43 1 1 0.0000000000000000e+00 -8.3174491313518200e+00 1.0084481609296668e+01 1.6860566461347300e+01 1 0 0
44 1 1 0.0000000000000000e+00 -6.1177498793212468e+00 8.5704319871122951e+00 1.7320080630251894e+01 1 0 0
45 1 1 0.0000000000000000e+00 -6.7151109461816034e+00 9.1862786420089133e+00 1.8428072041068429e+01 1 0 0
46 1 1 0.0000000000000000e+00 -6.3744334509678424e+00 8.8632133057091966e+00 1.9758419770466983e+01 1 0 0
47 1 1 0.0000000000000000e+00 -7.0210319008382696e+00 9.4269756175517045e+00 2.0866459399841080e+01 1 0 0
48 1 1 0.0000000000000000e+00 -5.7719005910691958e+00 8.0799205033356127e+00 2.2433927357261048e+01 1 0 0
49 1 1 0.0000000000000000e+00 -5.9889580880702358e+00 8.4025912253679707e+00 2.4872307875934474e+01 1 0 0
50 1 1 0.0000000000000000e+00 -1.1551562722819657e+00 7.1997197340494781e+00 6.0005799997606346e-01 0 0 0
51 1 1 0.0000000000000000e+00 -1.3668120076463204e+00 6.3682986217682984e+00 1.7080663520175265e+00 0 0 0
52 1 1 0.0000000000000000e+00 -2.1225780431803720e-01 8.7761669628749246e+00 2.1675458877960820e+00 0 0 0
53 1 1 0.0000000000000000e+00 -7.2807748081956714e-01 8.0906821974375323e+00 3.2755499612852770e+00 0 0 0
54 1 1 0.0000000000000000e+00 -4.6150880295487884e-01 8.4773726994603873e+00 4.6058544108528583e+00 0 0 0
55 1 1 0.0000000000000000e+00 -9.1834489101634276e-01 7.7513871774537106e+00 5.7139208807645030e+00 0 0 0
56 1 1 0.0000000000000000e+00 9.2043369682934184e-01 9.6877822138806096e+00 6.1733507955775639e+00 0 0 0
57 1 1 0.0000000000000000e+00 2.1893202084914787e-01 9.1942017068703983e+00 7.2813847056883807e+00 0 0 0
58 1 1 0.0000000000000000e+00 5.9092905293652542e-01 9.4808386653663277e+00 8.6116912143615814e+00 0 0 0
59 1 1 0.0000000000000000e+00 -6.6895765952703634e-02 8.9302641951117447e+00 9.7197344971666304e+00 0 0 0
60 1 1 0.0000000000000000e+00 2.2768895690399766e+00 1.0209896443177451e+01 1.0179235724926148e+01 0 0 0
61 1 1 0.0000000000000000e+00 1.4578610839950743e+00 9.9545806529320124e+00 1.1287260564482999e+01 0 0 0
62 1 1 0.0000000000000000e+00 1.9000359168609675e+00 1.0112629198844507e+01 1.2617586723997874e+01 0 0 0
63 1 1 0.0000000000000000e+00 1.1054078935088762e+00 9.7895934788353625e+00 1.3725632993838595e+01 0 0 0
64 1 1 0.0000000000000000e+00 3.7287394156085449e+00 1.0288404881457648e+01 1.4185034312196812e+01 0 0 0
65 1 1 0.0000000000000000e+00 2.8710403923624730e+00 1.0297060730531275e+01 1.5293114972852052e+01 0 0 0
66 1 1 0.0000000000000000e+00 3.3405673342834143e+00 1.0312012255583106e+01 1.6623415884541153e+01 0 0 0
67 1 1 0.0000000000000000e+00 2.4850974319537800e+00 1.0248823884686230e+01 1.7731460330458916e+01 0 0 0
68 1 1 0.0000000000000000e+00 -7.8784762229751815e+00 9.9176832941987723e+00 1.8190882628766129e+01 1 0 0
69 1 1 0.0000000000000000e+00 -8.6921638069014264e+00 1.0189438564399707e+01 1.9298918989721049e+01 1 0 0
70 1 1 0.0000000000000000e+00 -8.2410416580227341e+00 1.0059388492164796e+01 2.0629268678522429e+01 1 0 0
71 1 1 0.0000000000000000e+00 -9.0746583706393391e+00 1.0262364706259213e+01 2.1737256349014700e+01 1 0 0
72 1 1 0.0000000000000000e+00 -6.6548202933117091e+00 9.1330108437325741e+00 2.2196773050714910e+01 1 0 0
73 1 1 0.0000000000000000e+00 -7.3463014832653446e+00 9.6405503292485122e+00 2.3304813935764514e+01 1 0 0
74 1 1 0.0000000000000000e+00 -6.9569210430449262e+00 9.3779667519458201e+00 2.4635098716359373e+01 1 0 0
75 1 1 0.0000000000000000e+00 -7.6879448460552648e+00 9.8266479281382750e+00 2.5743118032312658e+01 1 0 0
76 1 1 0.0000000000000000e+00 -5.7302142573203385e+00 8.0105656399678793e+00 2.6202609656983839e+01 1 0 0
77 1 1 0.0000000000000000e+00 -6.2322172331170966e+00 8.7061897106285127e+00 2.7310630100991613e+01 1 0 0
78 1 1 0.0000000000000000e+00 -5.9417031426350286e+00 8.3373337343042540e+00 2.8640949400472003e+01 1 0 0
79 1 1 0.0000000000000000e+00 -6.4996525184119402e+00 8.9891035117678832e+00 2.9748919735643657e+01 1 0 0
80 1 1 0.0000000000000000e+00 -1.2927784732464835e+00 4.5328945684552497e+00 1.4055219379500150e-01 0 0 0
81 1 1 0.0000000000000000e+00 -1.3805290607768677e+00 4.9941851262847337e+00 1.4708792040746081e+00 0 0 0
82 1 1 0.0000000000000000e+00 -1.1856186497805958e+00 4.1587067594137785e+00 2.5789026737235448e+00 0 0 0
83 1 1 0.0000000000000000e+00 -1.2699418599537515e+00 6.8277335929543010e+00 3.0384080715276709e+00 0 0 0
84 1 1 0.0000000000000000e+00 -1.4112357667620157e+00 5.9816350867487325e+00 4.1464562621598402e+00 0 0 0
85 1 1 0.0000000000000000e+00 -1.3525824261314678e+00 6.4475841640885010e+00 5.4767526733828982e+00 0 0 0
86 1 1 0.0000000000000000e+00 -1.4226893837831702e+00 5.5927124624690601e+00 6.5847796126285605e+00 0 0 0
87 1 1 0.0000000000000000e+00 -6.8503725142903704e-01 8.1591472005963190e+00 7.0442191698630356e+00 0 0 0
88 1 1 0.0000000000000000e+00 -1.0794213285569594e+00 7.3974263151388051e+00 8.1522871738566298e+00 0 0 0
89 1 1 0.0000000000000000e+00 -8.8114076397423879e-01 7.8231683359777939e+00 9.4825915520424076e+00 0 0 0
90 1 1 0.0000000000000000e+00 -1.2107863653697502e+00 7.0311320006588875e+00 1.0590584080091801e+01 0 0 0
91 1 1 0.0000000000000000e+00 2.8013232326974613e-01 9.2465353496464111e+00 1.1050072633738138e+01 0 0 0
92 1 1 0.0000000000000000e+00 -3.2941750667018788e-01 8.6427774049859583e+00 1.2158077018826322e+01 0 0 0
93 1 1 0.0000000000000000e+00 -9.6533569772967454e-03 8.9864928533985164e+00 1.3488427586616741e+01 0 0 0
94 1 1 0.0000000000000000e+00 -5.6708416038264620e-01 8.3342801175926891e+00 1.4596399042072893e+01 0 0 0
95 1 1 0.0000000000000000e+00 1.5330614811657375e+00 9.9836896572663729e+00 1.5055925107110838e+01 0 0 0
96 1 1 0.0000000000000000e+00 7.6807245572763261e-01 9.5957435189589031e+00 1.6163950084381820e+01 0 0 0
97 1 1 0.0000000000000000e+00 1.1779687505685867e+00 9.8249908171361628e+00 1.7494227840003575e+01 0 0 0
98 1 1 0.0000000000000000e+00 4.4729806973101205e-01 9.3757343026578948e+00 1.8602246148817954e+01 0 0 0
99 1 1 0.0000000000000000e+00 2.9515421402628768e+00 1.0303021531188847e+01 1.9061769127959561e+01 0 0 0
100 1 1 0.0000000000000000e+00 2.1041306149038910e+00 1.0169030712514088e+01 2.0169746395825822e+01 0 0 0
101 1 1 0.0000000000000000e+00 2.5643303770314736e+00 1.0261816655874206e+01 2.1500087729432291e+01 0 0 0
102 1 1 0.0000000000000000e+00 1.7308763771847282e+00 1.0058175670758486e+01 2.2608075951905821e+01 0 0 0
103 1 1 0.0000000000000000e+00 -8.6143846014715102e+00 1.0169944569775435e+01 2.3067597545442382e+01 1 0 0
104 1 1 0.0000000000000000e+00 3.5513988459898620e+00 1.0303261572112756e+01 2.4175575723379300e+01 0 0 0
105 1 1 0.0000000000000000e+00 -8.9954114005128218e+00 1.0249438727243675e+01 2.5505885335779631e+01 1 0 0
106 1 1 0.0000000000000000e+00 3.1623699557771348e+00 1.0311940662402669e+01 2.6613931827312729e+01 0 0 0
107 1 1 0.0000000000000000e+00 -7.2778633905433416e+00 9.5977327209954630e+00 2.7073397070197171e+01 1 0 0
108 1 1 0.0000000000000000e+00 -8.0431588997877910e+00 9.9850729756132477e+00 2.8181422934781338e+01 1 0 0
109 1 1 0.0000000000000000e+00 -7.6153505636777066e+00 9.7913183692323411e+00 2.9511714728619452e+01 1 0 0
110 1 1 0.0000000000000000e+00 -8.4102396478538548e+00 1.0113714364555870e+01 3.0619760249902267e+01 1 0 0
111 1 1 0.0000000000000000e+00 -6.1796160537456055e+00 8.6456415914614304e+00 3.1079268967065943e+01 1 0 0
112 1 1 0.0000000000000000e+00 -6.7896477027990905e+00 9.2489105096673345e+00 3.2187275366904743e+01 1 0 0
113 1 1 0.0000000000000000e+00 -6.4423693956120731e+00 8.9329138915404815e+00 3.3517617076866294e+01 1 0 0
114 1 1 0.0000000000000000e+00 -7.1006377968748886e+00 9.4829562106520839e+00 3.4625660993539491e+01 1 0 0
115 1 1 0.0000000000000000e+00 -5.8236101959834503e+00 8.1622909967071156e+00 3.6193128911997398e+01 1 0 0
116 1 1 0.0000000000000000e+00 -6.0473938474485376e+00 8.4803352999403518e+00 3.8631500922738326e+01 1 0 0
117 1 1 0.0000000000000000e+00 -2.7441073024297502e-01 2.5636949558374988e+00 1.0114262319556582e+00 0 0 0
118 1 1 0.0000000000000000e+00 -5.6492534867185507e-01 2.9325511864884746e+00 2.3417438328129547e+00 0 0 0
119 1 1 0.0000000000000000e+00 -6.9770516266078886e-03 2.2807833053490474e+00 3.4497166129940067e+00 0 0 0
120 1 1 0.0000000000000000e+00 -1.3110177760988990e+00 4.6111182405671274e+00 3.9092590642184386e+00 0 0 0
121 1 1 0.0000000000000000e+00 -1.0473191999754192e+00 3.7946656599317468e+00 5.0172310548345411e+00 0 0 0
122 1 1 0.0000000000000000e+00 -1.2096679023562720e+00 4.2351881858203120e+00 6.3475547184071681e+00 0 0 0
123 1 1 0.0000000000000000e+00 -8.7939281597336771e-01 3.4434172171442814e+00 7.4555502238848206e+00 0 0 0
124 1 1 0.0000000000000000e+00 -1.4030917572497468e+00 6.0619516465210923e+00 7.9150609590953716e+00 0 0 0
125 1 1 0.0000000000000000e+00 -1.4027543798982225e+00 5.2042149384511793e+00 9.0230801179323503e+00 0 0 0
126 1 1 0.0000000000000000e+00 -1.4227308889021621e+00 5.6734386205259373e+00 1.0353359032427957e+01 0 0 0
127 1 1 0.0000000000000000e+00 -1.3519429567025276e+00 4.8186232845703580e+00 1.1461389297982413e+01 0 0 0
128 1 1 0.0000000000000000e+00 -1.0487899862464909e+00 7.4717815506254928e+00 1.1920911923737000e+01 0 0 0
129 1 1 0.0000000000000000e+00 -1.3118379191562766e+00 6.6551199265944794e+00 1.3028886524896931e+01 0 0 0
130 1 1 0.0000000000000000e+00 -1.1867962868677404e+00 7.1076305509221340e+00 1.4359240070949722e+01 0 0 0
131 1 1 0.0000000000000000e+00 -1.3810349576714600e+00 6.2719988351236386e+00 1.5467264405019540e+01 0 0 0
132 1 1 0.0000000000000000e+00 -2.7686446570401468e-01 8.7033699609627320e+00 1.5926717483752793e+01 0 0 0
133 1 1 0.0000000000000000e+00 -7.7831067892726313e-01 8.0073455809817631e+00 1.7034737174625842e+01 0 0 0
134 1 1 0.0000000000000000e+00 -5.1988138299038322e-01 8.3995810377598250e+00 1.8365037658972479e+01 0 0 0
135 1 1 0.0000000000000000e+00 -9.6138401972892851e-01 7.6641887082860167e+00 1.9473115821332954e+01 0 0 0
136 1 1 0.0000000000000000e+00 8.3646746664309113e-01 9.6386306922271476e+00 1.9932530430499828e+01 0 0 0
137 1 1 0.0000000000000000e+00 1.4539317999071333e-01 9.1305362322380716e+00 2.1040571229369629e+01 0 0 0
138 1 1 0.0000000000000000e+00 5.1137074227988588e-01 9.4247910034335174e+00 2.2370885299163344e+01 0 0 0
139 1 1 0.0000000000000000e+00 -1.3477394476371174e-01 8.8605068872958093e+00 2.3478924964240434e+01 0 0 0
140 1 1 0.0000000000000000e+00 2.1818962680249037e+00 1.0188582822503117e+01 2.3938425855566926e+01 0 0 0
141 1 1 0.0000000000000000e+00 1.3684293166751500e+00 9.9161724006591161e+00 2.5046463377594307e+01 0 0 0
142 1 1 0.0000000000000000e+00 1.8072704450859929e+00 1.0083318838244468e+01 2.6376780518328808e+01 0 0 0
143 1 1 0.0000000000000000e+00 1.0195987700305436e+00 9.7437236470034332e+00 2.7484822923860150e+01 0 0 0
144 1 1 0.0000000000000000e+00 3.6319094416468207e+00 1.0297366774839849e+01 2.7944233605597653e+01 0 0 0
145 1 1 0.0000000000000000e+00 2.7742175509795075e+00 1.0288019002154945e+01 2.9052313771633987e+01 0 0 0
146 1 1 0.0000000000000000e+00 3.2432925408212396e+00 1.0312807990591317e+01 3.0382615491153398e+01 0 0 0
147 1 1 0.0000000000000000e+00 2.3892924737678625e+00 1.0231795787731027e+01 3.1490642294401464e+01 0 0 0
148 1 1 0.0000000000000000e+00 -7.9679414830374347e+00 9.9560169118056496e+00 3.1950087860823597e+01 1 0 0
149 1 1 0.0000000000000000e+00 -8.7871747873607227e+00 1.0210673653194156e+01 3.3058115223634402e+01 1 0 0
150 1 1 0.0000000000000000e+00 -8.3334887996691549e+00 1.0089947427033563e+01 3.4388466708074141e+01 1 0 0
151 1 1 0.0000000000000000e+00 -9.1711438610602301e+00 1.0275593210299176e+01 3.5496442317363929e+01 1 0 0
152 1 1 0.0000000000000000e+00 -6.7284120241253955e+00 9.1966143298086589e+00 3.5955963724071239e+01 1 0 0
153 1 1 0.0000000000000000e+00 -7.4303053262620660e+00 9.6896342557959034e+00 3.7063997872962290e+01 1 0 0
154 1 1 0.0000000000000000e+00 -7.0355037175238646e+00 9.4352707839512266e+00 3.8394279065444088e+01 1 0 0
155 1 1 0.0000000000000000e+00 -7.7755553876082049e+00 9.8689013194663566e+00 3.9502297420211484e+01 1 0 0
156 1 1 0.0000000000000000e+00 -5.7805146384409500e+00 8.0938607097961413e+00 3.9961805298133925e+01 1 0 0
157 1 1 0.0000000000000000e+00 -6.2968821371699732e+00 8.7789362120909598e+00 4.1069806170231203e+01 1 0 0
158 1 1 0.0000000000000000e+00 -5.9987672837295438e+00 8.4162371245747813e+00 4.2400130682659217e+01 1 0 0
159 1 1 0.0000000000000000e+00 -6.5700891412583893e+00 9.0563337209799215e+00 4.3508101372825529e+01 1 0 0
160 1 1 0.0000000000000000e+00 3.3443041554297137e+00 9.5794435277889023e-01 3.1472965479785875e-01 0 0 0
161 1 1 0.0000000000000000e+00 7.7123416918449283e-01 1.6721532836236239e+00 7.7419443623534046e-01 0 0 0
162 1 1 0.0000000000000000e+00 1.5365296658690388e+00 1.2848125081790212e+00 1.8822172303757623e+00 0 0 0
163 1 1 0.0000000000000000e+00 1.1087219311519725e+00 1.4785671029831100e+00 3.2125109470352937e+00 0 0 0
164 1 1 0.0000000000000000e+00 1.9036117695055061e+00 1.1561713547563413e+00 4.3205575528700049e+00 0 0 0
165 1 1 0.0000000000000000e+00 -3.2701379335275771e-01 2.6242463860322358e+00 4.7800650570126715e+00 0 0 0
166 1 1 0.0000000000000000e+00 2.8302038832309062e-01 2.0209749767407410e+00 5.8880665955801961e+00 0 0 0
167 1 1 0.0000000000000000e+00 -6.4258716870663424e-02 2.3369719362132315e+00 7.2184077937372768e+00 0 0 0
168 1 1 0.0000000000000000e+00 5.9400916950722182e-01 1.7869304877148884e+00 8.3264544379475396e+00 0 0 0
169 1 1 0.0000000000000000e+00 -1.0780154757832592e+00 3.8690005342996217e+00 8.7858560185552044e+00 0 0 0
170 1 1 0.0000000000000000e+00 -6.8301733010025734e-01 3.1075959065552028e+00 9.8939214457976465e+00 0 0 0
171 1 1 0.0000000000000000e+00 -9.1665315174409123e-01 3.5151677827327297e+00 1.1224220144296252e+01 0 0 0
172 1 1 0.0000000000000000e+00 -4.5923353719315818e-01 2.7895526922296132e+00 1.2332289705156528e+01 0 0 0
173 1 1 0.0000000000000000e+00 -1.4109659376910462e+00 5.2845245797215101e+00 1.2791689982334969e+01 0 0 0
174 1 1 0.0000000000000000e+00 -1.2689886135889297e+00 4.4385397315986470e+00 1.3899736692353258e+01 0 0 0
175 1 1 0.0000000000000000e+00 -1.3662221632520981e+00 4.8978966414312151e+00 1.5230077236796332e+01 0 0 0
176 1 1 0.0000000000000000e+00 -1.1539000386372624e+00 4.0666447121943579e+00 1.6338087016667529e+01 0 0 0
177 1 1 0.0000000000000000e+00 -1.2936491712106228e+00 6.7333585655768671e+00 1.6797593915713481e+01 0 0 0
178 1 1 0.0000000000000000e+00 -1.4171451513260322e+00 5.8845066259081253e+00 1.7905638483016993e+01 0 0 0
179 1 1 0.0000000000000000e+00 -1.3681716051145805e+00 6.3515830040897088e+00 1.9235931253071254e+01 0 0 0
180 1 1 0.0000000000000000e+00 -1.4205796222501683e+00 5.4954498792691995e+00 2.0343958387767763e+01 0 0 0
181 1 1 0.0000000000000000e+00 -7.3667837558020999e-01 8.0767345180292374e+00 2.0803417299484771e+01 0 0 0
182 1 1 0.0000000000000000e+00 -1.1150546486466197e+00 7.3069066878706748e+00 2.1911468814858036e+01 0 0 0
183 1 1 0.0000000000000000e+00 -9.2575889835077341e-01 7.7366628972298974e+00 2.3241776778170856e+01 0 0 0
184 1 1 0.0000000000000000e+00 -1.2389388255404707e+00 6.9379383468612863e+00 2.4349758201038348e+01 0 0 0
185 1 1 0.0000000000000000e+00 2.0564706511864017e-01 9.1838409076135150e+00 2.4809273612204638e+01 0 0 0
186 1 1 0.0000000000000000e+00 -3.9122225973209179e-01 8.5675172488833287e+00 2.5917265723117332e+01 0 0 0
187 1 1 0.0000000000000000e+00 -7.8625792140488038e-02 8.9177661654433802e+00 2.7247609297561148e+01 0 0 0
188 1 1 0.0000000000000000e+00 -6.2243506346188671e-01 8.2541812253121041e+00 2.8355584414433928e+01 0 0 0
189 1 1 0.0000000000000000e+00 1.4431171419615971e+00 9.9466979352925424e+00 2.8815109080082905e+01 0 0 0
190 1 1 0.0000000000000000e+00 6.8626128724396374e-01 9.5431148000240267e+00 2.9923129632078279e+01 0 0 0
191 1 1 0.0000000000000000e+00 1.0912303949300917e+00 9.7809569452138820e+00 3.1253408478375292e+01 0 0 0
192 1 1 0.0000000000000000e+00 3.6993438778765420e-01 9.3167999586544425e+00 3.2361432278900082e+01 0 0 0
193 1 1 0.0000000000000000e+00 2.8544573941233740e+00 1.0295726877191411e+01 3.2820958719244700e+01 0 0 0
194 1 1 0.0000000000000000e+00 2.0099746098639040e+00 1.0144233073493927e+01 3.3928929103977005e+01 0 0 0
195 1 1 0.0000000000000000e+00 2.4681539159858659e+00 1.0246511467008656e+01 3.5259275624479336e+01 0 0 0
196 1 1 0.0000000000000000e+00 1.6391303359228626e+00 1.0025591690383591e+01 3.6367275973549297e+01 0 0 0
197 1 1 0.0000000000000000e+00 -8.7090374927020626e+00 1.0192730725441173e+01 3.6826773957139594e+01 1 0 0
198 1 1 0.0000000000000000e+00 3.4541988988575909e+00 1.0308467773418572e+01 3.7934764419550859e+01 0 0 0
199 1 1 0.0000000000000000e+00 -9.0915363423667621e+00 1.0264422774960419e+01 3.9265070356980523e+01 1 0 0
200 1 1 0.0000000000000000e+00 3.0651531480086271e+00 1.0309027231262462e+01 4.0373134263543655e+01 0 0 0
201 1 1 0.0000000000000000e+00 -7.3607417667775410e+00 9.6486766262502730e+00 4.0832578753574047e+01 1 0 0
202 1 1 0.0000000000000000e+00 -8.1338774591461167e+00 1.0020130176607484e+01 4.1940608307470058e+01 1 0 0
203 1 1 0.0000000000000000e+00 -7.7021457097745465e+00 9.8353065644830764e+00 4.3270903071303565e+01 1 0 0
204 1 1 0.0000000000000000e+00 -8.5036492156310182e+00 1.0140958747740385e+01 4.4378948514015256e+01 1 0 0
205 1 1 0.0000000000000000e+00 -6.2430322571410670e+00 8.7195378956266314e+00 4.4838455102926069e+01 1 0 0
206 1 1 0.0000000000000000e+00 -6.8654990713704853e+00 9.3099271135502644e+00 4.5946474570263042e+01 1 0 0
207 1 1 0.0000000000000000e+00 -6.5117628190037262e+00 9.0011367769332473e+00 4.7276802890128280e+01 1 0 0
208 1 1 0.0000000000000000e+00 -7.1814160424002802e+00 9.5372188865626182e+00 4.8384845507486695e+01 1 0 0
209 1 1 0.0000000000000000e+00 -5.8770351905650546e+00 8.2435463644104132e+00 4.9952324268109393e+01 1 0 0
210 1 1 0.0000000000000000e+00 -6.1074373889838567e+00 8.5568661727270001e+00 5.2390680485064806e+01 1 0 0
211 1 1 0.0000000000000000e+00 4.6994032932450249e+00 1.1865665455670296e+00 7.7578901671464098e-02 0 0 0
212 1 1 0.0000000000000000e+00 5.4870764371714555e+00 1.5261623882193416e+00 1.1856172565831666e+00 0 0 0
213 1 1 0.0000000000000000e+00 2.8747621052316230e+00 9.7251808206869228e-01 1.6450286895706565e+00 0 0 0
214 1 1 0.0000000000000000e+00 3.7324553665867164e+00 9.8186569336135021e-01 2.7531105827778450e+00 0 0 0
215 1 1 0.0000000000000000e+00 3.2633802010503690e+00 9.5707705957181843e-01 4.0834151195186053e+00 0 0 0
216 1 1 0.0000000000000000e+00 4.1173818363613481e+00 1.0380902930844578e+00 5.1914375786086726e+00 0 0 0
217 1 1 0.0000000000000000e+00 1.4613133631669655e+00 1.3138694784901128e+00 5.6508807805759727e+00 0 0 0
218 1 1 0.0000000000000000e+00 2.2805483634851873e+00 1.0592118541352815e+00 6.7589043439410057e+00 0 0 0
219 1 1 0.0000000000000000e+00 1.8268613729524317e+00 1.1799385023402640e+00 8.0892580249298369e+00 0 0 0
220 1 1 0.0000000000000000e+00 2.6645157046461181e+00 9.9429355315015189e-01 9.1972355100603362e+00 0 0 0
221 1 1 0.0000000000000000e+00 2.2178363829536263e-01 2.0732732430916285e+00 9.6567566540691221e+00 0 0 0
222 1 1 0.0000000000000000e+00 9.2367818210158603e-01 1.5802531591483082e+00 1.0764787770798812e+01 0 0 0
223 1 1 0.0000000000000000e+00 5.2887654183313693e-01 1.8346170036995135e+00 1.2095067864574089e+01 0 0 0
224 1 1 0.0000000000000000e+00 1.2689283214893932e+00 1.4009866988626083e+00 1.3203086371559072e+01 0 0 0
225 1 1 0.0000000000000000e+00 -7.2611227560755509e-01 3.1760274625429514e+00 1.3662593825690648e+01 0 0 0
226 1 1 0.0000000000000000e+00 -2.0974461543642597e-01 2.4909520770983447e+00 1.4770595923744747e+01 0 0 0
227 1 1 0.0000000000000000e+00 -5.0785875961404336e-01 2.8536510867445082e+00 1.6100922815729476e+01 0 0 0
228 1 1 0.0000000000000000e+00 6.3462669480347955e-02 2.2135563579454498e+00 1.7208893993979970e+01 0 0 0
229 1 1 0.0000000000000000e+00 -1.2885951683105183e+00 4.5163648956727691e+00 1.7668436081409610e+01 0 0 0
230 1 1 0.0000000000000000e+00 -1.0080602915376735e+00 3.7055510108143008e+00 1.8776405284479488e+01 0 0 0
231 1 1 0.0000000000000000e+00 -1.1795526261054867e+00 4.1426248930026075e+00 2.0106726414713783e+01 0 0 0
232 1 1 0.0000000000000000e+00 -8.3292659793515966e-01 3.3579154216708949e+00 2.1214740943156620e+01 0 0 0
233 1 1 0.0000000000000000e+00 -1.4108654856165663e+00 5.9649973782779453e+00 2.1674237446514699e+01 0 0 0
234 1 1 0.0000000000000000e+00 -1.3929862942655942e+00 5.1074477059498591e+00 2.2782255768615560e+01 0 0 0
235 1 1 0.0000000000000000e+00 -1.4228065617314480e+00 5.5761466330747602e+00 2.4112539383074491e+01 0 0 0
236 1 1 0.0000000000000000e+00 -1.3342541774232961e+00 4.7229796635568331e+00 2.5220578873682406e+01 0 0 0
237 1 1 0.0000000000000000e+00 -1.0861254967893963e+00 7.3818355909244060e+00 2.5680097180289366e+01 0 0 0
238 1 1 0.0000000000000000e+00 -1.3321882173427975e+00 6.5599017975463312e+00 2.6788081377505332e+01 0 0 0
239 1 1 0.0000000000000000e+00 -1.2164893865471873e+00 7.0149095176209393e+00 2.8118432430579304e+01 0 0 0
240 1 1 0.0000000000000000e+00 -1.3931827006003332e+00 6.1754251556048061e+00 2.9226467164263052e+01 0 0 0
241 1 1 0.0000000000000000e+00 -3.3996462524403182e-01 8.6292881267125860e+00 2.9685896037245403e+01 0 0 0
242 1 1 0.0000000000000000e+00 -8.2678342230578394e-01 7.9229987896573935e+00 3.0793936343244280e+01 0 0 0
243 1 1 0.0000000000000000e+00 -5.7661358223074899e-01 8.3205984113039460e+00 3.2124237963741592e+01 0 0 0
244 1 1 0.0000000000000000e+00 -1.0025829816662357e+00 7.5761045979724093e+00 3.3232318549709632e+01 0 0 0
245 1 1 0.0000000000000000e+00 7.5352682005743699e-01 9.5877610973206000e+00 3.3691721614310850e+01 0 0 0
246 1 1 0.0000000000000000e+00 7.3217818398819468e-02 9.0653102154987302e+00 3.4799765477611786e+01 0 0 0
247 1 1 0.0000000000000000e+00 4.3302658825706342e-01 9.3670418341620465e+00 3.6130088476500390e+01 0 0 0
248 1 1 0.0000000000000000e+00 -2.0116963627825246e-01 8.7893126934435983e+00 3.7238118474137224e+01 0 0 0
249 1 1 0.0000000000000000e+00 2.0873921268429543e+00 1.0165268248346660e+01 3.7697619592559107e+01 0 0 0
250 1 1 0.0000000000000000e+00 1.2798517652263666e+00 9.8758552656523300e+00 3.8805663936302061e+01 0 0 0
251 1 1 0.0000000000000000e+00 1.7151638654210339e+00 1.0052041053630631e+01 4.0135972753922395e+01 0 0 0
252 1 1 0.0000000000000000e+00 9.3476116012054966e-01 9.6960932573977967e+00 4.1244009423418824e+01 0 0 0
253 1 1 0.0000000000000000e+00 3.5349144995400561e+00 1.0304294402022242e+01 4.1703434593631144e+01 0 0 0
254 1 1 0.0000000000000000e+00 2.6775959162177738e+00 1.0276955173539093e+01 4.2811504241617143e+01 0 0 0
255 1 1 0.0000000000000000e+00 3.1460027866740354e+00 1.0311570852939868e+01 4.4141805310662811e+01 0 0 0
256 1 1 0.0000000000000000e+00 2.2938356641055355e+00 1.0212817134950431e+01 4.5249815546983591e+01 0 0 0
257 1 1 0.0000000000000000e+00 -8.0582181867046163e+00 9.9924213135929278e+00 4.5709287843741507e+01 1 0 0
258 1 1 0.0000000000000000e+00 -8.8826261744349928e+00 1.0229908682069933e+01 4.6817300758926777e+01 1 0 0
259 1 1 0.0000000000000000e+00 -8.4265613908321164e+00 1.0118560187743057e+01 4.8147647450188892e+01 1 0 0
260 1 1 0.0000000000000000e+00 3.7454237914771511e+00 1.0286823800083384e+01 4.9255617862328165e+01 0 0 0
261 1 1 0.0000000000000000e+00 -6.8033246607136908e+00 9.2586455094748086e+00 4.9715143704070528e+01 1 0 0
262 1 1 0.0000000000000000e+00 -7.5152783144705309e+00 9.7370108800320470e+00 5.0823174829494853e+01 1 0 0
263 1 1 0.0000000000000000e+00 -7.1152121679223885e+00 9.4910071408338830e+00 5.2153451580626161e+01 1 0 0
264 1 1 0.0000000000000000e+00 6.5853003190892290e+00 2.3521194724616681e+00 9.4840614859407624e-01 0 0 0
265 1 1 0.0000000000000000e+00 7.1291107793203432e+00 3.0157050794687428e+00 2.0563791921807124e+00 0 0 0
266 1 1 0.0000000000000000e+00 5.0635584744837532e+00 1.3231877250578929e+00 2.5159041246524274e+00 0 0 0
267 1 1 0.0000000000000000e+00 5.8204134143108339e+00 1.7267709959274897e+00 3.6239277462578219e+00 0 0 0
268 1 1 0.0000000000000000e+00 5.4154416227601940e+00 1.4889284636948408e+00 4.9542048226077258e+00 0 0 0
269 1 1 0.0000000000000000e+00 6.1367402946462457e+00 1.9530869381559515e+00 6.0622225471816193e+00 0 0 0
270 1 1 0.0000000000000000e+00 3.6522157187356230e+00 9.7415919797571138e-01 6.5217474821910306e+00 0 0 0
271 1 1 0.0000000000000000e+00 4.4966979954851638e+00 1.1256524075844905e+00 7.6297183728955931e+00 0 0 0