LAMMPS data file via write_data, version 24 Oct 2015-ICMS, timestep = 29

604 atoms
1 atom types
906 bonds
1 bond types
1812 angles
1 angle types
3624 dihedrals
1 dihedral types
604 impropers
1 improper types

-3.2533135409999998e+00 9.7599864590000003e+00 xlo xhi
1.9848000000000000e-05 1.1269868235000001e+01 ylo yhi
2.1981185000000000e-02 5.2620381184999999e+01 zlo zhi
-6.5066499999999996e+00 0.0000000000000000e+00 0.0000000000000000e+00 xy xz yz

Masses

1 12.0112

Pair Coeffs # lj/cut/coul/cut

1 0.148 3.61705

Bond Coeffs # harmonic

1 480 1.34

Angle Coeffs # harmonic

1 90 120

Dihedral Coeffs # harmonic

1 3 -1 2

Improper Coeffs # cvff

1 0.37 -1 2

Atoms # full

1 1 1 0.0000000000000000e+00 -5.9595089402003332e+00 8.0907769079081593e+00 1.1227236358969703e+00 1 0 0
2 1 1 0.0000000000000000e+00 -6.4752895867438260e+00 8.7482184040678774e+00 2.2302667000952692e+00 1 0 0
3 1 1 0.0000000000000000e+00 -7.9273057056141143e+00 9.7728617598608576e+00 6.6277784516478222e-01 1 0 0
4 1 1 0.0000000000000000e+00 -7.5168272758234584e+00 9.5656591342658270e+00 1.9934927039863779e+00 1 0 0
5 1 1 0.0000000000000000e+00 -8.2772353266914340e+00 9.9114562826265882e+00 3.1010975705856314e+00 1 0 0
6 1 1 0.0000000000000000e+00 -6.1764739513174076e+00 8.3987137688636118e+00 3.5610090375007997e+00 1 0 0
7 1 1 0.0000000000000000e+00 -6.7452645721877760e+00 9.0109576614064295e+00 4.6685362655562770e+00 1 0 0
8 1 1 0.0000000000000000e+00 -6.4184675452476334e+00 8.6874698061298687e+00 5.9992955635546066e+00 1 0 0
9 1 1 0.0000000000000000e+00 -7.0358707840184831e+00 9.2504259375331301e+00 7.1069244079989673e+00 1 0 0
10 1 1 0.0000000000000000e+00 -5.8554948342234292e+00 7.9215584391356630e+00 8.6745878314923459e+00 1 0 0
11 1 1 0.0000000000000000e+00 -6.0589260780284908e+00 8.2381835887910508e+00 1.1112892715827604e+01 1 0 0
12 1 1 0.0000000000000000e+00 3.8097701529824928e+00 1.0125502231936599e+01 4.2598309843677895e-01 0 0 0
13 1 1 0.0000000000000000e+00 2.9746429776009515e+00 1.0151005567074224e+01 1.5335845563852866e+00 0 0 0
14 1 1 0.0000000000000000e+00 3.4346463367005162e+00 1.0156044176652580e+01 2.8643342386027006e+00 0 0 0
15 1 1 0.0000000000000000e+00 2.6002377216405890e+00 1.0112739534921001e+01 3.9719202495454664e+00 0 0 0
16 1 1 0.0000000000000000e+00 -7.8508988992986621e+00 9.7392545157640527e+00 4.4318581640190642e+00 1 0 0
17 1 1 0.0000000000000000e+00 -8.6379099915826014e+00 1.0019697376936453e+01 5.5394055721572579e+00 1 0 0
18 1 1 0.0000000000000000e+00 -8.1985881630221105e+00 9.8838251942629007e+00 6.8701579641451618e+00 1 0 0
19 1 1 0.0000000000000000e+00 -9.0063391145916896e+00 1.0097585215485674e+01 7.9778078953258555e+00 1 0 0
20 1 1 0.0000000000000000e+00 -6.6835142222005164e+00 8.9550231059666316e+00 8.4377180438830752e+00 1 0 0
21 1 1 0.0000000000000000e+00 -7.3461638830025349e+00 9.4636358954965143e+00 9.5453234849087085e+00 1 0 0
22 1 1 0.0000000000000000e+00 -6.9704643804308564e+00 9.1985144818242954e+00 1.0876047654066118e+01 1 0 0
23 1 1 0.0000000000000000e+00 -7.6728989687846960e+00 9.6504500138621925e+00 1.1983646166120087e+01 1 0 0
24 1 1 0.0000000000000000e+00 -6.2876891862862427e+00 8.5369539195769288e+00 1.3551161071189664e+01 1 0 0
25 1 1 0.0000000000000000e+00 -6.0112277349348471e+00 8.1695140767391070e+00 1.4881910025467700e+01 1 0 0
26 1 1 0.0000000000000000e+00 -6.5406821185382285e+00 8.8160705220569309e+00 1.5989458020532812e+01 1 0 0
27 1 1 0.0000000000000000e+00 -3.8887457774306178e-01 8.3204133636344242e+00 8.3698652457736000e-01 0 0 0
28 1 1 0.0000000000000000e+00 1.6789220497453323e+00 9.8780582923279532e+00 1.2968212131448711e+00 0 0 0
29 1 1 0.0000000000000000e+00 9.2614717024924964e-01 9.5160129736077756e+00 2.4044373175923175e+00 0 0 0
30 1 1 0.0000000000000000e+00 1.3321337388244787e+00 9.7319482949199330e+00 3.7351633500329267e+00 0 0 0
31 1 1 0.0000000000000000e+00 6.1162064563622831e-01 9.3093623089089625e+00 4.8427521558683617e+00 0 0 0
32 1 1 0.0000000000000000e+00 3.0580713314231884e+00 1.0156052406008854e+01 5.3027088945487684e+00 0 0 0
33 1 1 0.0000000000000000e+00 2.2301676810538762e+00 1.0042991878606893e+01 6.4103001085894444e+00 0 0 0
34 1 1 0.0000000000000000e+00 2.6827897136079661e+00 1.0123988019156076e+01 7.7410728922706324e+00 0 0 0
35 1 1 0.0000000000000000e+00 1.8667706535930151e+00 9.9436554091378646e+00 8.8486189428781810e+00 0 0 0
36 1 1 0.0000000000000000e+00 -8.5575259788082310e+00 9.9979403866980601e+00 9.3086051892962871e+00 1 0 0
37 1 1 0.0000000000000000e+00 3.6329595098065885e+00 1.0143978642683487e+01 1.0416124995830966e+01 0 0 0
38 1 1 0.0000000000000000e+00 -8.9246186127944469e+00 1.0082021308292768e+01 1.1746861275308568e+01 1 0 0
39 1 1 0.0000000000000000e+00 3.2567641883567520e+00 1.0159936776296925e+01 1.2854451055577417e+01 0 0 0
40 1 1 0.0000000000000000e+00 -7.2763308539796663e+00 9.4176609919574723e+00 1.3314363358443236e+01 1 0 0
41 1 1 0.0000000000000000e+00 -8.0138641842807630e+00 9.8098578799631877e+00 1.4421897009277833e+01 1 0 0
42 1 1 0.0000000000000000e+00 -7.5988629908788399e+00 9.6118845779337647e+00 1.5752624157200982e+01 1 0 0
43 1 1 0.0000000000000000e+00 -8.3665048955940353e+00 9.9413122622771581e+00 1.6860285598101282e+01 1 0 0
44 1 1 0.0000000000000000e+00 -6.2346841530310737e+00 8.4728519820382893e+00 1.7320235889753320e+01 1 0 0
45 1 1 0.0000000000000000e+00 -6.8160325169307567e+00 9.0731339506409583e+00 1.8427767523836273e+01 1 0 0
46 1 1 0.0000000000000000e+00 -6.4825700941812912e+00 8.7564793596877326e+00 1.9758506214275361e+01 1 0 0
47 1 1 0.0000000000000000e+00 -7.1116398555513198e+00 9.3062588304168692e+00 2.0866143907079653e+01 1 0 0
48 1 1 0.0000000000000000e+00 -5.9037919267807535e+00 8.0022543246080620e+00 2.2433791391204132e+01 1 0 0
49 1 1 0.0000000000000000e+00 -6.1140778479672857e+00 8.3145527400936139e+00 2.4872019472215367e+01 1 0 0
50 1 1 0.0000000000000000e+00 -1.0109422946365454e+00 7.1512000070280779e+00 6.0022042493175543e-01 0 0 0
51 1 1 0.0000000000000000e+00 -1.2180888448382867e+00 6.3417140943994834e+00 1.7078550586655559e+00 0 0 0
52 1 1 0.0000000000000000e+00 -9.7383088327298140e-02 8.6761491244110491e+00 2.1677282217572986e+00 0 0 0
53 1 1 0.0000000000000000e+00 -5.9920644736471562e-01 8.0080383341226646e+00 3.2752711463425603e+00 0 0 0
54 1 1 0.0000000000000000e+00 -3.3826711224069506e-01 8.3869279246397337e+00 4.6059989266614521e+00 0 0 0
55 1 1 0.0000000000000000e+00 -7.8331270291249755e-01 7.6798217169837972e+00 5.7136258682774885e+00 0 0 0
56 1 1 0.0000000000000000e+00 9.9802044943831181e-01 9.5585068021905020e+00 6.1735219018190222e+00 0 0 0
57 1 1 0.0000000000000000e+00 3.1512544139474574e-01 9.0773415411006244e+00 7.2810661078336620e+00 0 0 0
58 1 1 0.0000000000000000e+00 6.7904946718626036e-01 9.3584965912630356e+00 8.6118207659384840e+00 0 0 0
59 1 1 0.0000000000000000e+00 3.8899960159660019e-02 8.8217835372118554e+00 9.7195001322493670e+00 0 0 0
60 1 1 0.0000000000000000e+00 2.3111452958845122e+00 1.0061641293215848e+01 1.0179425531024245e+01 0 0 0
61 1 1 0.0000000000000000e+00 1.5132251893621911e+00 9.8138094496875716e+00 1.1286982540343814e+01 0 0 0
62 1 1 0.0000000000000000e+00 1.9464078379266025e+00 9.9681653947619733e+00 1.2617735404675740e+01 0 0 0
63 1 1 0.0000000000000000e+00 1.1720989375351003e+00 9.6546033809565124e+00 1.3725353396013659e+01 0 0 0
64 1 1 0.0000000000000000e+00 3.7161222789704640e+00 1.0135888247529046e+01 1.4185212470056412e+01 0 0 0
65 1 1 0.0000000000000000e+00 2.8806604674963650e+00 1.0144178596883414e+01 1.5292795088446578e+01 0 0 0
66 1 1 0.0000000000000000e+00 3.3404818179564213e+00 1.0158659269187417e+01 1.6623540225572675e+01 0 0 0
67 1 1 0.0000000000000000e+00 2.5071108689470503e+00 1.0098106397145106e+01 1.7731134326804483e+01 0 0 0
68 1 1 0.0000000000000000e+00 -7.9366872300191966e+00 9.7780749840006909e+00 1.8191071936452794e+01 1 0 0
69 1 1 0.0000000000000000e+00 -8.7294729039727184e+00 1.0041924463365234e+01 1.9298621399450635e+01 1 0 0
70 1 1 0.0000000000000000e+00 -8.2874785758642169e+00 9.9149058781386792e+00 2.0629385329253171e+01 1 0 0
71 1 1 0.0000000000000000e+00 3.9138358048832558e+00 1.0112254204102445e+01 2.1736977157853001e+01 0 0 0
72 1 1 0.0000000000000000e+00 -6.7534137225987774e+00 9.0179652165157300e+00 2.2196942434087198e+01 1 0 0
73 1 1 0.0000000000000000e+00 -7.4264733395343656e+00 9.5128863519723268e+00 2.3304477310649176e+01 1 0 0
74 1 1 0.0000000000000000e+00 -7.0451769864709846e+00 9.2559875178469557e+00 2.4635220907328588e+01 1 0 0
75 1 1 0.0000000000000000e+00 -7.7569337038966450e+00 9.6930408243401285e+00 2.5742858424862071e+01 1 0 0
76 1 1 0.0000000000000000e+00 -5.8606701581905076e+00 7.9305442777675772e+00 2.6202743280951051e+01 1 0 0
77 1 1 0.0000000000000000e+00 -6.3491422278719067e+00 8.6084829804434069e+00 2.7310291577374265e+01 1 0 0
78 1 1 0.0000000000000000e+00 -6.0647442123748743e+00 8.2470396399822743e+00 2.8641017805546710e+01 1 0 0
79 1 1 0.0000000000000000e+00 -6.6074205336809486e+00 8.8824575597626048e+00 2.9748602492697763e+01 1 0 0
80 1 1 0.0000000000000000e+00 -1.1447743896050251e+00 4.5661071727636937e+00 1.4031236376426881e-01 0 0 0
81 1 1 0.0000000000000000e+00 -1.2313847072736239e+00 5.0177505249946304e+00 1.4710689374182881e+00 0 0 0
82 1 1 0.0000000000000000e+00 -1.0406874279398179e+00 4.2042843864390598e+00 2.5787277235085018e+00 0 0 0
83 1 1 0.0000000000000000e+00 -1.1225261346804034e+00 6.7915155028440406e+00 3.0386273528773544e+00 0 0 0
84 1 1 0.0000000000000000e+00 -1.2608811719902766e+00 5.9676462331394253e+00 4.1462080303858952e+00 0 0 0
85 1 1 0.0000000000000000e+00 -1.2031056065182759e+00 6.4239111556899662e+00 5.4769435991420199e+00 0 0 0
86 1 1 0.0000000000000000e+00 -1.2722412102343741e+00 5.5914465328407195e+00 6.5845688461172607e+00 0 0 0
87 1 1 0.0000000000000000e+00 -5.5492078415388146e-01 8.0790865289197171e+00 7.0443970768874475e+00 0 0 0
88 1 1 0.0000000000000000e+00 -9.3901285661828648e-01 7.3371474292530490e+00 8.1520207802379403e+00 0 0 0
89 1 1 0.0000000000000000e+00 -7.4457583163476571e-01 7.7540268287114031e+00 9.4827726885942241e+00 0 0 0
90 1 1 0.0000000000000000e+00 -1.0666701832714134e+00 6.9829605272575677e+00 1.0590341512200599e+01 0 0 0
91 1 1 0.0000000000000000e+00 3.7859522260831557e-01 9.1315875826335358e+00 1.1050287931372070e+01 0 0 0
92 1 1 0.0000000000000000e+00 -2.1447271829570536e-01 8.5429110505303765e+00 1.2157798324603922e+01 0 0 0
93 1 1 0.0000000000000000e+00 9.8426474432455890e-02 8.8798407083868600e+00 1.3488566361951150e+01 0 0 0
94 1 1 0.0000000000000000e+00 -4.4416795921101393e-01 8.2442900231203655e+00 1.4596129052515028e+01 0 0 0
95 1 1 0.0000000000000000e+00 1.5909976094778244e+00 9.8441616065096742e+00 1.5056110514270728e+01 0 0 0
96 1 1 0.0000000000000000e+00 8.4582926505657063e-01 9.4666571893740787e+00 1.6163638397452093e+01 0 0 0
97 1 1 0.0000000000000000e+00 1.2470659449160575e+00 9.6913254523577415e+00 1.7494347314053456e+01 0 0 0
98 1 1 0.0000000000000000e+00 5.3568630824287222e-01 9.2537130141081523e+00 1.8602022511114765e+01 0 0 0
99 1 1 0.0000000000000000e+00 2.9639514473792454e+00 1.0151020186064990e+01 1.9061907916032236e+01 0 0 0
100 1 1 0.0000000000000000e+00 2.1385579132140116e+00 1.0020994487787243e+01 2.0169482360271672e+01 0 0 0
101 1 1 0.0000000000000000e+00 2.5894078311067403e+00 1.0111440423451246e+01 2.1500242368175044e+01 0 0 0
102 1 1 0.0000000000000000e+00 1.7773634429673928e+00 9.9141975057010026e+00 2.2607813913790878e+01 0 0 0
103 1 1 0.0000000000000000e+00 -8.6486603691984385e+00 1.0021944004370924e+01 2.3067757420895354e+01 1 0 0
104 1 1 0.0000000000000000e+00 3.5390027352170144e+00 1.0150974259926588e+01 2.4175288949429003e+01 0 0 0
105 1 1 0.0000000000000000e+00 -9.0173766453043456e+00 1.0098444384881605e+01 2.5506048333392854e+01 1 0 0
106 1 1 0.0000000000000000e+00 3.1625523466383116e+00 1.0159104503011354e+01 2.6613638012346343e+01 0 0 0
107 1 1 0.0000000000000000e+00 -7.3556408391173838e+00 9.4686430278809794e+00 2.7073579314205713e+01 1 0 0
108 1 1 0.0000000000000000e+00 -8.1011470511237569e+00 9.8454431189658909e+00 2.8181144065921210e+01 1 0 0
109 1 1 0.0000000000000000e+00 -7.6821075047970853e+00 9.6558203068316413e+00 2.9511867453583697e+01 1 0 0
110 1 1 0.0000000000000000e+00 -8.4563509381243840e+00 9.9694755959597696e+00 3.0619482800618197e+01 1 0 0
111 1 1 0.0000000000000000e+00 -6.2943533765846240e+00 8.5456405363138082e+00 3.1079382425584964e+01 1 0 0
112 1 1 0.0000000000000000e+00 -6.8880907990382267e+00 9.1337030523578893e+00 3.2186938373811905e+01 1 0 0
113 1 1 0.0000000000000000e+00 -6.5481814744165927e+00 8.8240239533410030e+00 3.3517704598631397e+01 1 0 0
114 1 1 0.0000000000000000e+00 -7.1886598606312582e+00 9.3604309662733645e+00 3.4625341289753464e+01 1 0 0
115 1 1 0.0000000000000000e+00 -5.9538127109151873e+00 8.0819810983569056e+00 3.6192940344014218e+01 1 0 0
116 1 1 0.0000000000000000e+00 -6.1704356483592750e+00 8.3898072930022760e+00 3.8631196245739204e+01 1 0 0
117 1 1 0.0000000000000000e+00 -1.5770464595960831e-01 2.6613131456986481e+00 1.0112380751179753e+00 0 0 0
118 1 1 0.0000000000000000e+00 -4.4171934417264236e-01 3.0230300127183449e+00 2.3419951052993015e+00 0 0 0
119 1 1 0.0000000000000000e+00 1.0084111957050368e-01 2.3874195719398497e+00 3.4495549136544650e+00 0 0 0
120 1 1 0.0000000000000000e+00 -1.1636731126538611e+00 4.6472756547948526e+00 3.9094997788794061e+00 0 0 0
121 1 1 0.0000000000000000e+00 -9.0599901390116022e-01 3.8523207990759478e+00 5.0170219586525437e+00 0 0 0
122 1 1 0.0000000000000000e+00 -1.0653879156897808e+00 4.2836909899936373e+00 6.3477673786660711e+00 0 0 0
123 1 1 0.0000000000000000e+00 -7.4335038582883595e-01 3.5126146998969432e+00 7.4553349989770856e+00 0 0 0
124 1 1 0.0000000000000000e+00 -1.2526463157795877e+00 6.0507951903341279e+00 7.9153118995295317e+00 0 0 0
125 1 1 0.0000000000000000e+00 -1.2522708678746826e+00 5.2154668411733427e+00 9.0228494379102049e+00 0 0 0
126 1 1 0.0000000000000000e+00 -1.2718524496885064e+00 5.6749309902525615e+00 1.0353565327223359e+01 0 0 0
127 1 1 0.0000000000000000e+00 -1.2027799719004109e+00 4.8424794661343462e+00 1.1461181309554481e+01 0 0 0
128 1 1 0.0000000000000000e+00 -9.0749244612271962e-01 7.4143159126073268e+00 1.1921119903211697e+01 0 0 0
129 1 1 0.0000000000000000e+00 -1.1644025174571695e+00 6.6191155577472696e+00 1.3028639707321195e+01 0 0 0
130 1 1 0.0000000000000000e+00 -1.0415162588612361e+00 7.0622221224584489e+00 1.4359407419327471e+01 0 0 0
131 1 1 0.0000000000000000e+00 -1.2318144126914730e+00 6.2486227257333242e+00 1.5467017997379525e+01 0 0 0
132 1 1 0.0000000000000000e+00 -1.6025536387361505e-01 8.6059633551751222e+00 1.5926903872358881e+01 0 0 0
133 1 1 0.0000000000000000e+00 -6.4771026964307765e-01 7.9273606038399560e+00 1.7034502009311108e+01 0 0 0
134 1 1 0.0000000000000000e+00 -3.9463439084789798e-01 8.3115044323408025e+00 1.8365262943140038e+01 0 0 0
135 1 1 0.0000000000000000e+00 -8.2487088604353875e-01 7.5952531048067842e+00 1.9472871029736790e+01 0 0 0
136 1 1 0.0000000000000000e+00 9.1677448769451253e-01 9.5109846980926296e+00 1.9932768090564391e+01 0 0 0
137 1 1 0.0000000000000000e+00 2.4417414454383035e-01 9.0155470499220502e+00 2.1040307993565783e+01 0 0 0
138 1 1 0.0000000000000000e+00 6.0235353649164658e-01 9.3039836189544616e+00 2.2371058157716899e+01 0 0 0
139 1 1 0.0000000000000000e+00 -2.6640096627589926e-02 8.7540670170732380e+00 2.3478667654149774e+01 0 0 0
140 1 1 0.0000000000000000e+00 2.2192004489261405e+00 1.0041316227785121e+01 2.3938605468630907e+01 0 0 0
141 1 1 0.0000000000000000e+00 1.4267040486225477e+00 9.7767132260709282e+00 2.5046145404396565e+01 0 0 0
142 1 1 0.0000000000000000e+00 1.8564563560394545e+00 9.9403023919967524e+00 2.6376895873578061e+01 0 0 0
143 1 1 0.0000000000000000e+00 1.0891427103561506e+00 9.6101604218976906e+00 2.7484572940633505e+01 0 0 0
144 1 1 0.0000000000000000e+00 3.6223247284035471e+00 1.0144961783238308e+01 2.7944416185934084e+01 0 0 0
145 1 1 0.0000000000000000e+00 2.7869651733254015e+00 1.0135551721761502e+01 2.9052050961787135e+01 0 0 0
146 1 1 0.0000000000000000e+00 3.2463881621354833e+00 1.0159651752021706e+01 3.0382774294999422e+01 0 0 0
147 1 1 0.0000000000000000e+00 2.4144437942508201e+00 1.0081746184501549e+01 3.1490349762489494e+01 0 0 0
148 1 1 0.0000000000000000e+00 -8.0232139819170030e+00 9.8151607361931710e+00 3.1950252822679161e+01 1 0 0
149 1 1 0.0000000000000000e+00 -8.8213598649519120e+00 1.0062375476737913e+01 3.3057814856109843e+01 1 0 0
150 1 1 0.0000000000000000e+00 -8.3769361526825712e+00 9.9444139620007519e+00 3.4388592957231467e+01 1 0 0
151 1 1 0.0000000000000000e+00 3.8203557424505705e+00 1.0124837279580358e+01 3.5496166711528652e+01 0 0 0
152 1 1 0.0000000000000000e+00 -6.8245349202049734e+00 9.0796339984698111e+00 3.5956115645825953e+01 1 0 0
153 1 1 0.0000000000000000e+00 -7.5078114358563610e+00 9.5602582656233359e+00 3.7063684117733061e+01 1 0 0
154 1 1 0.0000000000000000e+00 -7.1213012467750554e+00 9.3111847653841000e+00 3.8394415153799777e+01 1 0 0
155 1 1 0.0000000000000000e+00 -7.8417721628436556e+00 9.7338166204729220e+00 3.9501992920123577e+01 1 0 0
156 1 1 0.0000000000000000e+00 -5.9091305340348281e+00 8.0112233562370854e+00 3.9961906475069455e+01 1 0 0
157 1 1 0.0000000000000000e+00 -6.4116248226228763e+00 8.6789062701466602e+00 4.1069447378281744e+01 1 0 0
158 1 1 0.0000000000000000e+00 -6.1198528621789725e+00 8.3234755826501274e+00 4.2400188738591098e+01 1 0 0
159 1 1 0.0000000000000000e+00 -6.6755692322481952e+00 8.9475839116171638e+00 4.3507763775067751e+01 1 0 0
160 1 1 0.0000000000000000e+00 3.3440716232763403e+00 1.1111862083484336e+00 3.1456332026684036e-01 0 0 0
161 1 1 0.0000000000000000e+00 8.4890548513785280e-01 1.8012788400725601e+00 7.7439232446441297e-01 0 0 0
162 1 1 0.0000000000000000e+00 1.5944050576134066e+00 1.4245051816294123e+00 1.8819774084118364e+00 0 0 0
163 1 1 0.0000000000000000e+00 1.1752904593135796e+00 1.6137152376533399e+00 3.2127218621213438e+00 0 0 0
164 1 1 0.0000000000000000e+00 1.9496446795792712e+00 1.3004328439828428e+00 4.3204128114098905e+00 0 0 0
165 1 1 0.0000000000000000e+00 -2.1213041097418550e-01 2.7242397064524981e+00 4.7803344256106781e+00 0 0 0
166 1 1 0.0000000000000000e+00 3.8142420150331313e-01 2.1361118024194914e+00 5.8878779586633883e+00 0 0 0
167 1 1 0.0000000000000000e+00 4.1592728852723582e-02 2.4459233937349190e+00 7.2186237535354714e+00 0 0 0
168 1 1 0.0000000000000000e+00 6.8195154793311907e-01 1.9093459351095197e+00 8.3262553464424478e+00 0 0 0
169 1 1 0.0000000000000000e+00 -9.3806692318383122e-01 3.9292376968138174e+00 8.7861057768780153e+00 0 0 0
170 1 1 0.0000000000000000e+00 -5.5260765257972189e-01 3.1879821198001146e+00 9.8937117303278015e+00 0 0 0
171 1 1 0.0000000000000000e+00 -7.8132522115559722e-01 3.5871445812291300e+00 1.1224465574760632e+01 0 0 0
172 1 1 0.0000000000000000e+00 -3.3632907689069080e-01 2.8799629566245208e+00 1.2332083579425605e+01 0 0 0
173 1 1 0.0000000000000000e+00 -1.2606219025304113e+00 5.2986521803366013e+00 1.2791933981695326e+01 0 0 0
174 1 1 0.0000000000000000e+00 -1.1215084330258813e+00 4.4748724354588978e+00 1.3899489888554831e+01 0 0 0
175 1 1 0.0000000000000000e+00 -1.2171327697776855e+00 4.9246995702031029e+00 1.5230245442427886e+01 0 0 0
176 1 1 0.0000000000000000e+00 -1.0099316549022848e+00 4.1151952206224189e+00 1.6337841591822013e+01 0 0 0
177 1 1 0.0000000000000000e+00 -1.1455685988994495e+00 6.7002282980871088e+00 1.6797809343883106e+01 0 0 0
178 1 1 0.0000000000000000e+00 -1.2665992844605114e+00 5.8735962452564907e+00 1.7905355349825843e+01 0 0 0
179 1 1 0.0000000000000000e+00 -1.2187091416817690e+00 6.3309827820856457e+00 1.9236089282761100e+01 0 0 0
180 1 1 0.0000000000000000e+00 -1.2702289504314725e+00 5.4973383716656237e+00 2.0343763869765720e+01 0 0 0
181 1 1 0.0000000000000000e+00 -6.0458922864807985e-01 7.9991138465838265e+00 2.0803642752241945e+01 0 0 0
182 1 1 0.0000000000000000e+00 -9.7366681486666184e-01 7.2495388501737503e+00 2.1911203602825054e+01 0 0 0
183 1 1 0.0000000000000000e+00 -7.8796715873449408e-01 7.6703660736408974e+00 2.3241941408602816e+01 0 0 0
184 1 1 0.0000000000000000e+00 -1.0940888131251074e+00 6.8928205799720406e+00 2.4349516157805748e+01 0 0 0
185 1 1 0.0000000000000000e+00 3.0661919221524503e-01 9.0708089197664226e+00 2.4809464358766533e+01 0 0 0
186 1 1 0.0000000000000000e+00 -2.7408397975629839e-01 8.4698955570349259e+00 2.5916990751658780e+01 0 0 0
187 1 1 0.0000000000000000e+00 3.1848406351966396e-02 8.8131626608308924e+00 2.7247765640570222e+01 0 0 0
188 1 1 0.0000000000000000e+00 -4.9753525883431049e-01 8.1665544314762197e+00 2.8355318894226603e+01 0 0 0
189 1 1 0.0000000000000000e+00 1.5039438383697750e+00 9.8084601424926277e+00 2.8815348099896049e+01 0 0 0
190 1 1 0.0000000000000000e+00 7.6677397822712212e-01 9.4155679045917609e+00 2.9922861594952678e+01 0 0 0
191 1 1 0.0000000000000000e+00 1.1633002489797830e+00 9.6484898382457551e+00 3.1253562350085467e+01 0 0 0
192 1 1 0.0000000000000000e+00 4.6084667313079297e-01 9.1965756871277975e+00 3.2361173000625662e+01 0 0 0
193 1 1 0.0000000000000000e+00 2.8700860151951035e+00 1.0143851702361372e+01 3.2821123294067512e+01 0 0 0
194 1 1 0.0000000000000000e+00 2.0474071998282843e+00 9.9970870035552437e+00 3.3928624905085222e+01 0 0 0
195 1 1 0.0000000000000000e+00 2.4961753076146200e+00 1.0097097181283416e+01 3.5259395806217277e+01 0 0 0
196 1 1 0.0000000000000000e+00 1.6885650620701167e+00 9.8826979046326624e+00 3.6367032309159157e+01 0 0 0
197 1 1 0.0000000000000000e+00 -8.7403239706471272e+00 1.0043841162759271e+01 3.6826950547063255e+01 1 0 0
198 1 1 0.0000000000000000e+00 3.4448957693988653e+00 1.0155785826633645e+01 3.7934490155988215e+01 0 0 0
199 1 1 0.0000000000000000e+00 3.9028854965880164e+00 1.0112867594505603e+01 3.9265219692760418e+01 0 0 0
200 1 1 0.0000000000000000e+00 3.0685007302049936e+00 1.0156195899622029e+01 4.0372836165092409e+01 0 0 0
201 1 1 0.0000000000000000e+00 -7.4357610637995188e+00 9.5180080827295814e+00 4.0832716887641958e+01 1 0 0
202 1 1 0.0000000000000000e+00 -8.1889389717079659e+00 9.8792627104135722e+00 4.1940270009827103e+01 1 0 0
203 1 1 0.0000000000000000e+00 -7.7660989662543560e+00 9.6984368069826772e+00 4.3271006104510981e+01 1 0 0
204 1 1 0.0000000000000000e+00 -8.5468524102463768e+00 9.9957387189950104e+00 4.4378622293350929e+01 1 0 0
205 1 1 0.0000000000000000e+00 -6.3557196959390900e+00 8.6172957983290885e+00 4.4838557155364370e+01 1 0 0
206 1 1 0.0000000000000000e+00 -6.9615584523832732e+00 9.1928165027540665e+00 4.5946117899289703e+01 1 0 0
207 1 1 0.0000000000000000e+00 -6.6152664513464901e+00 8.8901606843133276e+00 4.7276881794061616e+01 1 0 0
208 1 1 0.0000000000000000e+00 -7.2667744400396712e+00 9.4130353937972178e+00 4.8384535060082250e+01 1 0 0
209 1 1 0.0000000000000000e+00 -6.0056315601296326e+00 8.1606821146943673e+00 4.9952086661374409e+01 1 0 0
210 1 1 0.0000000000000000e+00 -6.2282433207307095e+00 8.4640096833344209e+00 5.2390372227863651e+01 1 0 0
211 1 1 0.0000000000000000e+00 4.6501123851738067e+00 1.3299342060029307e+00 7.7791848716962306e-02 0 0 0
212 1 1 0.0000000000000000e+00 5.4175427233073181e+00 1.6597334263569845e+00 1.1854700830195246e+00 0 0 0
213 1 1 0.0000000000000000e+00 2.8842439850170560e+00 1.1250966346515929e+00 1.6452964020034297e+00 0 0 0
214 1 1 0.0000000000000000e+00 3.7196318667644173e+00 1.1344833490011828e+00 2.7529313317064514e+00 0 0 0
215 1 1 0.0000000000000000e+00 3.2602490912779087e+00 1.1103906740283014e+00 4.0836858265448654e+00 0 0 0
216 1 1 0.0000000000000000e+00 4.0922148005690602e+00 1.1882517765159220e+00 5.1912661409799057e+00 0 0 0
217 1 1 0.0000000000000000e+00 1.5165175062559531e+00 1.4546830936886910e+00 5.6511722429969771e+00 0 0 0
218 1 1 0.0000000000000000e+00 2.3146854412823155e+00 1.2075121604930379e+00 6.7587000130301016e+00 0 0 0
219 1 1 0.0000000000000000e+00 1.8702157148782472e+00 1.3253487653999734e+00 8.0894707090433879e+00 0 0 0
220 1 1 0.0000000000000000e+00 2.6861770905778890e+00 1.1449422262986522e+00 9.1970321824863568e+00 0 0 0
221 1 1 0.0000000000000000e+00 3.1789510378004326e-01 2.1901681213065105e+00 9.6570283352115833e+00 0 0 0
222 1 1 0.0000000000000000e+00 1.0011728359311656e+00 1.7095568913322010e+00 1.0764554749548056e+01 0 0 0
223 1 1 0.0000000000000000e+00 6.1450480304695310e-01 1.9584509651900310e+00 1.2095284031693652e+01 0 0 0
224 1 1 0.0000000000000000e+00 1.3350945312658320e+00 1.5361512111137496e+00 1.3202939280128225e+01 0 0 0
225 1 1 0.0000000000000000e+00 -5.9736544838143812e-01 3.2587057689121997e+00 1.3662842997043256e+01 0 0 0
226 1 1 0.0000000000000000e+00 -9.5029978450146935e-02 2.5909882059706657e+00 1.4770376734153125e+01 0 0 0
227 1 1 0.0000000000000000e+00 -3.8672421173942695e-01 2.9465332865295846e+00 1.6101127693541212e+01 0 0 0
228 1 1 0.0000000000000000e+00 1.6889706715121422e-01 2.3223298620578641e+00 1.7208723876008680e+01 0 0 0
229 1 1 0.0000000000000000e+00 -1.1422869964403679e+00 4.5554517217382982e+00 1.7668626524099242e+01 0 0 0
230 1 1 0.0000000000000000e+00 -8.6787879696038317e-01 3.7661710660742238e+00 1.8776205519851096e+01 0 0 0
231 1 1 0.0000000000000000e+00 -1.0361303066702643e+00 4.1941743594581746e+00 2.0106961411476870e+01 0 0 0
232 1 1 0.0000000000000000e+00 -6.9811653324094891e-01 3.4299866912082897e+00 2.1214544768728164e+01 0 0 0
233 1 1 0.0000000000000000e+00 -1.2604503271026810e+00 5.9569986387379972e+00 2.1674484149617534e+01 0 0 0
234 1 1 0.0000000000000000e+00 -1.2428130568463804e+00 5.1218841601981726e+00 2.2781999117079692e+01 0 0 0
235 1 1 0.0000000000000000e+00 -1.2721109445909327e+00 5.5808203537610064e+00 2.4112713453601376e+01 0 0 0
236 1 1 0.0000000000000000e+00 -1.1855895338089848e+00 4.7499564208902827e+00 2.5220320843901941e+01 0 0 0
237 1 1 0.0000000000000000e+00 -9.4376627636110477e-01 7.3272939541504201e+00 2.5680304508667852e+01 0 0 0
238 1 1 0.0000000000000000e+00 -1.1841774790415220e+00 6.5269339392223609e+00 2.6787809989539724e+01 0 0 0
239 1 1 0.0000000000000000e+00 -1.0707101091285471e+00 6.9725563885222437e+00 2.8118581180250086e+01 0 0 0
240 1 1 0.0000000000000000e+00 -1.2435839240894597e+00 6.1552027845630155e+00 2.9226266979698362e+01 0 0 0
241 1 1 0.0000000000000000e+00 -2.2121395987093884e-01 8.5341530898679352e+00 2.9686094399248731e+01 0 0 0
242 1 1 0.0000000000000000e+00 -6.9457969804034025e-01 7.8457230298309755e+00 3.0793705963348248e+01 0 0 0
243 1 1 0.0000000000000000e+00 -4.4962707088284226e-01 8.2351527861497971e+00 3.2124443335449136e+01 0 0 0
244 1 1 0.0000000000000000e+00 -8.6485873166615335e-01 7.5101458589243899e+00 3.3232057378151957e+01 0 0 0
245 1 1 0.0000000000000000e+00 8.3645482464175824e-01 9.4618279231670037e+00 3.3691923084649545e+01 0 0 0
246 1 1 0.0000000000000000e+00 1.7437836369008064e-01 8.9523817437042439e+00 3.4799493181352460e+01 0 0 0
247 1 1 0.0000000000000000e+00 5.2655644065513396e-01 9.2480717350230091e+00 3.6130262726345727e+01 0 0 0
248 1 1 0.0000000000000000e+00 -9.0849021670321939e-02 8.6850577453230855e+00 3.7237841504677881e+01 0 0 0
249 1 1 0.0000000000000000e+00 2.1276823861251755e+00 1.0018803241583814e+01 3.7697830237922751e+01 0 0 0
250 1 1 0.0000000000000000e+00 1.3409295123880716e+00 9.7376080576646569e+00 3.8805384777659135e+01 0 0 0
251 1 1 0.0000000000000000e+00 1.7673710266243097e+00 9.9098646721457655e+00 4.0136133746969243e+01 0 0 0
252 1 1 0.0000000000000000e+00 1.0069736063713108e+00 9.5641260033493349e+00 4.1243752209710294e+01 0 0 0
253 1 1 0.0000000000000000e+00 3.5284938094002785e+00 1.0151383348544284e+01 4.1703593050258092e+01 0 0 0
254 1 1 0.0000000000000000e+00 2.6934132445247965e+00 1.0124993028064813e+01 4.2811166573385727e+01 0 0 0
255 1 1 0.0000000000000000e+00 3.1521702018032736e+00 1.0158958145367418e+01 4.4141915193658356e+01 0 0 0
256 1 1 0.0000000000000000e+00 2.3220924487485997e+00 1.0063456893041350e+01 4.5249551348926801e+01 0 0 0
257 1 1 0.0000000000000000e+00 -8.1105306737939404e+00 9.8507016807270631e+00 4.5709402801309970e+01 1 0 0
258 1 1 0.0000000000000000e+00 -8.9137159180681262e+00 1.0080859855712703e+01 4.6817021490351280e+01 1 0 0
259 1 1 0.0000000000000000e+00 -8.4669347579544567e+00 9.9721394731191264e+00 4.8147787206240274e+01 1 0 0
260 1 1 0.0000000000000000e+00 3.7268096326362947e+00 1.0135591464266655e+01 4.9255339275036185e+01 0 0 0
261 1 1 0.0000000000000000e+00 -6.8968712535877508e+00 9.1399319715803333e+00 4.9715292751090089e+01 1 0 0
262 1 1 0.0000000000000000e+00 -7.5900088215443775e+00 9.6061262835736514e+00 5.0822865673655222e+01 1 0 0
263 1 1 0.0000000000000000e+00 -7.1982889782568238e+00 9.3651852570448231e+00 5.2153581838056027e+01 1 0 0
264 1 1 0.0000000000000000e+00 6.4749603290694457e+00 2.4565128193847339e+00 9.4861541878108491e-01 0 0 0
265 1 1 0.0000000000000000e+00 7.0041817831439337e+00 3.1031897359239147e+00 2.0562220154274087e+00 0 0 0
266 1 1 0.0000000000000000e+00 5.0026956436247838e+00 1.4614487909834453e+00 2.5162235395405963e+00 0 0 0
267 1 1 0.0000000000000000e+00 5.7398881553861338e+00 1.8542224429733871e+00 3.6237541352887468e+00 0 0 0
268 1 1 0.0000000000000000e+00 5.3435147218154002e+00 1.6211140237911612e+00 4.9544586019215515e+00 0 0 0
269 1 1 0.0000000000000000e+00 6.0457369050893250e+00 2.0733354558498736e+00 6.0621090526969246e+00 0 0 0
270 1 1 0.0000000000000000e+00 3.6365601160762102e+00 1.1261264785451903e+00 6.5220279244833987e+00 0 0 0
271 1 1 0.0000000000000000e+00 4.4592002698072015e+00 1.2728663255651120e+00 7.6295631015480563e+00 0 0 0
272 1 1 0.0000000000000000e+00 4.0103148065491885e+00 1.1731242013632297e+00 8.9603222090504939e+00 0 0 0
273 1 1 0.0000000000000000e+00 4.8180565902634678e+00 1.3871828316745580e+00 1.0067899675526476e+01 0 0 0
274 1 1 0.0000000000000000e+00 2.2335692262129827e+00 1.2256479895740759e+00 1.0527812197220927e+01 0 0 0
275 1 1 0.0000000000000000e+00 3.0616833094133957e+00 1.1141369303056372e+00 1.1635399627037483e+01 0 0 0
276 1 1 0.0000000000000000e+00 2.6037436728051162e+00 1.1571688778514024e+00 1.2966161859946817e+01 0 0 0