LAMMPS data file via write_data, version 4 Mar 2014, timestep = 32

604 atoms
1 atom types
906 bonds
1 bond types
1812 angles
1 angle types
3624 dihedrals
1 dihedral types
604 impropers
1 improper types

-3.2533135409999998e+00 9.7599864590000003e+00 xlo xhi
1.9848000000000000e-05 1.1269868235000001e+01 ylo yhi
2.1981185000000000e-02 5.2620381184999999e+01 zlo zhi
-6.5066499999999996e+00 0.0000000000000000e+00 0.0000000000000000e+00 xy xz yz

Masses

1 12.0112

Pair Coeffs

1 0.064 4.01

Bond Coeffs

1 1.417 470.836 -627.618 1327.63

Angle Coeffs

1 118.9 61.0226 -34.9931 0

BondBond Coeffs

1 68.2856 1.417 1.417

BondAngle Coeffs

1 28.8708 28.8708 1.417 1.417

Dihedral Coeffs

1 8.3667 0 1.1932 0 0 0

AngleAngleTorsion Coeffs

1 0 118.9 118.9

EndBondTorsion Coeffs

1 -0.1185 6.3204 0 -0.1185 6.3204 0 1.417 1.417

MiddleBondTorsion Coeffs

1 27.5989 -2.312 0 1.417

BondBond13 Coeffs

1 53 1.417 1.417

AngleTorsion Coeffs

1 1.9767 1.0239 0 1.9767 1.0239 0 118.9 118.9

Improper Coeffs

1 7.1794 0

AngleAngle Coeffs

1 0 0 0 118.9 118.9 118.9

Atoms

1 1 1 0.0000000000000000e+00 -5.8155235401838343e+00 8.1866555657024112e+00 1.1226375149871666e+00 1 0 0
2 1 1 0.0000000000000000e+00 -6.3492233307635493e+00 8.8637528669065251e+00 2.2305392145707712e+00 1 0 0
3 1 1 0.0000000000000000e+00 -7.8574236250380913e+00 9.9254535143405374e+00 6.6304403231942166e-01 1 0 0
4 1 1 0.0000000000000000e+00 -7.4356937387694373e+00 9.7128175429889225e+00 1.9933669316910529e+00 1 0 0
5 1 1 0.0000000000000000e+00 -8.2198496692097329e+00 1.0070559643619744e+01 3.1013641208721419e+00 1 0 0
6 1 1 0.0000000000000000e+00 -6.0416933554496826e+00 8.5055807840742794e+00 3.5609463579098919e+00 1 0 0
7 1 1 0.0000000000000000e+00 -6.6297310482702585e+00 9.1361263164766999e+00 4.6688482101060327e+00 1 0 0
8 1 1 0.0000000000000000e+00 -6.2936051441317122e+00 8.8045909606206560e+00 5.9992573505453741e+00 1 0 0
9 1 1 0.0000000000000000e+00 -6.9320095390287131e+00 9.3839207289803248e+00 7.1072317249795836e+00 1 0 0
10 1 1 0.0000000000000000e+00 -5.7047105707875740e+00 8.0069537893961265e+00 8.6746850750560842e+00 1 0 0
11 1 1 0.0000000000000000e+00 -5.9159400891357885e+00 8.3353569124820055e+00 1.1113077175978555e+01 1 0 0
12 1 1 0.0000000000000000e+00 -9.1852904443454229e+00 1.0297084554037442e+01 4.2588055030623573e-01 1 0 0
13 1 1 0.0000000000000000e+00 2.9665135679296801e+00 1.0324107196341956e+01 1.5338823581569432e+00 0 0 0
14 1 1 0.0000000000000000e+00 3.4389019183988880e+00 1.0329289520686501e+01 2.8642665834846470e+00 0 0 0
15 1 1 0.0000000000000000e+00 2.5781751194562252e+00 1.0283381144000627e+01 3.9722546416700530e+00 0 0 0
16 1 1 0.0000000000000000e+00 -7.7820119921592701e+00 9.8935323615212862e+00 4.4317173614821614e+00 1 0 0
17 1 1 0.0000000000000000e+00 -8.5934220010251696e+00 1.0184550228891139e+01 5.5397105244015803e+00 1 0 0
18 1 1 0.0000000000000000e+00 -8.1426678307218427e+00 1.0044011536364311e+01 6.8701105944884491e+00 1 0 0
19 1 1 0.0000000000000000e+00 -8.9756729302747988e+00 1.0266314175611415e+01 7.9780419856305800e+00 1 0 0
20 1 1 0.0000000000000000e+00 -6.5697132049203537e+00 9.0810389290127755e+00 8.4376064834892386e+00 1 0 0
21 1 1 0.0000000000000000e+00 -7.2542538896948798e+00 9.6048149529864073e+00 9.5456091637696048e+00 1 0 0
22 1 1 0.0000000000000000e+00 -6.8682468660995379e+00 9.3326527900252785e+00 1.0875939360919849e+01 1 0 0
23 1 1 0.0000000000000000e+00 -7.5936739590575710e+00 9.7980724226555704e+00 1.1983919845297226e+01 1 0 0
24 1 1 0.0000000000000000e+00 -6.1541509528080045e+00 8.6448615484883220e+00 1.3551424694475136e+01 1 0 0
25 1 1 0.0000000000000000e+00 -5.8695545506895606e+00 8.2681198161051572e+00 1.4881817167899420e+01 1 0 0
26 1 1 0.0000000000000000e+00 -6.4172145269826588e+00 8.9340165839049561e+00 1.5989708171901391e+01 1 0 0
27 1 1 0.0000000000000000e+00 -5.2619382030633588e-01 8.4246011718307496e+00 8.3717613049573003e-01 0 0 0
28 1 1 0.0000000000000000e+00 1.6179970753606474e+00 1.0035777706476015e+01 1.2967679740992943e+00 0 0 0
29 1 1 0.0000000000000000e+00 8.4170738841861503e-01 9.6612957841915534e+00 2.4047575574273212e+00 0 0 0
30 1 1 0.0000000000000000e+00 1.2586923946015807e+00 9.8830757085713845e+00 3.7350792193522611e+00 0 0 0
31 1 1 0.0000000000000000e+00 5.1535136933356362e-01 9.4468293092839772e+00 4.8430507710989650e+00 0 0 0
32 1 1 0.0000000000000000e+00 3.0482534987694763e+00 1.0328351061159198e+01 5.3026403008340965e+00 0 0 0
33 1 1 0.0000000000000000e+00 2.1941961684527902e+00 1.0210617587569239e+01 6.4105475059922776e+00 0 0 0
34 1 1 0.0000000000000000e+00 2.6587417857706876e+00 1.0294648325652345e+01 7.7409535896191519e+00 0 0 0
35 1 1 0.0000000000000000e+00 1.8173284869831665e+00 1.0106485226521112e+01 8.8488519462961079e+00 0 0 0
36 1 1 0.0000000000000000e+00 -8.5149265075128433e+00 1.0163463994846630e+01 9.3084536900454573e+00 1 0 0
37 1 1 0.0000000000000000e+00 3.6497609517716345e+00 1.0315877521248987e+01 1.0416340468437243e+01 0 0 0
38 1 1 0.0000000000000000e+00 -8.8958022692289056e+00 1.0251631089799877e+01 1.1746735467524410e+01 1 0 0
39 1 1 0.0000000000000000e+00 3.2593043163181648e+00 1.0332961310175866e+01 1.2854685146803961e+01 0 0 0
40 1 1 0.0000000000000000e+00 -7.1862379718892697e+00 9.5592175429189812e+00 1.3314241157792690e+01 1 0 0
41 1 1 0.0000000000000000e+00 -7.9469057402503793e+00 9.9644895126032509e+00 1.4422218279042928e+01 1 0 0
42 1 1 0.0000000000000000e+00 -7.5208253649656376e+00 9.7607017054690282e+00 1.5752545156062110e+01 1 0 0
43 1 1 0.0000000000000000e+00 -8.3122720219144171e+00 1.0102055039488613e+01 1.6860547187671237e+01 1 0 0
44 1 1 0.0000000000000000e+00 -6.1023245963289448e+00 8.5822983481413804e+00 1.7320119032273094e+01 1 0 0
45 1 1 0.0000000000000000e+00 -6.7033276945564966e+00 9.2004711471700187e+00 1.8428038359442720e+01 1 0 0
46 1 1 0.0000000000000000e+00 -6.3604215460321907e+00 8.8759246528985507e+00 1.9758443247036233e+01 1 0 0
47 1 1 0.0000000000000000e+00 -7.0107810362648220e+00 9.4417426908487023e+00 2.0866431591866100e+01 1 0 0
48 1 1 0.0000000000000000e+00 -5.7548964406966707e+00 8.0907411696231009e+00 2.2433883657322973e+01 1 0 0
49 1 1 0.0000000000000000e+00 -5.9730445711227462e+00 8.4145527135357518e+00 2.4872275001743816e+01 1 0 0
50 1 1 0.0000000000000000e+00 -1.1731738737646991e+00 7.2065962861489199e+00 6.0009074340068391e-01 0 0 0
51 1 1 0.0000000000000000e+00 -1.3848979922048286e+00 6.3708597529526596e+00 1.7080346001942044e+00 0 0 0
52 1 1 0.0000000000000000e+00 -2.2645437554766534e-01 8.7893325163473044e+00 2.1675775872830845e+00 0 0 0
53 1 1 0.0000000000000000e+00 -7.4537993299803329e-01 8.1009003906304855e+00 3.2754985459471300e+00 0 0 0
54 1 1 0.0000000000000000e+00 -4.7711071678831996e-01 8.4895747977063358e+00 4.6058833988034307e+00 0 0 0
55 1 1 0.0000000000000000e+00 -9.3641603156299702e-01 7.7602201693379502e+00 5.7138807830052754e+00 0 0 0
56 1 1 0.0000000000000000e+00 9.1216220755008770e-01 9.7029717501756849e+00 6.1733726099508957e+00 0 0 0
57 1 1 0.0000000000000000e+00 2.0683565386109404e-01 9.2076060233995598e+00 7.2813675138345992e+00 0 0 0
58 1 1 0.0000000000000000e+00 5.8104909453008347e-01 9.4957243767646773e+00 8.6117177813373793e+00 0 0 0
59 1 1 0.0000000000000000e+00 -8.0551980803773127e-02 8.9431495123424281e+00 9.7197143545816722e+00 0 0 0
60 1 1 0.0000000000000000e+00 2.2733554445187627e+00 1.0228672547230474e+01 1.0179262266170744e+01 0 0 0
61 1 1 0.0000000000000000e+00 1.4506131660932251e+00 9.9711847911822407e+00 1.1287230293373609e+01 0 0 0
62 1 1 0.0000000000000000e+00 1.8951522007261783e+00 1.0130467780539565e+01 1.2617609083796266e+01 0 0 0
63 1 1 0.0000000000000000e+00 1.0969807001801328e+00 9.8050831850271098e+00 1.3725613080161471e+01 0 0 0
64 1 1 0.0000000000000000e+00 3.7310012828396699e+00 1.0308219915749255e+01 1.4185069694849004e+01 0 0 0
65 1 1 0.0000000000000000e+00 2.8691431243627443e+00 1.0316998790437895e+01 1.5293078839205165e+01 0 0 0
66 1 1 0.0000000000000000e+00 3.3412895252220824e+00 1.0332157347726504e+01 1.6623462155869092e+01 0 0 0
67 1 1 0.0000000000000000e+00 2.4816776525412267e+00 1.0268145594552964e+01 1.7731432576740723e+01 0 0 0
68 1 1 0.0000000000000000e+00 -7.8709268364438216e+00 9.9340418807346040e+00 1.8190914227253739e+01 1 0 0
69 1 1 0.0000000000000000e+00 -8.6882903250773857e+00 1.0208011243922142e+01 1.9298897747876936e+01 1 0 0
70 1 1 0.0000000000000000e+00 -8.2347611296353378e+00 1.0076792154697133e+01 2.0629305022840160e+01 1 0 0
71 1 1 0.0000000000000000e+00 -9.0722326351251077e+00 1.0281723800097259e+01 2.1737218058638234e+01 1 0 0
72 1 1 0.0000000000000000e+00 -6.6423373577396934e+00 9.1463216740111832e+00 2.2196794033698936e+01 1 0 0
73 1 1 0.0000000000000000e+00 -7.3376436709961848e+00 9.6556798094901701e+00 2.3304794925114468e+01 1 0 0
74 1 1 0.0000000000000000e+00 -6.9460622378850054e+00 9.3916029923312152e+00 2.4635120637004427e+01 1 0 0
75 1 1 0.0000000000000000e+00 -7.6807864792574749e+00 9.8422045562059122e+00 2.5743096382354608e+01 1 0 0
76 1 1 0.0000000000000000e+00 -5.7126803319685049e+00 8.0204706539030859e+00 2.6202660047080542e+01 1 0 0
77 1 1 0.0000000000000000e+00 -6.2176666125627413e+00 8.7191339971994921e+00 2.7310602127215780e+01 1 0 0
78 1 1 0.0000000000000000e+00 -5.9252807253007402e+00 8.3484538378108013e+00 2.8640999469650318e+01 1 0 0
79 1 1 0.0000000000000000e+00 -6.4866469016745931e+00 9.0028605316384027e+00 2.9748887118948907e+01 1 0 0
80 1 1 0.0000000000000000e+00 -1.3106945820932774e+00 4.5280541914610399e+00 1.4053361468839093e-01 0 0 0
81 1 1 0.0000000000000000e+00 -1.3985544247147024e+00 4.9920110039699290e+00 1.4709160391500213e+00 0 0 0
82 1 1 0.0000000000000000e+00 -1.2036449881300535e+00 4.1522264898445558e+00 2.5788783020817525e+00 0 0 0
83 1 1 0.0000000000000000e+00 -1.2879118460464634e+00 6.8329651943513179e+00 3.0384285992998268e+00 0 0 0
84 1 1 0.0000000000000000e+00 -1.4290286987919605e+00 5.9826022732348578e+00 4.1464275770679331e+00 0 0 0
85 1 1 0.0000000000000000e+00 -1.3701910094285918e+00 6.4512110175348019e+00 5.4767718382835691e+00 0 0 0
86 1 1 0.0000000000000000e+00 -1.4399289381072746e+00 5.5921393675546769e+00 6.5847639505599860e+00 0 0 0
87 1 1 0.0000000000000000e+00 -7.0181487966469458e-01 8.1702720214152436e+00 7.0442642553456762e+00 0 0 0
88 1 1 0.0000000000000000e+00 -1.0978083672936085e+00 7.4046827446526375e+00 8.1522584980822455e+00 0 0 0
89 1 1 0.0000000000000000e+00 -8.9869721038078154e-01 7.8328993975502303e+00 9.4826445460261066e+00 0 0 0
90 1 1 0.0000000000000000e+00 -1.2292885513922052e+00 7.0366827747962608e+00 1.0590557529381222e+01 0 0 0
91 1 1 0.0000000000000000e+00 2.6872690029546842e-01 9.2608643802007951e+00 1.1050110537090834e+01 0 0 0
92 1 1 0.0000000000000000e+00 -3.4451122705245929e-01 8.6548611900445565e+00 1.2158047866239128e+01 0 0 0
93 1 1 0.0000000000000000e+00 -2.2674155671931651e-02 9.0002433529262831e+00 1.3488461254691220e+01 0 0 0
94 1 1 0.0000000000000000e+00 -5.8351841341947175e-01 8.3453894695870598e+00 1.4596348531449145e+01 0 0 0
95 1 1 0.0000000000000000e+00 1.5270395429168131e+00 1.0000329346509547e+01 1.5055946538593044e+01 0 0 0
96 1 1 0.0000000000000000e+00 7.5859027768333753e-01 9.6100154219082192e+00 1.6163929336482155e+01 0 0 0
97 1 1 0.0000000000000000e+00 1.1707977426017502e+00 9.8405402756835265e+00 1.7494250332686168e+01 0 0 0
98 1 1 0.0000000000000000e+00 4.3642408150890333e-01 9.3893674642559990e+00 1.8602225971027021e+01 0 0 0
99 1 1 0.0000000000000000e+00 2.9506534384717460e+00 1.0322970402835530e+01 1.9061823950980532e+01 0 0 0
100 1 1 0.0000000000000000e+00 2.0991917074060611e+00 1.0187519532566270e+01 2.0169718482758718e+01 0 0 0
101 1 1 0.0000000000000000e+00 2.5618905092491344e+00 1.0281168876151600e+01 2.1500128582862942e+01 0 0 0
102 1 1 0.0000000000000000e+00 1.7245837200000702e+00 1.0075568418479714e+01 2.2608042230933634e+01 0 0 0
103 1 1 0.0000000000000000e+00 -8.6094594822447803e+00 1.0188442774482194e+01 2.3067627950646457e+01 1 0 0
104 1 1 0.0000000000000000e+00 3.5522721842326632e+00 1.0323214366089264e+01 2.4175522893868120e+01 0 0 0
105 1 1 0.0000000000000000e+00 -8.9920062503076306e+00 1.0268766972106459e+01 2.5505914192867401e+01 1 0 0
106 1 1 0.0000000000000000e+00 3.1616324769570676e+00 1.0332084847901806e+01 2.6613885818792625e+01 0 0 0
107 1 1 0.0000000000000000e+00 -7.2683921736103771e+00 9.6120142897421061e+00 2.7073417848312548e+01 1 0 0
108 1 1 0.0000000000000000e+00 -8.0371471005352468e+00 1.0001724968610375e+01 2.8181401427030522e+01 1 0 0
109 1 1 0.0000000000000000e+00 -7.6069337400019199e+00 9.8068205981601455e+00 2.9511735439060804e+01 1 0 0
110 1 1 0.0000000000000000e+00 -8.4053676418975733e+00 1.0131563331587166e+01 3.0619739562939113e+01 1 0 0
111 1 1 0.0000000000000000e+00 -6.1645354164546067e+00 8.6577341497027724e+00 3.1079300395916825e+01 1 0 0
112 1 1 0.0000000000000000e+00 -6.7782572554916323e+00 9.2632452574353117e+00 3.2187238781706512e+01 1 0 0
113 1 1 0.0000000000000000e+00 -6.4287274697148984e+00 8.9458058139647907e+00 3.3517635609121506e+01 1 0 0
114 1 1 0.0000000000000000e+00 -7.0907718397761235e+00 9.4978462767724814e+00 3.4625633615911795e+01 1 0 0
115 1 1 0.0000000000000000e+00 -5.8068414001849407e+00 8.1734265474664909e+00 3.6193087484479598e+01 1 0 0
116 1 1 0.0000000000000000e+00 -6.0318047812030411e+00 8.4925477476422255e+00 3.8631468556518904e+01 1 0 0
117 1 1 0.0000000000000000e+00 -2.8896219268950540e-01 2.5507521081933184e+00 1.0114007749982470e+00 0 0 0
118 1 1 0.0000000000000000e+00 -5.8134842866857372e-01 2.9214327324867391e+00 2.3417979360521528e+00 0 0 0
119 1 1 0.0000000000000000e+00 -1.9981750713879087e-02 2.2670259315990000e+00 3.4496847339395842e+00 0 0 0
120 1 1 0.0000000000000000e+00 -1.3293387771266776e+00 4.6072932649471596e+00 3.9092899556206637e+00 0 0 0
121 1 1 0.0000000000000000e+00 -1.0652419751512103e+00 3.7865374201711077e+00 5.0171828837180339e+00 0 0 0
122 1 1 0.0000000000000000e+00 -1.2281696696023290e+00 4.2296199958727447e+00 6.3475857480135947e+00 0 0 0
123 1 1 0.0000000000000000e+00 -8.9694273867467533e-01 3.4336701009467419e+00 7.4555007088819432e+00 0 0 0
124 1 1 0.0000000000000000e+00 -1.4201931139444435e+00 6.0640242755034617e+00 7.9150866952207917e+00 0 0 0
125 1 1 0.0000000000000000e+00 -1.4198588228323636e+00 5.2021278744492800e+00 9.0230586521827050e+00 0 0 0
126 1 1 0.0000000000000000e+00 -1.4399755400453582e+00 5.6739971554620467e+00 1.0353379479444884e+01 0 0 0
127 1 1 0.0000000000000000e+00 -1.3695564938834899e+00 4.8149811991726157e+00 1.1461371826396592e+01 0 0 0
128 1 1 0.0000000000000000e+00 -1.0667145415742212e+00 7.4798945994937478e+00 1.1920961019916845e+01 0 0 0
129 1 1 0.0000000000000000e+00 -1.3301561007708709e+00 6.6589294990200498e+00 1.3028855677359884e+01 0 0 0
130 1 1 0.0000000000000000e+00 -1.2048232396498886e+00 7.1140958139477126e+00 1.4359268044417146e+01 0 0 0
131 1 1 0.0000000000000000e+00 -1.3990586311263256e+00 6.2741567669979297e+00 1.5467231080899465e+01 0 0 0
132 1 1 0.0000000000000000e+00 -2.9142883230945671e-01 8.7163049634073744e+00 1.5926745062404912e+01 0 0 0
133 1 1 0.0000000000000000e+00 -7.9585320309019814e-01 8.0172378223118752e+00 1.7034687451675122e+01 0 0 0
134 1 1 0.0000000000000000e+00 -5.3580711519815516e-01 8.4115327759934253e+00 1.8365072223236410e+01 0 0 0
135 1 1 0.0000000000000000e+00 -9.7956865155557882e-01 7.6726430486769948e+00 1.9473080104907464e+01 0 0 0
136 1 1 0.0000000000000000e+00 8.2779404422317349e-01 9.6537579718430173e+00 1.9932551868571721e+01 0 0 0
137 1 1 0.0000000000000000e+00 1.3289492463049157e-01 9.1438431944481877e+00 2.1040552967317907e+01 0 0 0
138 1 1 0.0000000000000000e+00 5.0110540607630494e-01 9.4395530076081542e+00 2.2370915907097750e+01 0 0 0
139 1 1 0.0000000000000000e+00 -1.4879966447895843e-01 8.8732108763001936e+00 2.3478903758543723e+01 0 0 0
140 1 1 0.0000000000000000e+00 2.1780096295219380e+00 1.0207146786112165e+01 2.3938449210542583e+01 0 0 0
141 1 1 0.0000000000000000e+00 1.3608682252579145e+00 9.9325207222707874e+00 2.5046433388314028e+01 0 0 0
142 1 1 0.0000000000000000e+00 1.8020821142048753e+00 1.0100881129029116e+01 2.6376800204692678e+01 0 0 0
143 1 1 0.0000000000000000e+00 1.0109103715767214e+00 9.7588939309150593e+00 2.7484802635037752e+01 0 0 0
144 1 1 0.0000000000000000e+00 3.6337921948406091e+00 1.0317309218629266e+01 2.7944269744810146e+01 0 0 0
145 1 1 0.0000000000000000e+00 2.7719414867517900e+00 1.0307828844340644e+01 2.9052279097917239e+01 0 0 0
146 1 1 0.0000000000000000e+00 3.2436159233462147e+00 1.0332952522251995e+01 3.0382663678548070e+01 0 0 0
147 1 1 0.0000000000000000e+00 2.3854864977880750e+00 1.0250932453263909e+01 3.1490612851284901e+01 0 0 0
148 1 1 0.0000000000000000e+00 -7.9607048233028950e+00 9.9726305469431491e+00 3.1950119027761986e+01 1 0 0
149 1 1 0.0000000000000000e+00 -8.7836545312147987e+00 1.0229457996396352e+01 3.3058087517088801e+01 1 0 0
150 1 1 0.0000000000000000e+00 -8.3275320850812555e+00 1.0107632898522850e+01 3.4388499233315365e+01 1 0 0
151 1 1 0.0000000000000000e+00 -9.1690948943589348e+00 1.0295124419266797e+01 3.5496397178844184e+01 1 0 0
152 1 1 0.0000000000000000e+00 -6.7163307313829170e+00 9.2100222916433712e+00 3.5955983728271669e+01 1 0 0
153 1 1 0.0000000000000000e+00 -7.4220504325305283e+00 9.7048271580613630e+00 3.7063978377403707e+01 1 0 0
154 1 1 0.0000000000000000e+00 -7.0250339407665940e+00 9.4490052761891778e+00 3.8394300493035679e+01 1 0 0
155 1 1 0.0000000000000000e+00 -7.7687114934761157e+00 9.8846747638814190e+00 3.9502273060028223e+01 1 0 0
156 1 1 0.0000000000000000e+00 -5.7632224868075408e+00 8.1040927012246584e+00 3.9961854919468877e+01 1 0 0
157 1 1 0.0000000000000000e+00 -6.2826995484642332e+00 8.7921105497454963e+00 4.1069775226228671e+01 1 0 0
158 1 1 0.0000000000000000e+00 -5.9826692873690739e+00 8.4276197928350829e+00 4.2400176965815746e+01 1 0 0
159 1 1 0.0000000000000000e+00 -6.5574938697644205e+00 9.0702438057236741e+00 4.3508067579837153e+01 1 0 0
160 1 1 0.0000000000000000e+00 3.3450408761995458e+00 9.3780064006039454e-01 3.1468503141518794e-01 0 0 0
161 1 1 0.0000000000000000e+00 7.6176361555523808e-01 1.6578717776153074e+00 7.7421683039926747e-01 0 0 0
162 1 1 0.0000000000000000e+00 1.5305191900027930e+00 1.2681607132886130e+00 1.8821993938878587e+00 0 0 0
163 1 1 0.0000000000000000e+00 1.1003052002420404e+00 1.4630655188557127e+00 3.2125333462371470e+00 0 0 0
164 1 1 0.0000000000000000e+00 1.8987406195924565e+00 1.1383224570648482e+00 4.3205361237305935e+00 0 0 0
165 1 1 0.0000000000000000e+00 -3.4209353143458987e-01 2.6121529521973268e+00 4.7800962632348982e+00 0 0 0
166 1 1 0.0000000000000000e+00 2.7162915044138680e-01 2.0066411284552759e+00 5.8880336625816101e+00 0 0 0
167 1 1 0.0000000000000000e+00 -7.7900722835786418e-02 2.3240810044267208e+00 7.2184307709654929e+00 0 0 0
168 1 1 0.0000000000000000e+00 5.8414408443817534e-01 1.7720407264612459e+00 8.3264282439110033e+00 0 0 0
169 1 1 0.0000000000000000e+00 -1.0964005588380701e+00 3.8617278999981273e+00 8.7858875373566541e+00 0 0 0
170 1 1 0.0000000000000000e+00 -6.9978629583132790e-01 3.0964607667870294e+00 9.8938807705250653e+00 0 0 0
171 1 1 0.0000000000000000e+00 -9.3472015888958238e-01 3.5063221665154272e+00 1.1224263353286679e+01 0 0 0
172 1 1 0.0000000000000000e+00 -4.7482259258175308e-01 2.7773402881927383e+00 1.2332261800975482e+01 0 0 0
173 1 1 0.0000000000000000e+00 -1.4287634680943815e+00 5.2835419056148396e+00 1.2791718458463620e+01 0 0 0
174 1 1 0.0000000000000000e+00 -1.2869609831892217e+00 4.4332919997038562e+00 1.3899718349528372e+01 0 0 0
175 1 1 0.0000000000000000e+00 -1.3843111490933544e+00 4.8953197812827360e+00 1.5230112131608710e+01 0 0 0
176 1 1 0.0000000000000000e+00 -1.1719174964341126e+00 4.0597524574945654e+00 1.6338055601749460e+01 0 0 0
177 1 1 0.0000000000000000e+00 -1.3115636982299801e+00 6.7381832677007543e+00 1.6797613661916571e+01 0 0 0
178 1 1 0.0000000000000000e+00 -1.4348189446746678e+00 5.8850836471136816e+00 1.7905617207980288e+01 0 0 0
179 1 1 0.0000000000000000e+00 -1.3856413337306357e+00 6.3548181054048731e+00 1.9235953620125315e+01 0 0 0
180 1 1 0.0000000000000000e+00 -1.4377080141650875e+00 5.4944994772728792e+00 2.0343939201844908e+01 0 0 0
181 1 1 0.0000000000000000e+00 -7.5369118465012264e-01 8.0875428611414630e+00 2.0803463816466920e+01 0 0 0
182 1 1 0.0000000000000000e+00 -1.1334846773424934e+00 7.3137464082683366e+00 2.1911441111883054e+01 0 0 0
183 1 1 0.0000000000000000e+00 -9.4344233757725338e-01 7.7460009671042194e+00 2.3241831259372677e+01 0 0 0
184 1 1 0.0000000000000000e+00 -1.2574292832934111e+00 6.9430511688103591e+00 2.4349729641619536e+01 0 0 0
185 1 1 0.0000000000000000e+00 1.9384889800983984e-01 9.1980279207730558e+00 2.4809308898380607e+01 0 0 0
186 1 1 0.0000000000000000e+00 -4.0666053843831751e-01 8.5793745857043593e+00 2.5917227840517345e+01 0 0 0
187 1 1 0.0000000000000000e+00 -9.2050773702157862e-02 8.9313429240987432e+00 2.7247639081252682e+01 0 0 0
188 1 1 0.0000000000000000e+00 -6.3917881363729379e-01 8.2650107544492659e+00 2.8355530901371932e+01 0 0 0
189 1 1 0.0000000000000000e+00 1.4368275246509352e+00 9.9630220587106155e+00 2.8815129877410545e+01 0 0 0
190 1 1 0.0000000000000000e+00 6.7647579170198746e-01 9.5571576660573765e+00 2.9923106989458958e+01 0 0 0
191 1 1 0.0000000000000000e+00 1.0837176700039644e+00 9.7963431502692853e+00 3.1253428207714478e+01 0 0 0
192 1 1 0.0000000000000000e+00 3.5865539985795269e-01 9.3303563030339500e+00 3.2361409395115032e+01 0 0 0
193 1 1 0.0000000000000000e+00 2.8531698774324381e+00 1.0315553932947701e+01 3.2821008496107588e+01 0 0 0
194 1 1 0.0000000000000000e+00 2.0046792561185311e+00 1.0162464365845276e+01 3.3928896391723910e+01 0 0 0
195 1 1 0.0000000000000000e+00 2.4653436648410265e+00 1.0265680835792573e+01 3.5259309222158784e+01 0 0 0
196 1 1 0.0000000000000000e+00 1.6325176665699770e+00 1.0042712155324539e+01 3.6367240921456670e+01 0 0 0
197 1 1 0.0000000000000000e+00 -8.7044821271591744e+00 1.0211464223207910e+01 3.6826802123558750e+01 1 0 0
198 1 1 0.0000000000000000e+00 3.4546685492559117e+00 1.0328515547473456e+01 3.7934710546791223e+01 0 0 0
199 1 1 0.0000000000000000e+00 -9.0885148659599402e+00 1.0283925501437496e+01 3.9265098344788655e+01 1 0 0
200 1 1 0.0000000000000000e+00 3.0640231411397858e+00 1.0329136520585559e+01 4.0373088154557024e+01 0 0 0
201 1 1 0.0000000000000000e+00 -7.3515474585812965e+00 9.6632324092414201e+00 4.0832594885609559e+01 1 0 0
202 1 1 0.0000000000000000e+00 -8.1281335772894288e+00 1.0037100832409305e+01 4.1940585283174677e+01 1 0 0
203 1 1 0.0000000000000000e+00 -7.6940027409681884e+00 9.8511138518058878e+00 4.3270927480168822e+01 1 0 0
204 1 1 0.0000000000000000e+00 -8.4990980682483208e+00 1.0159065196385969e+01 4.4378928095845296e+01 1 0 0
205 1 1 0.0000000000000000e+00 -6.2283020185348130e+00 8.7318465755610006e+00 4.4838479839704540e+01 1 0 0
206 1 1 0.0000000000000000e+00 -6.8544926974570837e+00 9.3244085497756153e+00 4.5946437416877792e+01 1 0 0
207 1 1 0.0000000000000000e+00 -6.4984994850413251e+00 9.0141899812481938e+00 4.7276824147701539e+01 1 0 0
208 1 1 0.0000000000000000e+00 -7.1719449035135687e+00 9.5522071744178483e+00 4.8384825488046879e+01 1 0 0
209 1 1 0.0000000000000000e+00 -5.8605298381063795e+00 8.2549749207933640e+00 4.9952283453195626e+01 1 0 0
210 1 1 0.0000000000000000e+00 -6.0921845342263552e+00 8.5693254649903015e+00 5.2390650462076870e+01 1 0 0
211 1 1 0.0000000000000000e+00 4.7045911492300840e+00 1.1690045331469046e+00 7.7599253849889999e-02 0 0 0
212 1 1 0.0000000000000000e+00 5.4957642939197209e+00 1.5109921996914482e+00 1.1856009541163379e+00 0 0 0
213 1 1 0.0000000000000000e+00 2.8728805549060175e+00 9.5257618583069115e-01 1.6450685240303380e+00 0 0 0
214 1 1 0.0000000000000000e+00 3.7347315496115172e+00 9.6205678265199968e-01 2.7530775099733464e+00 0 0 0
215 1 1 0.0000000000000000e+00 3.2630567276097819e+00 9.3693332661258777e-01 4.0834603674265502e+00 0 0 0
216 1 1 0.0000000000000000e+00 4.1211872422233897e+00 1.0189536076434562e+00 5.1914076878818740e+00 0 0 0
217 1 1 0.0000000000000000e+00 1.4540771203919496e+00 1.2972557119521266e+00 5.6509142653636175e+00 0 0 0
218 1 1 0.0000000000000000e+00 2.2770268219888044e+00 1.0404283410307060e+00 6.7588822176476615e+00 0 0 0
219 1 1 0.0000000000000000e+00 1.8209042364032886e+00 1.1622538594832856e+00 8.0892938592627548e+00 0 0 0
220 1 1 0.0000000000000000e+00 2.6624680268861818e+00 9.7476248943926347e-01 9.1971910424910597e+00 0 0 0
221 1 1 0.0000000000000000e+00 2.0970288107942103e-01 2.0598652088197817e+00 9.6567771361879036e+00 0 0 0
222 1 1 0.0000000000000000e+00 9.1542299380445336e-01 1.5650603221085435e+00 1.0764771175304565e+01 0 0 0
223 1 1 0.0000000000000000e+00 5.1840661051620351e-01 1.8208825574207197e+00 1.2095093662684937e+01 0 0 0
224 1 1 0.0000000000000000e+00 1.2620844664397470e+00 1.3852132963586259e+00 1.3203066517621982e+01 0 0 0
225 1 1 0.0000000000000000e+00 -7.4340446359865231e-01 3.1657954709279115e+00 1.3662648054248740e+01 0 0 0
226 1 1 0.0000000000000000e+00 -2.2392710223515566e-01 2.4777777943159593e+00 1.4770568271161796e+01 0 0 0
227 1 1 0.0000000000000000e+00 -5.2395696027562177e-01 2.8422686355288729e+00 1.6100970137878253e+01 0 0 0
228 1 1 0.0000000000000000e+00 5.0867277511511766e-02 2.1996454025465479e+00 1.7208861708548493e+01 0 0 0
229 1 1 0.0000000000000000e+00 -1.3069922535637124e+00 4.5121083132048048e+00 1.7668468908793312e+01 0 0 0
230 1 1 0.0000000000000000e+00 -1.0259229725529586e+00 3.6970102602189123e+00 1.8776356956882964e+01 0 0 0
231 1 1 0.0000000000000000e+00 -1.1980440538100972e+00 4.1366233667171466e+00 2.0106755699766548e+01 0 0 0
232 1 1 0.0000000000000000e+00 -8.5032234977061893e-01 3.3477911008127137e+00 2.1214691234534417e+01 0 0 0
233 1 1 0.0000000000000000e+00 -1.4279202394741524e+00 5.9666881847884907e+00 2.1674260622643732e+01 0 0 0
234 1 1 0.0000000000000000e+00 -1.4101893179259042e+00 5.1049759475495389e+00 2.2782235166322291e+01 0 0 0
235 1 1 0.0000000000000000e+00 -1.4401939450661105e+00 5.5763260128325376e+00 2.4112559745449655e+01 0 0 0
236 1 1 0.0000000000000000e+00 -1.3519914229231009e+00 4.7189416699574309e+00 2.5220559290876579e+01 0 0 0
237 1 1 0.0000000000000000e+00 -1.1040929952460612e+00 7.3895356258996596e+00 2.5680138409124453e+01 0 0 0
238 1 1 0.0000000000000000e+00 -1.3504243323630778e+00 6.5632878436583031e+00 2.6788046703931538e+01 0 0 0
239 1 1 0.0000000000000000e+00 -1.2345140929818745e+00 7.0209627391936467e+00 2.8118455616995028e+01 0 0 0
240 1 1 0.0000000000000000e+00 -1.4111445592188554e+00 6.1771837132721279e+00 2.9226435193105264e+01 0 0 0
241 1 1 0.0000000000000000e+00 -3.5488449888294760e-01 8.6419824010274748e+00 2.9685923421830950e+01 0 0 0
242 1 1 0.0000000000000000e+00 -8.4453556280927788e-01 7.9325491064567499e+00 3.0793887918564092e+01 0 0 0
243 1 1 0.0000000000000000e+00 -5.9284584375250571e-01 8.3322900859032707e+00 3.2124271950924403e+01 0 0 0
244 1 1 0.0000000000000000e+00 -1.0208535745115865e+00 7.5841707163641896e+00 3.3232282190423504e+01 0 0 0
245 1 1 0.0000000000000000e+00 7.4444497425905176e-01 9.6028253841607629e+00 3.3691740930367573e+01 0 0 0
246 1 1 0.0000000000000000e+00 6.0325372003426914e-02 9.0784989223096186e+00 3.4799744899283198e+01 0 0 0
247 1 1 0.0000000000000000e+00 4.2238266665571267e-01 9.3816645189257279e+00 3.6130120109437669e+01 0 0 0
248 1 1 0.0000000000000000e+00 -2.1555739020879905e-01 8.8018211731354672e+00 3.7238093624664266e+01 0 0 0
249 1 1 0.0000000000000000e+00 2.0831610050071676e+00 1.0183607132690126e+01 3.7697640088285418e+01 0 0 0
250 1 1 0.0000000000000000e+00 1.2719877981646430e+00 9.8919369496024743e+00 3.8805635154292411e+01 0 0 0
251 1 1 0.0000000000000000e+00 1.7096868808222077e+00 1.0069309303212018e+01 4.0135989378094386e+01 0 0 0
252 1 1 0.0000000000000000e+00 9.2581688707029564e-01 9.7109427169845812e+00 4.1243986407761980e+01 0 0 0
253 1 1 0.0000000000000000e+00 3.5364151776527635e+00 1.0324337767136475e+01 4.1703471465110063e+01 0 0 0
254 1 1 0.0000000000000000e+00 2.6749415424286269e+00 1.0296615344782715e+01 4.2811472613606000e+01 0 0 0
255 1 1 0.0000000000000000e+00 3.1459233854629387e+00 1.0331680509432076e+01 4.4141856960209331e+01 0 0 0
256 1 1 0.0000000000000000e+00 2.2896443079955588e+00 1.0231755522817094e+01 4.5249784140953118e+01 0 0 0
257 1 1 0.0000000000000000e+00 -8.0513003937292620e+00 1.0009289118301169e+01 4.5709318581083075e+01 1 0 0
258 1 1 0.0000000000000000e+00 -8.8794643659397874e+00 1.0248893139140975e+01 4.6817268671227168e+01 1 0 0
259 1 1 0.0000000000000000e+00 -8.4209348249752694e+00 1.0136527156309628e+01 4.8147681125905976e+01 1 0 0
260 1 1 0.0000000000000000e+00 3.7470870376174830e+00 1.0306513150454212e+01 4.9255569250490616e+01 0 0 0
261 1 1 0.0000000000000000e+00 -6.7916513207684641e+00 9.2721319366004060e+00 4.9715163479270117e+01 1 0 0
262 1 1 0.0000000000000000e+00 -7.5074126638392000e+00 9.7522845373837335e+00 5.0823150965635008e+01 1 0 0
263 1 1 0.0000000000000000e+00 -7.1051068832462949e+00 9.5048765840675600e+00 5.2153471929637682e+01 1 0 0
264 1 1 0.0000000000000000e+00 6.5987257899982170e+00 2.3385437101424973e+00 9.4843798018289094e-01 0 0 0
265 1 1 0.0000000000000000e+00 7.1458538655738275e+00 3.0048759059489338e+00 2.0563286046154352e+00 0 0 0
266 1 1 0.0000000000000000e+00 5.0698459713376822e+00 1.3068636709648300e+00 2.5159287943794046e+00 0 0 0
267 1 1 0.0000000000000000e+00 5.8301981655934201e+00 1.7127285704029322e+00 3.6239045584845639e+00 0 0 0
268 1 1 0.0000000000000000e+00 5.4229558849444315e+00 1.4735430934421032e+00 4.9542236639945836e+00 0 0 0
269 1 1 0.0000000000000000e+00 6.1480187612638355e+00 1.9395302681596769e+00 6.0622038707321337e+00 0 0 0
270 1 1 0.0000000000000000e+00 3.6535030477572290e+00 9.5433214082998485e-01 6.5218033683485723e+00 0 0 0
271 1 1 0.0000000000000000e+00 4.5019939567984579e+00 1.1074220877493381e+00 7.6296914348273575e+00 0 0 0
272 1 1 0.0000000000000000e+00 4.0413292337116564e+00 1.0042059989579333e+00 8.9601034166508633e+00 0 0 0