LAMMPS data file via write_data, version 8 Jul 2013-ICMS, timestep = 14

642 atoms
19 atom types
652 bonds
39 bond types
1181 angles
92 angle types
1741 dihedrals
154 dihedral types
123 impropers
14 improper types

-4.5164623260000001e+00 2.4921899796000002e+01 xlo xhi
-1.9334226850000000e+00 2.2266929626000000e+01 ylo yhi
-7.9219999310000002e+00 2.1079420089999999e+01 zlo zhi

Masses

1 14.0067
2 1.00797
3 12.0112
4 1.00797
5 12.0112
6 15.9994
7 12.0112
8 15.9994
9 1.00797
10 12.0112
11 14.0067
12 12.0112
13 32.064
14 12.0112
15 14.0067
16 12.0112
17 12.0112
18 12.0112
19 15.9994

Pair Coeffs

1 0.167 3.50123
2 0 0
3 0.039 3.87541
4 0.038 2.44997
5 0.148 3.61705
6 0.228 2.85978
7 0.039 3.87541
8 0.228 2.85978
9 0 0
10 0.039 3.87541
11 0.167 3.50123
12 0.039 3.87541
13 0.0429759 3.36775
14 0.148 3.61705
15 0.167 3.50123
16 0.148 3.61705
17 0.039 3.87541
18 0.148 3.61705
19 0.228 2.85978

Bond Coeffs

1 356.599 1.47
2 457.459 1.026
3 283.092 1.52
4 322.716 1.526
5 340.618 1.105
6 615.322 1.23
7 388 1.32
8 322.716 1.526
9 384 1.42
10 340.618 1.105
11 540.634 0.96
12 340.618 1.105
13 377.575 1.46
14 483.451 1.026
15 322.716 1.526
16 228 1.8
17 340.618 1.105
18 180 2
19 377.575 1.46
20 322.716 1.526
21 384 1.42
22 322.716 1.526
23 322.716 1.526
24 322.716 1.526
25 388 1.32
26 388 1.32
27 457.459 1.026
28 283.092 1.52
29 388 1.32
30 283.092 1.51
31 480 1.34
32 363.416 1.08
33 377.575 1.46
34 283.092 1.52
35 340.618 1.105
36 400 1.37
37 384 1.37
38 283.092 1.52
39 540 1.25

Angle Coeffs

1 41.6 110
2 36 105.5
3 46.6 110.5
4 50 109.5
5 45 109.5
6 50 109.5
7 44.4 110
8 57.3 109.5
9 68 120
10 68 120
11 53.5 114.1
12 70 109.5
13 46.6 110.5
14 44.4 110
15 70 109.5
16 57 109.5
17 44.4 110
18 58.5 106
19 44.4 110
20 39.5 106.4
21 111 118
22 35 122
23 37.5 115
24 50 109.5
25 50 109.5
26 51.5 109.5
27 46.6 110.5
28 50 109.5
29 44.4 110
30 62 109
31 45 109
32 44.4 110
33 39.5 106.4
34 75 109.5
35 37 120
36 111 118
37 50 109.5
38 51.5 109.5
39 44.4 110
40 46.6 110.5
41 46.6 110.5
42 70 109.5
43 57 109.5
44 58.5 106
45 46.6 110.5
46 46.6 110.5
47 44.4 110
48 46.6 110.5
49 44.4 110
50 44.4 110
51 44.4 110
52 46.6 110.5
53 46.6 110.5
54 50 109.5
55 44.4 110
56 44.4 110
57 111 118
58 102 120
59 102 120
60 37.5 115
61 33 125
62 46.6 110.5
63 45 109.5
64 68 120
65 68 120
66 53.5 114.1
67 37.5 115
68 46.6 110.5
69 44.4 110
70 90 120
71 44.2 120
72 37 120
73 46.6 110.5
74 111 118
75 35 122
76 50 109.5
77 45 109.5
78 51.5 109.5
79 39.5 106.4
80 68 120
81 53.5 114.1
82 46.6 110.5
83 145 123
84 122.8 110
85 50 112
86 60 120
87 50 109
88 46.6 110.5
89 50 109.5
90 45 109.5
91 145 123
92 68 120

Dihedral Coeffs

1 0.0889 1 3
2 0.0889 1 3
3 0.0889 1 3
4 0 1 0
5 0 1 0
6 0 1 0
7 0 1 0
8 0 1 0
9 0 1 0
10 0.1581 1 3
11 0.1581 1 3
12 0.1581 1 3
13 0.1581 1 3
14 0.1581 1 3
15 0.1581 1 3
16 0.1581 1 3
17 0.1581 1 3
18 0.1581 1 3
19 3.8 -1 2
20 1.8 -1 2
21 3.2 -1 2
22 1.2 -1 2
23 0.1581 1 3
24 0.1581 1 3
25 0.1581 1 3
26 0.13 1 3
27 0.13 1 3
28 0.13 1 3
29 0 1 0
30 0 1 0
31 0 1 0
32 0 1 0
33 0 1 0
34 0 1 0
35 0 1 0
36 0 1 0
37 0.1581 1 3
38 0.1581 1 3
39 0.1581 1 3
40 0 1 0
41 0 1 0
42 0 1 0
43 0 1 0
44 0.1581 1 3
45 0.1581 1 3
46 0.1581 1 3
47 0.1581 1 3
48 0.1581 1 3
49 0.1581 1 3
50 0.14 1 3
51 0.14 1 3
52 5.5 1 2
53 3.8 -1 2
54 3.2 -1 2
55 0 1 0
56 0 1 0
57 0 1 0
58 0 1 0
59 0 1 0
60 0 1 0
61 0 1 0
62 0.1581 1 3
63 0.1581 1 3
64 0.1581 1 3
65 0.1581 1 3
66 0.1581 1 3
67 0.1581 1 3
68 0.1581 1 3
69 0.1581 1 3
70 0.1581 1 3
71 0.1581 1 3
72 0.1581 1 3
73 0.1581 1 3
74 0.13 1 3
75 0.13 1 3
76 0.1581 1 3
77 0.1581 1 3
78 0.1581 1 3
79 0.1581 1 3
80 0.1581 1 3
81 0.1581 1 3
82 0.1581 1 3
83 0.1581 1 3
84 0.1581 1 3
85 0.1581 1 3
86 0.1581 1 3
87 0.1581 1 3
88 0.1581 1 3
89 0 1 0
90 0 1 0
91 0 1 0
92 0 1 0
93 0.1581 1 3
94 0.1581 1 3
95 0.1581 1 3
96 0 1 0
97 0 1 0
98 3.4 -1 2
99 3.4 -1 2
100 3.4 -1 2
101 0.1581 1 3
102 0.1581 1 3
103 0.1581 1 3
104 0 1 0
105 0 1 0
106 0 1 0
107 0 1 0
108 1.5 -1 2
109 1.5 -1 2
110 0.1581 1 3
111 0.1581 1 3
112 0.1581 1 3
113 0 1 2
114 0 1 2
115 3 -1 2
116 3 -1 2
117 3 -1 2
118 3 -1 2
119 3 -1 2
120 0.1581 1 3
121 0.1581 1 3
122 0.1581 1 3
123 0.1581 1 3
124 0.1581 1 3
125 3.8 -1 2
126 3.2 -1 2
127 0 1 0
128 0 1 0
129 0 1 0
130 0 1 0
131 0 1 0
132 0 1 0
133 0 1 0
134 0 1 0
135 3.2 -1 2
136 1.2 -1 2
137 0.1581 1 3
138 0.1581 1 3
139 0 1 0
140 0 1 0
141 0 1 0
142 2.25 -1 2
143 2.25 -1 2
144 3 -1 2
145 3 -1 2
146 0.75 -1 2
147 0 1 0
148 0 1 0
149 0 1 0
150 0 1 0
151 0 1 0
152 0 1 0
153 0.1581 1 3
154 0.1581 1 3

Improper Coeffs

1 10 -1 2
2 0.05 -1 2
3 0.05 -1 2
4 10 -1 2
5 0.05 -1 2
6 10 -1 2
7 0.05 -1 2
8 0.37 -1 2
9 0.37 -1 2
10 0.05 -1 2
11 10 -1 2
12 11.6 -1 2
13 0 -1 2
14 11.6 -1 2

Atoms

205 15 3 1.2000000000000000e-01 3.7980537737924789e+00 2.6031937226529807e+00 1.7526073635277539e+00 0 0 0
206 15 4 1.0000000000000001e-01 4.1206150911734065e+00 1.8259347644113453e+00 1.0394351737385539e+00 0 0 0
207 15 5 3.8000000000000000e-01 3.3162472616518706e+00 3.8664270800115399e+00 1.0112220159683212e+00 0 0 0
208 15 6 -3.8000000000000000e-01 2.9414307735653700e+00 3.8105181729317974e+00 -1.6134359034643117e-01 0 0 0
213 15 4 1.0000000000000001e-01 1.0159956219509880e+00 2.8163707568450804e+00 1.5176515854684516e+00 0 0 0
214 15 4 1.0000000000000001e-01 1.5543050577271214e+00 1.2278132500363139e+00 9.0018133740324213e-01 0 0 0
219 16 11 -5.0000000000000000e-01 3.3359718951345441e+00 5.0020912918988056e+00 1.7079182944700593e+00 0 0 0
221 16 3 1.2000000000000000e-01 2.8917514252457073e+00 6.2738918147673557e+00 1.1374962559095485e+00 0 0 0
222 16 4 1.0000000000000001e-01 1.8128581357651821e+00 6.2016218848085449e+00 9.1395939918753177e-01 0 0 0
223 16 5 3.8000000000000000e-01 3.7205854791828377e+00 6.5972228617398887e+00 -1.1026355881848471e-01 0 0 0
224 16 6 -3.8000000000000000e-01 3.2065680229140860e+00 7.1559460275443483e+00 -1.0696915192603067e+00 0 0 0
228 16 13 1.0000000000000001e-01 2.6001569341503692e+00 8.9914258539477476e+00 1.6291732826869623e+00 0 0 0
229 17 11 -5.0000000000000000e-01 4.9944994238219254e+00 6.2003664798258757e+00 -9.6067393225517037e-02 0 0 0
252 18 11 -5.0000000000000000e-01 5.0809098722761519e+00 4.4154896459835369e+00 -2.2033486393951471e+00 0 0 0
253 18 2 2.8000000000000003e-01 4.6339172519521910e+00 4.2420297075088094e+00 -1.2952914423948858e+00 0 0 0
254 18 3 1.2000000000000000e-01 4.9640717517967614e+00 3.4427171535679135e+00 -3.2785847735146953e+00 0 0 0
256 18 5 3.8000000000000000e-01 4.3985513963398475e+00 4.0048080234449852e+00 -4.5931964847707096e+00 0 0 0
257 18 6 -3.8000000000000000e-01 4.9676278479350691e+00 3.7612291140179028e+00 -5.6603824420392241e+00 0 0 0
258 18 12 -2.0000000000000001e-01 4.2023096913685052e+00 2.1893514996240802e+00 -2.8613969767484000e+00 0 0 0
259 18 4 1.0000000000000001e-01 3.3237183104322883e+00 2.5128841812688765e+00 -2.2909654791044791e+00 0 0 0
260 18 4 1.0000000000000001e-01 3.8624331883208316e+00 1.6644482185012541e+00 -3.7747488660154809e+00 0 0 0
261 18 7 -1.0000000000000001e-01 4.9532370934153631e+00 1.1898987458939638e+00 -1.9960461339809241e+00 0 0 0
263 18 10 -2.9999999999999999e-01 3.9305130796019507e+00 1.1249436992174117e-01 -1.6353497966981141e+00 0 0 0
264 18 4 1.0000000000000001e-01 4.3726788115337083e+00 -6.8743411080721539e-01 -1.0143894688026740e+00 0 0 0
265 18 4 1.0000000000000001e-01 3.0825129964851183e+00 5.5080237839065416e-01 -1.0716741019816900e+00 0 0 0
266 18 4 1.0000000000000001e-01 3.5118530218079704e+00 -3.5729776260256713e-01 -2.5483638818319028e+00 0 0 0
271 19 11 -4.1999999999999998e-01 3.3329703175900627e+00 4.8176623373040703e+00 -4.5717307316678433e+00 0 0 0
272 19 3 5.9999999999999998e-02 2.7956711593666492e+00 5.3617399821985554e+00 -5.8002895395029164e+00 0 0 0
273 19 4 1.0000000000000001e-01 2.7567181299827346e+00 4.5552493001892191e+00 -6.5437247119917474e+00 0 0 0
274 19 12 5.9999999999999998e-02 2.4225621633958188e+00 4.9390251222089194e+00 -3.4303673215789230e+00 0 0 0
275 19 4 1.0000000000000001e-01 2.8765817736569073e+00 5.5031826616880366e+00 -2.6101046651559288e+00 0 0 0
276 19 4 1.0000000000000001e-01 2.1145418179328148e+00 3.9675560153737091e+00 -3.0195999242975242e+00 0 0 0
277 19 5 3.8000000000000000e-01 3.5812921893710645e+00 6.5596906722940069e+00 -6.3214389174072290e+00 0 0 0
278 19 6 -3.8000000000000000e-01 3.2690604611854739e+00 7.0405702099762255e+00 -7.4023354859376012e+00 0 0 0
279 19 12 -2.0000000000000001e-01 1.3641991090034247e+00 5.7676831302017710e+00 -5.4624559792537415e+00 0 0 0
280 19 4 1.0000000000000001e-01 1.1345363364215522e+00 6.8012463499582987e+00 -5.7802207080993711e+00 0 0 0
281 19 4 1.0000000000000001e-01 6.3462073016903608e-01 5.0644664096208754e+00 -5.9067829511092942e+00 0 0 0
282 19 12 -2.0000000000000001e-01 1.2219384872766719e+00 5.6890332504255898e+00 -3.9653394395210984e+00 0 0 0
283 19 4 1.0000000000000001e-01 1.1886003508683696e+00 6.7139039951104085e+00 -3.5672081241011662e+00 0 0 0
284 19 4 1.0000000000000001e-01 2.8574680274781000e-01 5.1686053868253632e+00 -3.7227803515004796e+00 0 0 0
285 20 11 -5.0000000000000000e-01 4.5302037892173406e+00 7.0739737987725153e+00 -5.5369937061802750e+00 0 0 0
286 20 2 2.8000000000000003e-01 4.7542331147080530e+00 6.6088469844815956e+00 -4.6523961200713879e+00 0 0 0
289 20 4 1.0000000000000001e-01 5.2134099699491543e+00 8.2876052889695817e+00 -7.1037911756132797e+00 0 0 0
290 20 5 3.8000000000000000e-01 5.0163960044803240e+00 9.4845660980019204e+00 -5.2966852487867868e+00 0 0 0
292 21 11 -5.0000000000000000e-01 4.1693038391141748e+00 9.4202519644883775e+00 -4.2437919353476028e+00 0 0 0
293 21 2 2.8000000000000003e-01 3.8098222124898391e+00 8.5070998964678815e+00 -3.9845895420782687e+00 0 0 0
299 21 4 1.0000000000000001e-01 3.7144596268596888e+00 9.7446203540347511e+00 -1.5476353191567205e+00 0 0 0
300 21 8 -3.8000000000000000e-01 2.0394702303501488e+00 9.1642241458078715e+00 -2.6335971617371539e+00 0 0 0
301 21 9 3.4999999999999998e-01 1.1828213061661996e+00 9.5604293026635787e+00 -2.8253703091471540e+00 0 0 0
374 26 13 1.0000000000000001e-01 4.3106739048923464e+00 9.8107883704216441e+00 1.0541459980450245e+00 0 0 0
194 14 6 -3.8000000000000000e-01 6.2402854366849025e+00 3.1474295485438328e+00 7.1281743663705288e-01 0 0 0
230 17 2 2.8000000000000003e-01 5.3433358481291569e+00 5.7403526501100446e+00 7.4648836948794761e-01 0 0 0
231 17 3 1.2000000000000000e-01 5.8840180101681776e+00 6.5099263409672821e+00 -1.2021495554334325e+00 0 0 0
232 17 4 1.0000000000000001e-01 5.6110874099935781e+00 7.5217328903828466e+00 -1.5116475054228444e+00 0 0 0
233 17 5 3.8000000000000000e-01 5.7324830168982599e+00 5.5601406872503745e+00 -2.3883959190759558e+00 0 0 0
234 17 6 -3.8000000000000000e-01 6.2302005878136368e+00 5.8854166346921293e+00 -3.4706384941702946e+00 0 0 0
235 17 12 -2.0000000000000001e-01 7.3494488969293403e+00 6.5132615570013046e+00 -7.3382819925814513e-01 0 0 0
236 17 4 1.1000000000000000e-01 7.5631789225403727e+00 5.5674955538870980e+00 -2.0211576146866134e-01 0 0 0
237 17 4 1.1000000000000000e-01 8.0120104797209386e+00 6.5533554053701950e+00 -1.6181700693278822e+00 0 0 0
238 17 12 -2.0000000000000001e-01 7.7070397860722384e+00 7.6823499404727764e+00 1.8640150006265027e-01 0 0 0
239 17 4 1.3000000000000000e-01 6.8911687761093914e+00 7.8457797158206946e+00 9.1456454840591650e-01 0 0 0
240 17 4 1.3000000000000000e-01 8.6135052255947482e+00 7.4385493479251599e+00 7.7600040474972731e-01 0 0 0
241 17 12 -1.6000000000000000e-01 7.9586064105900380e+00 8.9505307111895149e+00 -6.3241572134398261e-01 0 0 0
242 17 4 1.3000000000000000e-01 7.1125014628962457e+00 9.0753948502389790e+00 -1.3223181883806523e+00 0 0 0
243 17 4 1.3000000000000000e-01 7.9568815703591653e+00 9.8155586198818749e+00 5.7085342361426719e-02 0 0 0
244 17 11 -5.6000000000000005e-01 9.2507293799766117e+00 8.8422779983009345e+00 -1.3344483394816953e+00 0 0 0
245 17 14 3.8000000000000000e-01 9.5440865057816744e+00 9.5592080427503472e+00 -2.4291761530433855e+00 0 0 0
249 17 15 -5.6000000000000005e-01 1.0797482175808987e+01 9.4914498872859863e+00 -2.8964562254419066e+00 0 0 0
250 17 2 2.8000000000000003e-01 1.1471486938229695e+01 8.8622900268612490e+00 -2.4449870169515933e+00 0 0 0
251 17 2 2.8000000000000003e-01 1.1052834926192393e+01 1.0073507731737413e+01 -3.7046297047107530e+00 0 0 0
255 18 4 1.0000000000000001e-01 5.9959266608399648e+00 3.1474925830654943e+00 -3.4280334968993125e+00 0 0 0
262 18 4 1.0000000000000001e-01 5.3660138071063983e+00 1.6610851638348074e+00 -1.0933539475300877e+00 0 0 0
267 18 10 -2.9999999999999999e-01 6.1177403750467603e+00 5.9937308135541911e-01 -2.7637871622652583e+00 0 0 0
268 18 4 1.0000000000000001e-01 5.7743520244163404e+00 1.5626835627462685e-01 -3.7132019955391580e+00 0 0 0
269 18 4 1.0000000000000001e-01 6.8627891739413958e+00 1.3821109917875636e+00 -2.9955064789196078e+00 0 0 0
270 18 4 1.0000000000000001e-01 6.6342943245646762e+00 -1.7274136226540684e-01 -2.1692645205842420e+00 0 0 0
287 20 17 2.0000000000000000e-02 5.3479537933964387e+00 8.1693950659281107e+00 -6.0181088873047122e+00 0 0 0
288 20 4 1.0000000000000001e-01 6.4173008220769336e+00 7.9189881238216868e+00 -5.8767497292213360e+00 0 0 0
294 21 3 1.2000000000000000e-01 3.7779098701454488e+00 1.0626674886237399e+01 -3.4986655818226309e+00 0 0 0
295 21 4 1.0000000000000001e-01 3.1581593838202542e+00 1.1242300703507633e+01 -4.1493719181935571e+00 0 0 0
296 21 5 3.8000000000000000e-01 4.9963466422266176e+00 1.1397004392468164e+01 -3.0413245682218490e+00 0 0 0
298 21 7 -7.0000000000000007e-02 2.9831395346344625e+00 1.0172094476892861e+01 -2.2633151820885642e+00 0 0 0
302 21 10 -2.9999999999999999e-01 2.2661105156352259e+00 1.1326217554199545e+01 -1.5663885504787511e+00 0 0 0
303 21 4 1.0000000000000001e-01 1.7368290502382073e+00 1.0988703598136961e+01 -6.5262585246881932e-01 0 0 0
304 21 4 1.0000000000000001e-01 2.9801170132916752e+00 1.2116586501558219e+01 -1.2540280650829243e+00 0 0 0
305 21 4 1.0000000000000001e-01 1.5266077144784920e+00 1.1787410239909951e+01 -2.2442299172952902e+00 0 0 0
306 22 11 -4.1999999999999998e-01 5.0411161154611586e+00 1.2725042096927160e+01 -3.1488684366004942e+00 0 0 0
309 22 12 5.9999999999999998e-02 3.9910312535362809e+00 1.3513054239888039e+01 -3.7875963741351812e+00 0 0 0
310 22 4 1.0000000000000001e-01 3.1260354772452055e+00 1.3602766417008052e+01 -3.1047860507252549e+00 0 0 0
311 22 4 1.0000000000000001e-01 3.7048136113137415e+00 1.3084921303853633e+01 -4.7634761314244320e+00 0 0 0
315 22 4 1.0000000000000001e-01 5.1989452630924911e+00 1.5407818551996259e+01 -2.0469072543303479e+00 0 0 0
317 22 12 -2.0000000000000001e-01 4.6411814398317821e+00 1.4864670395843818e+01 -4.0071713330712919e+00 0 0 0
318 22 4 1.0000000000000001e-01 3.9112537892127981e+00 1.5688733255685602e+01 -3.9136682833159617e+00 0 0 0
319 22 4 1.0000000000000001e-01 5.1217189900375759e+00 1.4881887671020994e+01 -5.0033696509840633e+00 0 0 0
346 25 11 -5.0000000000000000e-01 4.4352322477493393e+00 1.5307683686256183e+01 1.4094678275395596e+00 0 0 0
347 25 2 2.8000000000000003e-01 4.8341998731874014e+00 1.5150187623200011e+01 4.8299595444054116e-01 0 0 0
352 25 7 -1.0000000000000001e-01 2.2094893909750497e+00 1.4661834083776398e+01 4.8216034317373768e-01 0 0 0
353 25 4 1.0000000000000001e-01 2.7688335231175909e+00 1.4072006209746975e+01 -2.6519088240113092e-01 0 0 0
354 25 12 -2.0000000000000001e-01 1.8264260654846607e+00 1.6018680239547805e+01 -1.1734864190279092e-01 0 0 0
355 25 4 1.0000000000000001e-01 2.7284516715284197e+00 1.6645212454527719e+01 -2.0897768732628191e-01 0 0 0
356 25 4 1.0000000000000001e-01 1.4388536048080633e+00 1.5891832833227706e+01 -1.1440819236189270e+00 0 0 0
357 25 10 -2.9999999999999999e-01 9.3127061713046944e-01 1.3879201594518312e+01 8.0097485832576476e-01 0 0 0
358 25 4 1.0000000000000001e-01 2.9703642169010552e-01 1.3730569713146521e+01 -9.4364060042815015e-02 0 0 0
359 25 4 1.0000000000000001e-01 1.1449099019448430e+00 1.2873934657132077e+01 1.2123182071266176e+00 0 0 0
360 25 4 1.0000000000000001e-01 3.2602150036804212e-01 1.4388923153300080e+01 1.5700012478525935e+00 0 0 0
361 25 10 -2.9999999999999999e-01 7.7877044180420874e-01 1.6751518052141364e+01 7.3260622879702542e-01 0 0 0
363 25 4 1.0000000000000001e-01 5.0794794114314579e-01 1.7739355774548653e+01 3.1856314986292811e-01 0 0 0
364 25 4 1.0000000000000001e-01 -1.6609192546769444e-01 1.6184981228267009e+01 8.0461029729908473e-01 0 0 0
366 26 2 2.8000000000000003e-01 4.6235283261274756e+00 1.2926381459037165e+01 1.5038147338412695e+00 0 0 0
246 17 15 -5.6000000000000005e-01 8.6609066637261343e+00 1.0359496853289048e+01 -3.0228045122687712e+00 0 0 0
247 17 2 2.8000000000000003e-01 7.6807193393964877e+00 1.0389196472120933e+01 -2.6824488120760903e+00 0 0 0
248 17 2 2.8000000000000003e-01 8.9574277651338594e+00 1.0914325870169952e+01 -3.8372270928053709e+00 0 0 0
291 20 6 -3.8000000000000000e-01 5.5170267317174106e+00 1.0516363931138326e+01 -5.7164162112119090e+00 0 0 0
297 21 6 -3.8000000000000000e-01 5.9266297101720147e+00 1.0767400295002099e+01 -2.5408598049772921e+00 0 0 0
307 22 3 5.9999999999999998e-02 6.1477420440335528e+00 1.3519632538179323e+01 -2.6810975752189856e+00 0 0 0
308 22 4 1.0000000000000001e-01 7.0350736359629984e+00 1.3324184404241421e+01 -3.3019351971710416e+00 0 0 0
312 22 5 3.8000000000000000e-01 6.4288681329252242e+00 1.3250137195395398e+01 -1.2232893080604026e+00 0 0 0
313 22 6 -3.8000000000000000e-01 5.5017550667602544e+00 1.3057048566031495e+01 -4.2126271970716272e-01 0 0 0
314 22 12 -2.0000000000000001e-01 5.6934450593957164e+00 1.4961665222186625e+01 -2.9296983829588177e+00 0 0 0
316 22 4 1.0000000000000001e-01 6.5047705298335030e+00 1.5614925949507455e+01 -3.3043687357817446e+00 0 0 0
320 23 11 -5.0000000000000000e-01 7.7082729454992718e+00 1.3316607295546861e+01 -8.8942906841537128e-01 0 0 0
321 23 2 2.8000000000000003e-01 8.3996633224083865e+00 1.3464866284858552e+01 -1.6411249927831302e+00 0 0 0
322 23 3 1.2000000000000000e-01 8.1188334170415448e+00 1.3102461905744974e+01 4.8477936567744545e-01 0 0 0
323 23 4 1.0000000000000001e-01 7.8162742811149686e+00 1.2084362874336499e+01 7.9012109192362390e-01 0 0 0
324 23 5 3.8000000000000000e-01 7.4123593064248885e+00 1.4082071735876156e+01 1.4079562218594994e+00 0 0 0
326 23 12 -2.0000000000000001e-01 9.6246024338612060e+00 1.3285180241795283e+01 6.5496869398407798e-01 0 0 0
327 23 4 1.0000000000000001e-01 9.9231715858260259e+00 1.4231492025411328e+01 1.7998852237851135e-01 0 0 0
328 23 4 1.0000000000000001e-01 9.8518190882587167e+00 1.3395727805930134e+01 1.7289912398660641e+00 0 0 0
329 23 12 -2.0000000000000001e-01 1.0400506157015622e+01 1.2113672410458058e+01 6.6304046251968229e-02 0 0 0
330 23 4 1.0000000000000001e-01 9.9839394791726015e+00 1.1169879781053082e+01 4.5484990955970012e-01 0 0 0
331 23 4 1.0000000000000001e-01 1.0259755270572585e+01 1.2092869581810223e+01 -1.0237614997288256e+00 0 0 0
332 23 5 3.8000000000000000e-01 1.1895583249433301e+01 1.2214041018116463e+01 3.8555510412136218e-01 0 0 0
333 23 6 -3.4999999999999998e-01 1.2443131503689033e+01 1.3262710829279319e+01 6.9618026963615531e-01 0 0 0
334 23 8 -3.8000000000000000e-01 1.2529534351760478e+01 1.1002624207641007e+01 2.9223759282361467e-01 0 0 0
335 23 9 3.4999999999999998e-01 1.1878777978076508e+01 1.0313897626737509e+01 1.3099036226265237e-01 0 0 0
336 24 11 -5.0000000000000000e-01 7.1905538596595591e+00 1.5329465767325475e+01 9.7756725410730361e-01 0 0 0
337 24 2 2.8000000000000003e-01 7.4564990293902609e+00 1.5572366522369329e+01 2.0948316903171844e-02 0 0 0
342 24 10 -2.9999999999999999e-01 6.6016825746637586e+00 1.7675033581996040e+01 1.2520623724094659e+00 0 0 0
344 24 4 1.0000000000000001e-01 7.6211034087813285e+00 1.7966813134464786e+01 9.3450845438759511e-01 0 0 0
345 24 4 1.0000000000000001e-01 5.9448794605058408e+00 1.7680304879472764e+01 3.6470476327073215e-01 0 0 0
100 8 6 -3.8000000000000000e-01 4.6617665236582422e+00 3.2643518207168762e+00 1.0348673558803718e+01 0 0 0
114 9 4 1.0000000000000001e-01 4.5538307912055256e+00 5.9187583796083096e+00 1.0760856543501816e+01 0 0 0
149 11 6 -3.8000000000000000e-01 5.2099471199406189e+00 2.0294233110851461e+00 5.5896739039180225e+00 0 0 0
151 11 4 1.0000000000000001e-01 5.2588149243381066e+00 8.6798901477450296e-01 9.1901498181796146e+00 0 0 0
155 12 11 -5.0000000000000000e-01 4.6636087862068507e+00 3.2092618348805435e+00 7.4302900719464331e+00 0 0 0
156 12 2 2.8000000000000003e-01 4.8461722052918388e+00 3.3303652439380445e+00 8.4327298652672482e+00 0 0 0
157 12 3 1.2000000000000000e-01 3.5652390333739157e+00 3.8996141856658402e+00 6.7581092999768053e+00 0 0 0
158 12 4 1.0000000000000001e-01 2.9249172741596392e+00 3.1373897182073414e+00 6.2962681276806141e+00 0 0 0
159 12 5 3.8000000000000000e-01 4.1217419809392233e+00 4.8534783049930015e+00 5.7059587886426426e+00 0 0 0
160 12 6 -3.8000000000000000e-01 3.5358664613892681e+00 5.0044166767190257e+00 4.6318949298138907e+00 0 0 0
161 12 12 -2.0000000000000001e-01 2.6879748108991666e+00 4.6800201673703636e+00 7.7333757809234331e+00 0 0 0
162 12 4 1.0000000000000001e-01 3.3432705243623544e+00 5.3072355752316218e+00 8.3553579835427954e+00 0 0 0
163 12 4 1.0000000000000001e-01 2.0536472875746350e+00 5.3769849999908539e+00 7.1522259500349943e+00 0 0 0
164 12 5 3.8000000000000000e-01 1.8161315155845676e+00 3.7594504580567807e+00 8.5950488836765633e+00 0 0 0
165 12 6 -3.8000000000000000e-01 1.5434367608186625e+00 2.6178222073776833e+00 8.2047128219343186e+00 0 0 0
166 12 15 -5.6000000000000005e-01 1.3889188714561604e+00 4.2498842841804088e+00 9.7684014182522070e+00 0 0 0
167 12 2 2.8000000000000003e-01 1.6686006811201686e+00 5.2098812859670689e+00 1.0010302745783751e+01 0 0 0
168 12 2 2.8000000000000003e-01 8.0889827362076383e-01 3.6716682971474723e+00 1.0390888735300429e+01 0 0 0
169 13 11 -5.0000000000000000e-01 5.2702359964082239e+00 5.4621683275388220e+00 5.9949636560729953e+00 0 0 0
172 13 4 1.0000000000000001e-01 5.2404993942253348e+00 7.1796226995782400e+00 4.8111892570835915e+00 0 0 0
203 15 11 -5.0000000000000000e-01 4.9729797922343630e+00 2.9371489170027565e+00 2.5508284790258005e+00 0 0 0
204 15 2 2.8000000000000003e-01 4.9704189533377301e+00 2.9409697656161793e+00 3.5829037697081714e+00 0 0 0
209 15 7 -1.0000000000000001e-01 2.7025311571183148e+00 1.9564742009429914e+00 2.6037736530773450e+00 0 0 0
210 15 4 1.0000000000000001e-01 2.5059366522203246e+00 2.5568591546146791e+00 3.5045342816174929e+00 0 0 0
211 15 10 -2.9999999999999999e-01 1.4022527387185690e+00 1.8229799107844389e+00 1.8192321765864141e+00 0 0 0
212 15 4 1.0000000000000001e-01 6.1548521203423290e-01 1.3367033417438625e+00 2.4230628414488251e+00 0 0 0
215 15 10 -2.9999999999999999e-01 3.1677672631372467e+00 5.5830994791190980e-01 3.0016332428944263e+00 0 0 0
216 15 4 1.0000000000000001e-01 3.3486150753908901e+00 -6.8422585897727400e-02 2.1060881041074611e+00 0 0 0
217 15 4 1.0000000000000001e-01 4.1085315148130874e+00 5.9821299638411674e-01 3.5803975018839158e+00 0 0 0
218 15 4 1.0000000000000001e-01 2.4108583118150699e+00 4.4067379750371213e-02 3.6236023460415474e+00 0 0 0
220 16 2 2.8000000000000003e-01 3.6454264173357651e+00 4.9348085065725344e+00 2.6881746339606556e+00 0 0 0
225 16 12 -2.9999999999999999e-01 3.0362960092386753e+00 7.3456477657790940e+00 2.2185022481353971e+00 0 0 0
226 16 4 1.0000000000000001e-01 2.4203788603312089e+00 7.0588968428642298e+00 3.0902444718051476e+00 0 0 0
227 16 4 1.0000000000000001e-01 4.0784261335735970e+00 7.3611294947417862e+00 2.5736490334070488e+00 0 0 0
373 26 4 1.0000000000000001e-01 5.2013003451587156e+00 9.7079064192740994e+00 3.2658476794180471e+00 0 0 0
408 29 16 0.0000000000000000e+00 -2.3578063400153018e-01 1.0035283867704553e+01 5.3589794153200057e+00 0 0 0
411 29 16 -1.0000000000000001e-01 1.3283792630031871e-01 8.7357991941844624e+00 5.1094418110267359e+00 0 0 0
412 29 4 1.0000000000000001e-01 1.1906836659709390e+00 8.5230864765340435e+00 4.8728154902333216e+00 0 0 0
413 29 16 -1.0000000000000001e-01 -2.4517655119778357e+00 9.3274597987525105e+00 5.6639908077230476e+00 0 0 0
414 29 4 1.0000000000000001e-01 -3.5035758140369437e+00 9.5524213471972033e+00 5.8761283201277745e+00 0 0 0
415 29 16 -1.0000000000000001e-01 -7.8354017224014849e-01 7.7562805885747048e+00 5.1604909697417778e+00 0 0 0
416 29 4 1.0000000000000001e-01 -5.2000645415767410e-01 6.7041580451204323e+00 4.9812910231529104e+00 0 0 0
417 29 16 2.9999999999999999e-02 -2.1035299354353509e+00 8.0488557792725786e+00 5.4319428889261445e+00 0 0 0
418 29 8 -3.8000000000000000e-01 -3.0876971994623332e+00 7.0917479481180550e+00 5.4523675442476334e+00 0 0 0
419 29 9 3.4999999999999998e-01 -3.9697544637565092e+00 7.5002794069280734e+00 5.4738729319957473e+00 0 0 0
422 30 3 1.2000000000000000e-01 2.9839738040415127e+00 9.9794447504038928e+00 8.9352577869563810e+00 0 0 0
423 30 4 1.0000000000000001e-01 2.1144798816685832e+00 9.3748961837152258e+00 9.2364301783402016e+00 0 0 0
425 30 6 -3.8000000000000000e-01 3.7768352909594198e+00 9.7406772700553965e+00 1.1175492462359450e+01 0 0 0
426 30 7 -7.0000000000000007e-02 4.0833607083028634e+00 9.1438262731886386e+00 8.2517263305487809e+00 0 0 0
427 30 4 1.0000000000000001e-01 4.5084919983799603e+00 8.4339553224539792e+00 8.9785462435147689e+00 0 0 0
428 30 8 -3.8000000000000000e-01 5.1386234821014831e+00 1.0007544370153404e+01 7.8197267486913571e+00 0 0 0
430 30 10 -2.9999999999999999e-01 3.5018856448437243e+00 8.3572535334753262e+00 7.0673046296644442e+00 0 0 0
431 30 4 1.0000000000000001e-01 4.2736621653380977e+00 7.7581223451892729e+00 6.5645130883649170e+00 0 0 0
432 30 4 1.0000000000000001e-01 2.7084757632490390e+00 7.6478884007916053e+00 7.3854274286156754e+00 0 0 0
433 30 4 1.0000000000000001e-01 3.0628331867752698e+00 9.0212609479768897e+00 6.3017668870007926e+00 0 0 0
22 2 6 -3.8000000000000000e-01 1.4993651586453076e+01 9.8845922660456296e+00 7.4368491574664617e+00 0 0 0
25 2 8 -3.8000000000000000e-01 1.3295491273276362e+01 9.4265072670361221e+00 4.9046080876329645e+00 0 0 0
26 2 9 3.4999999999999998e-01 1.2596902690907648e+01 8.8721779842778581e+00 4.5336751793163730e+00 0 0 0
34 3 4 1.0000000000000001e-01 1.4249985853173385e+01 9.7672601577692841e+00 9.7727087198997324e+00 0 0 0
41 4 11 -5.0000000000000000e-01 1.2017068891358374e+01 9.2844829004716072e+00 1.0933575634827701e+01 0 0 0
42 4 2 2.8000000000000003e-01 1.2771670095995207e+01 8.5815219152255668e+00 1.1057719996769714e+01 0 0 0
43 4 3 1.2000000000000000e-01 1.0660863950532194e+01 8.9997086904836152e+00 1.1384700381291188e+01 0 0 0
44 4 4 1.0000000000000001e-01 1.0035918197388469e+01 9.8459516677207297e+00 1.1129709343419242e+01 0 0 0
47 4 12 -2.9999999999999999e-01 1.0078017144594915e+01 7.7681975355215904e+00 1.0711003950170250e+01 0 0 0
48 4 4 1.0000000000000001e-01 1.0740939621354880e+01 6.9083901980347333e+00 1.0893939374946880e+01 0 0 0
49 4 4 1.0000000000000001e-01 9.1163113927902977e+00 7.5103486513595366e+00 1.1183329139145064e+01 0 0 0
50 4 13 1.0000000000000001e-01 9.8016625095986321e+00 8.0138103130990075e+00 8.9487920088591277e+00 0 0 0
81 7 6 -3.8000000000000000e-01 7.6502619450487446e+00 2.0198235583153421e+00 1.1273665179165734e+01 0 0 0
113 9 3 1.2000000000000000e-01 5.5950855244830260e+00 5.7331207385770311e+00 1.1081071792051954e+01 0 0 0
115 9 5 3.8000000000000000e-01 6.4723011279663796e+00 5.5317304023369198e+00 9.8488597967879841e+00 0 0 0
116 9 6 -3.8000000000000000e-01 6.0602897702709928e+00 5.9303125062202202e+00 8.7635908478062507e+00 0 0 0
118 9 4 1.0000000000000001e-01 5.9523415654668446e+00 7.8814194178236185e+00 1.1268112615359041e+01 0 0 0
121 10 11 -5.0000000000000000e-01 7.6287817495258610e+00 4.8902987947916721e+00 9.9959073900114088e+00 0 0 0
122 10 2 2.8000000000000003e-01 7.9457211684599534e+00 4.6594358388121675e+00 1.0946649582857630e+01 0 0 0
123 10 3 1.2000000000000000e-01 8.4724273053758914e+00 4.6083110663431306e+00 8.8341190094944650e+00 0 0 0
124 10 4 1.0000000000000001e-01 8.6726232127096150e+00 5.5566369754546709e+00 8.3129145501171351e+00 0 0 0
125 10 5 3.8000000000000000e-01 7.7962154664001684e+00 3.6144022259661517e+00 7.8955187814022301e+00 0 0 0
126 10 6 -3.8000000000000000e-01 7.8766261586077944e+00 3.7689954430303261e+00 6.6736259434046801e+00 0 0 0
127 10 12 -2.0000000000000001e-01 9.8086864338141009e+00 4.0413949675324368e+00 9.3050219763850706e+00 0 0 0
128 10 4 1.1000000000000000e-01 1.0315497401574804e+01 4.7835991981474981e+00 9.9472344230576386e+00 0 0 0
129 10 4 1.1000000000000000e-01 9.6085045850952859e+00 3.1787307448485582e+00 9.9626490528302938e+00 0 0 0
130 10 12 -2.0000000000000001e-01 1.0742306232328675e+01 3.6100615575338297e+00 8.1603250365483095e+00 0 0 0
131 10 4 1.3000000000000000e-01 1.1637179326472824e+01 3.1183256039755212e+00 8.5925784023559970e+00 0 0 0
132 10 4 1.3000000000000000e-01 1.0209673142524810e+01 2.8697100602171379e+00 7.5372881249188337e+00 0 0 0
133 10 12 -1.6000000000000000e-01 1.1241042897158300e+01 4.7331430858332419e+00 7.2477270112719543e+00 0 0 0
134 10 4 1.3000000000000000e-01 1.1790719973908548e+01 4.2985998981739328e+00 6.3950541433800057e+00 0 0 0
135 10 4 1.3000000000000000e-01 1.0392317895471248e+01 5.3218297513394246e+00 6.8815333161987793e+00 0 0 0
136 10 11 -5.6000000000000005e-01 1.2134275531789880e+01 5.5862978624186015e+00 7.9947770643582494e+00 0 0 0
137 10 14 3.8000000000000000e-01 1.2756336910141625e+01 6.6123472235690928e+00 7.4444129827118317e+00 0 0 0
138 10 15 -5.6000000000000005e-01 1.2532322855362224e+01 6.9253254583676176e+00 6.1531314037786942e+00 0 0 0
139 10 2 2.8000000000000003e-01 1.1881055883565031e+01 6.3544830713580955e+00 5.6084835919621518e+00 0 0 0
140 10 2 2.8000000000000003e-01 1.3032947764141330e+01 7.7354189704692651e+00 5.7649440624247363e+00 0 0 0
141 10 15 -5.6000000000000005e-01 1.3602068754705298e+01 7.3239185612004309e+00 8.1872987992676336e+00 0 0 0
142 10 2 2.8000000000000003e-01 1.3737008528026278e+01 7.0388183837024441e+00 9.1935206310256312e+00 0 0 0