LAMMPS data file via write_data, version 24 Oct 2015-ICMS, timestep = 8

642 atoms
19 atom types
652 bonds
39 bond types
1181 angles
92 angle types
1741 dihedrals
154 dihedral types
123 impropers
14 improper types

-4.5164623260000001e+00 2.4921899796000002e+01 xlo xhi
-1.9334226850000000e+00 2.2266929626000000e+01 ylo yhi
-7.9219999310000002e+00 2.1079420089999999e+01 zlo zhi

Masses

1 14.0067
2 1.00797
3 12.0112
4 1.00797
5 12.0112
6 15.9994
7 12.0112
8 15.9994
9 1.00797
10 12.0112
11 14.0067
12 12.0112
13 32.064
14 12.0112
15 14.0067
16 12.0112
17 12.0112
18 12.0112
19 15.9994

Pair Coeffs # lj/cut/coul/cut

1 0.167 3.50123
2 0 0
3 0.039 3.87541
4 0.038 2.44997
5 0.148 3.61705
6 0.228 2.85978
7 0.039 3.87541
8 0.228 2.85978
9 0 0
10 0.039 3.87541
11 0.167 3.50123
12 0.039 3.87541
13 0.0429759 3.36775
14 0.148 3.61705
15 0.167 3.50123
16 0.148 3.61705
17 0.039 3.87541
18 0.148 3.61705
19 0.228 2.85978

Bond Coeffs # harmonic

1 356.599 1.47
2 457.459 1.026
3 283.092 1.52
4 322.716 1.526
5 340.618 1.105
6 615.322 1.23
7 388 1.32
8 322.716 1.526
9 384 1.42
10 340.618 1.105
11 540.634 0.96
12 340.618 1.105
13 377.575 1.46
14 483.451 1.026
15 322.716 1.526
16 228 1.8
17 340.618 1.105
18 180 2
19 377.575 1.46
20 322.716 1.526
21 384 1.42
22 322.716 1.526
23 322.716 1.526
24 322.716 1.526
25 388 1.32
26 388 1.32
27 457.459 1.026
28 283.092 1.52
29 388 1.32
30 283.092 1.51
31 480 1.34
32 363.416 1.08
33 377.575 1.46
34 283.092 1.52
35 340.618 1.105
36 400 1.37
37 384 1.37
38 283.092 1.52
39 540 1.25

Angle Coeffs # harmonic

1 41.6 110
2 36 105.5
3 46.6 110.5
4 50 109.5
5 45 109.5
6 50 109.5
7 44.4 110
8 57.3 109.5
9 68 120
10 68 120
11 53.5 114.1
12 70 109.5
13 46.6 110.5
14 44.4 110
15 70 109.5
16 57 109.5
17 44.4 110
18 58.5 106
19 44.4 110
20 39.5 106.4
21 111 118
22 35 122
23 37.5 115
24 50 109.5
25 50 109.5
26 51.5 109.5
27 46.6 110.5
28 50 109.5
29 44.4 110
30 62 109
31 45 109
32 44.4 110
33 39.5 106.4
34 75 109.5
35 37 120
36 111 118
37 50 109.5
38 51.5 109.5
39 44.4 110
40 46.6 110.5
41 46.6 110.5
42 70 109.5
43 57 109.5
44 58.5 106
45 46.6 110.5
46 46.6 110.5
47 44.4 110
48 46.6 110.5
49 44.4 110
50 44.4 110
51 44.4 110
52 46.6 110.5
53 46.6 110.5
54 50 109.5
55 44.4 110
56 44.4 110
57 111 118
58 102 120
59 102 120
60 37.5 115
61 33 125
62 46.6 110.5
63 45 109.5
64 68 120
65 68 120
66 53.5 114.1
67 37.5 115
68 46.6 110.5
69 44.4 110
70 90 120
71 44.2 120
72 37 120
73 46.6 110.5
74 111 118
75 35 122
76 50 109.5
77 45 109.5
78 51.5 109.5
79 39.5 106.4
80 68 120
81 53.5 114.1
82 46.6 110.5
83 145 123
84 122.8 110
85 50 112
86 60 120
87 50 109
88 46.6 110.5
89 50 109.5
90 45 109.5
91 145 123
92 68 120

Dihedral Coeffs # harmonic

1 0.0889 1 3
2 0.0889 1 3
3 0.0889 1 3
4 0 1 0
5 0 1 0
6 0 1 0
7 0 1 0
8 0 1 0
9 0 1 0
10 0.1581 1 3
11 0.1581 1 3
12 0.1581 1 3
13 0.1581 1 3
14 0.1581 1 3
15 0.1581 1 3
16 0.1581 1 3
17 0.1581 1 3
18 0.1581 1 3
19 3.8 -1 2
20 1.8 -1 2
21 3.2 -1 2
22 1.2 -1 2
23 0.1581 1 3
24 0.1581 1 3
25 0.1581 1 3
26 0.13 1 3
27 0.13 1 3
28 0.13 1 3
29 0 1 0
30 0 1 0
31 0 1 0
32 0 1 0
33 0 1 0
34 0 1 0
35 0 1 0
36 0 1 0
37 0.1581 1 3
38 0.1581 1 3
39 0.1581 1 3
40 0 1 0
41 0 1 0
42 0 1 0
43 0 1 0
44 0.1581 1 3
45 0.1581 1 3
46 0.1581 1 3
47 0.1581 1 3
48 0.1581 1 3
49 0.1581 1 3
50 0.14 1 3
51 0.14 1 3
52 5.5 1 2
53 3.8 -1 2
54 3.2 -1 2
55 0 1 0
56 0 1 0
57 0 1 0
58 0 1 0
59 0 1 0
60 0 1 0
61 0 1 0
62 0.1581 1 3
63 0.1581 1 3
64 0.1581 1 3
65 0.1581 1 3
66 0.1581 1 3
67 0.1581 1 3
68 0.1581 1 3
69 0.1581 1 3
70 0.1581 1 3
71 0.1581 1 3
72 0.1581 1 3
73 0.1581 1 3
74 0.13 1 3
75 0.13 1 3
76 0.1581 1 3
77 0.1581 1 3
78 0.1581 1 3
79 0.1581 1 3
80 0.1581 1 3
81 0.1581 1 3
82 0.1581 1 3
83 0.1581 1 3
84 0.1581 1 3
85 0.1581 1 3
86 0.1581 1 3
87 0.1581 1 3
88 0.1581 1 3
89 0 1 0
90 0 1 0
91 0 1 0
92 0 1 0
93 0.1581 1 3
94 0.1581 1 3
95 0.1581 1 3
96 0 1 0
97 0 1 0
98 3.4 -1 2
99 3.4 -1 2
100 3.4 -1 2
101 0.1581 1 3
102 0.1581 1 3
103 0.1581 1 3
104 0 1 0
105 0 1 0
106 0 1 0
107 0 1 0
108 1.5 -1 2
109 1.5 -1 2
110 0.1581 1 3
111 0.1581 1 3
112 0.1581 1 3
113 0 1 2
114 0 1 2
115 3 -1 2
116 3 -1 2
117 3 -1 2
118 3 -1 2
119 3 -1 2
120 0.1581 1 3
121 0.1581 1 3
122 0.1581 1 3
123 0.1581 1 3
124 0.1581 1 3
125 3.8 -1 2
126 3.2 -1 2
127 0 1 0
128 0 1 0
129 0 1 0
130 0 1 0
131 0 1 0
132 0 1 0
133 0 1 0
134 0 1 0
135 3.2 -1 2
136 1.2 -1 2
137 0.1581 1 3
138 0.1581 1 3
139 0 1 0
140 0 1 0
141 0 1 0
142 2.25 -1 2
143 2.25 -1 2
144 3 -1 2
145 3 -1 2
146 0.75 -1 2
147 0 1 0
148 0 1 0
149 0 1 0
150 0 1 0
151 0 1 0
152 0 1 0
153 0.1581 1 3
154 0.1581 1 3

Improper Coeffs # cvff

1 10 -1 2
2 0.05 -1 2
3 0.05 -1 2
4 10 -1 2
5 0.05 -1 2
6 10 -1 2
7 0.05 -1 2
8 0.37 -1 2
9 0.37 -1 2
10 0.05 -1 2
11 10 -1 2
12 11.6 -1 2
13 0 -1 2
14 11.6 -1 2

Atoms # full

205 15 3 1.2000000000000000e-01 3.8144583311769811e+00 2.6000660677294904e+00 1.7473919808119163e+00 0 0 0
206 15 4 1.0000000000000001e-01 4.1290269526219516e+00 1.8815113893576583e+00 9.6486434325052906e-01 0 0 0
207 15 5 3.8000000000000000e-01 3.3302253378044013e+00 3.8508811503107405e+00 1.0237197129725530e+00 0 0 0
208 15 6 -3.8000000000000000e-01 2.9008647960374772e+00 3.7858148160767566e+00 -1.2886417409857465e-01 0 0 0
213 15 4 1.0000000000000001e-01 9.6847445422499390e-01 2.7940740020269601e+00 1.5243877794459286e+00 0 0 0
214 15 4 1.0000000000000001e-01 1.5359546949717973e+00 1.2339024827453304e+00 8.9655401160119330e-01 0 0 0
219 16 11 -5.0000000000000000e-01 3.4124484412833378e+00 4.9837449452689393e+00 1.7003223331155644e+00 0 0 0
221 16 3 1.2000000000000000e-01 2.9038901943443927e+00 6.2323227296338333e+00 1.1456947771423405e+00 0 0 0
222 16 4 1.0000000000000001e-01 1.8390250824545316e+00 6.1609586625292527e+00 8.4281590945439211e-01 0 0 0
223 16 5 3.8000000000000000e-01 3.7381976283931366e+00 6.5839513132125473e+00 -6.9456499550597753e-02 0 0 0
224 16 6 -3.8000000000000000e-01 3.2514309989462613e+00 7.2218770413617754e+00 -9.9693647034788468e-01 0 0 0
228 16 13 1.0000000000000001e-01 2.5991616749571484e+00 8.9299002710200082e+00 1.5795481406180978e+00 0 0 0
229 17 11 -5.0000000000000000e-01 4.9890733595755483e+00 6.1730201978988459e+00 -7.8493820383576954e-02 0 0 0
252 18 11 -5.0000000000000000e-01 5.1435203883045393e+00 4.4144834856838733e+00 -2.1399440416911664e+00 0 0 0
253 18 2 2.8000000000000003e-01 4.6649448615765330e+00 4.3298990289493906e+00 -1.2307436414150645e+00 0 0 0
254 18 3 1.2000000000000000e-01 5.0151649527140663e+00 3.4618097561235839e+00 -3.2509058804543103e+00 0 0 0
256 18 5 3.8000000000000000e-01 4.3972949841761899e+00 4.0413776574787574e+00 -4.5351486248379294e+00 0 0 0
257 18 6 -3.8000000000000000e-01 4.9370970266332792e+00 3.7486206443666714e+00 -5.6015398215927306e+00 0 0 0
258 18 12 -2.0000000000000001e-01 4.2123100042304138e+00 2.2021844339937231e+00 -2.8636444200035767e+00 0 0 0
259 18 4 1.0000000000000001e-01 3.2898918870328955e+00 2.4748056832913097e+00 -2.3192646131549326e+00 0 0 0
260 18 4 1.0000000000000001e-01 3.8333286647522424e+00 1.7136736176530845e+00 -3.7842085486269572e+00 0 0 0
261 18 7 -1.0000000000000001e-01 4.9586264612442941e+00 1.1904225218184945e+00 -1.9978182018765056e+00 0 0 0
263 18 10 -2.9999999999999999e-01 3.9404070002086833e+00 1.0740412372781351e-01 -1.6230249313044940e+00 0 0 0
264 18 4 1.0000000000000001e-01 4.3812404900412742e+00 -6.9059185320223104e-01 -9.9943745435143949e-01 0 0 0
265 18 4 1.0000000000000001e-01 3.0888445578131942e+00 5.3112701677527885e-01 -1.0566803372744205e+00 0 0 0
266 18 4 1.0000000000000001e-01 3.5136229350023300e+00 -3.7135484508971645e-01 -2.5222815067500708e+00 0 0 0
271 19 11 -4.1999999999999998e-01 3.3225117346658615e+00 4.8457653050895813e+00 -4.5511922287572997e+00 0 0 0
272 19 3 5.9999999999999998e-02 2.7994115006427189e+00 5.3435982291034030e+00 -5.8124747424111805e+00 0 0 0
273 19 4 1.0000000000000001e-01 2.7891145786362181e+00 4.5559384258329514e+00 -6.5985917904757798e+00 0 0 0
274 19 12 5.9999999999999998e-02 2.3851011392327899e+00 4.9556628255295934e+00 -3.4336661883951245e+00 0 0 0
275 19 4 1.0000000000000001e-01 2.8443942558626270e+00 5.5127918959767532e+00 -2.6120680225476662e+00 0 0 0
276 19 4 1.0000000000000001e-01 2.0796990122150327e+00 3.9673276446582557e+00 -3.0630337398398080e+00 0 0 0
277 19 5 3.8000000000000000e-01 3.5563294854746106e+00 6.5829556473637236e+00 -6.2868885087811650e+00 0 0 0
278 19 6 -3.8000000000000000e-01 3.2995395874490034e+00 7.0565200841069169e+00 -7.3952453529756639e+00 0 0 0
279 19 12 -2.0000000000000001e-01 1.3683063721975146e+00 5.7685207621531962e+00 -5.4761773693004967e+00 0 0 0
280 19 4 1.0000000000000001e-01 1.1480833736537319e+00 6.7841262827182440e+00 -5.8502450211841337e+00 0 0 0
281 19 4 1.0000000000000001e-01 6.5275689868047293e-01 5.0924600473638559e+00 -5.9614379641153450e+00 0 0 0
282 19 12 -2.0000000000000001e-01 1.1817491996257412e+00 5.7107225015884646e+00 -3.9647328018204351e+00 0 0 0
283 19 4 1.0000000000000001e-01 1.1763172516698348e+00 6.7186069578929848e+00 -3.5154613566134980e+00 0 0 0
284 19 4 1.0000000000000001e-01 2.5172149498485857e-01 5.1944457333897951e+00 -3.6672609450551077e+00 0 0 0
285 20 11 -5.0000000000000000e-01 4.4355629370321399e+00 7.1475096900520221e+00 -5.4738953194886237e+00 0 0 0
286 20 2 2.8000000000000003e-01 4.7202120752130270e+00 6.5489316530804826e+00 -4.6832145774688518e+00 0 0 0
289 20 4 1.0000000000000001e-01 5.2300130131413951e+00 8.3148384680066307e+00 -7.1019263454383745e+00 0 0 0
290 20 5 3.8000000000000000e-01 4.9936749747183899e+00 9.4762472736598564e+00 -5.2799070927761438e+00 0 0 0
292 21 11 -5.0000000000000000e-01 4.1975742821913657e+00 9.3940281042381244e+00 -4.2163779196985205e+00 0 0 0
293 21 2 2.8000000000000003e-01 3.8242897949254728e+00 8.4607575413619394e+00 -4.0001186680993115e+00 0 0 0
299 21 4 1.0000000000000001e-01 3.6969607746470614e+00 9.7265322690054550e+00 -1.5636558833304177e+00 0 0 0
300 21 8 -3.8000000000000000e-01 2.0799459671708136e+00 9.1502870093135407e+00 -2.6905700606447516e+00 0 0 0
301 21 9 3.4999999999999998e-01 1.2343709840671440e+00 9.5738302578915366e+00 -2.8421456831586660e+00 0 0 0
374 26 13 1.0000000000000001e-01 4.3041663389854046e+00 9.8805874123747834e+00 1.0793010351704273e+00 0 0 0
194 14 6 -3.8000000000000000e-01 6.2731579134809383e+00 3.1348607910959041e+00 7.4342827066079620e-01 0 0 0
230 17 2 2.8000000000000003e-01 5.2854960514997087e+00 5.7205991604402975e+00 7.9657952206792382e-01 0 0 0
231 17 3 1.2000000000000000e-01 5.8764251606398776e+00 6.5493596170543702e+00 -1.1805700202481115e+00 0 0 0
232 17 4 1.0000000000000001e-01 5.6089464179140132e+00 7.5514254279575637e+00 -1.5799026848450686e+00 0 0 0
233 17 5 3.8000000000000000e-01 5.7677229394026668e+00 5.5699785071742367e+00 -2.3379572199589318e+00 0 0 0
234 17 6 -3.8000000000000000e-01 6.2833927985586024e+00 5.8754628908221953e+00 -3.4130336624703816e+00 0 0 0
235 17 12 -2.0000000000000001e-01 7.3431876399414611e+00 6.5147185006054640e+00 -7.4248383375067928e-01 0 0 0
236 17 4 1.1000000000000000e-01 7.5578571693186847e+00 5.5548815253238581e+00 -2.3820197917583241e-01 0 0 0
237 17 4 1.1000000000000000e-01 8.0014955723897447e+00 6.5017712974031836e+00 -1.6297825328120417e+00 0 0 0
238 17 12 -2.0000000000000001e-01 7.6977662021609383e+00 7.6901407262701191e+00 1.6929551347922625e-01 0 0 0
239 17 4 1.3000000000000000e-01 6.9003802216206820e+00 7.8530591513854437e+00 9.1491192622213413e-01 0 0 0
240 17 4 1.3000000000000000e-01 8.5821747279577831e+00 7.4240964780087415e+00 7.6784070448803576e-01 0 0 0
241 17 12 -1.6000000000000000e-01 7.9739484451769878e+00 8.9543894575203726e+00 -6.5030561825802846e-01 0 0 0
242 17 4 1.3000000000000000e-01 7.1478813295295192e+00 9.1124486680134904e+00 -1.3512372639273535e+00 0 0 0
243 17 4 1.3000000000000000e-01 7.9695151240339328e+00 9.8274755824630660e+00 1.7507283933932104e-02 0 0 0
244 17 11 -5.6000000000000005e-01 9.2740932605891846e+00 8.8640337536162317e+00 -1.3215825853104268e+00 0 0 0
245 17 14 3.8000000000000000e-01 9.5668954366689576e+00 9.5871330388600224e+00 -2.4016951000416391e+00 0 0 0
249 17 15 -5.6000000000000005e-01 1.0802992211946080e+01 9.5136932773740028e+00 -2.8819960850200190e+00 0 0 0
250 17 2 2.8000000000000003e-01 1.1426308250046382e+01 8.8299148456559724e+00 -2.4230913017726960e+00 0 0 0
251 17 2 2.8000000000000003e-01 1.1041504937356795e+01 1.0053567703991305e+01 -3.7258680715017505e+00 0 0 0
255 18 4 1.0000000000000001e-01 6.0434440132105625e+00 3.1844953969458665e+00 -3.5639900505297328e+00 0 0 0
262 18 4 1.0000000000000001e-01 5.3185585673028442e+00 1.6855261765771123e+00 -1.0822597564055876e+00 0 0 0
267 18 10 -2.9999999999999999e-01 6.1321398450100508e+00 5.7219379812550586e-01 -2.7652014095253157e+00 0 0 0
268 18 4 1.0000000000000001e-01 5.8090954548346732e+00 1.2917619719108484e-01 -3.7264380041059662e+00 0 0 0
269 18 4 1.0000000000000001e-01 6.9198448692584549e+00 1.3144038887929785e+00 -2.9980851740415013e+00 0 0 0
270 18 4 1.0000000000000001e-01 6.6419995146504700e+00 -2.0838149232538691e-01 -2.1745991897602472e+00 0 0 0
287 20 17 2.0000000000000000e-02 5.3219132874219879e+00 8.1834655507295526e+00 -6.0037477014722587e+00 0 0 0
288 20 4 1.0000000000000001e-01 6.3822010384051451e+00 7.9125296991282426e+00 -5.8519414649708832e+00 0 0 0
294 21 3 1.2000000000000000e-01 3.7619407516288943e+00 1.0604110407923145e+01 -3.5168540036682820e+00 0 0 0
295 21 4 1.0000000000000001e-01 3.0885786907501234e+00 1.1143894436057991e+01 -4.2030664066992136e+00 0 0 0
296 21 5 3.8000000000000000e-01 5.0001680307480312e+00 1.1391279764418330e+01 -3.0437695045540147e+00 0 0 0
298 21 7 -7.0000000000000007e-02 2.9829630144353136e+00 1.0163251445042693e+01 -2.2827982401878670e+00 0 0 0
302 21 10 -2.9999999999999999e-01 2.2506571350638587e+00 1.1310495373848944e+01 -1.5802668398598261e+00 0 0 0
303 21 4 1.0000000000000001e-01 1.7363468125719668e+00 1.0980258744631778e+01 -6.5658844334897737e-01 0 0 0
304 21 4 1.0000000000000001e-01 2.9710461742243366e+00 1.2085296034035553e+01 -1.2420926451835332e+00 0 0 0
305 21 4 1.0000000000000001e-01 1.5123742266845639e+00 1.1814043965925640e+01 -2.2281028659029949e+00 0 0 0
306 22 11 -4.1999999999999998e-01 5.0280043192235029e+00 1.2738110537773947e+01 -3.1380184719527597e+00 0 0 0
309 22 12 5.9999999999999998e-02 3.9823470833852705e+00 1.3531702045951988e+01 -3.8036897524882383e+00 0 0 0
310 22 4 1.0000000000000001e-01 3.1019397047187165e+00 1.3586525280510864e+01 -3.1418165600767831e+00 0 0 0
311 22 4 1.0000000000000001e-01 3.6772832861205562e+00 1.3105603239331028e+01 -4.7752238041122448e+00 0 0 0
315 22 4 1.0000000000000001e-01 5.2660114673423717e+00 1.5382023350474451e+01 -2.0042794291958743e+00 0 0 0
317 22 12 -2.0000000000000001e-01 4.6459580835882033e+00 1.4890081097695619e+01 -4.0080558217110989e+00 0 0 0
318 22 4 1.0000000000000001e-01 3.9012345410640132e+00 1.5697483996961951e+01 -3.9694143963643982e+00 0 0 0
319 22 4 1.0000000000000001e-01 5.0999870731316195e+00 1.4905406974555389e+01 -5.0111815811866149e+00 0 0 0
346 25 11 -5.0000000000000000e-01 4.4524956736415282e+00 1.5292139526425538e+01 1.3976942194255344e+00 0 0 0
347 25 2 2.8000000000000003e-01 4.9019844581214809e+00 1.5108776610367469e+01 4.9284143608159470e-01 0 0 0
352 25 7 -1.0000000000000001e-01 2.2044313792384735e+00 1.4674531474324281e+01 5.0377135200789624e-01 0 0 0
353 25 4 1.0000000000000001e-01 2.8003893844897019e+00 1.4097049279212072e+01 -2.2804523502458016e-01 0 0 0
354 25 12 -2.0000000000000001e-01 1.8243750684707045e+00 1.6031642708128047e+01 -1.1153804306455192e-01 0 0 0
355 25 4 1.0000000000000001e-01 2.7286855560328735e+00 1.6664167354251767e+01 -2.2730779500104328e-01 0 0 0
356 25 4 1.0000000000000001e-01 1.4416848283479946e+00 1.5880178770613840e+01 -1.1389891665362557e+00 0 0 0
357 25 10 -2.9999999999999999e-01 9.2643275369708811e-01 1.3865722488008471e+01 8.0646234284529850e-01 0 0 0
358 25 4 1.0000000000000001e-01 2.9735775120084368e-01 1.3749356849939771e+01 -9.6540378146520292e-02 0 0 0
359 25 4 1.0000000000000001e-01 1.1421117203981073e+00 1.2837429085832730e+01 1.1563085746929231e+00 0 0 0
360 25 4 1.0000000000000001e-01 3.1793141334448849e-01 1.4306969970318098e+01 1.6148779613132602e+00 0 0 0
361 25 10 -2.9999999999999999e-01 7.6354769685589385e-01 1.6781414745406021e+01 7.1767381223202997e-01 0 0 0
363 25 4 1.0000000000000001e-01 5.4171938246103568e-01 1.7766159193010836e+01 2.7498690086652311e-01 0 0 0
364 25 4 1.0000000000000001e-01 -2.0621960584158600e-01 1.6257918289145522e+01 7.6849683043416972e-01 0 0 0
366 26 2 2.8000000000000003e-01 4.6245097326947855e+00 1.2979352709206575e+01 1.5106521164335835e+00 0 0 0
246 17 15 -5.6000000000000005e-01 8.6751706964624340e+00 1.0386443025121846e+01 -2.9765185355163890e+00 0 0 0
247 17 2 2.8000000000000003e-01 7.6959376816379850e+00 1.0346556732745066e+01 -2.6513273893121538e+00 0 0 0
248 17 2 2.8000000000000003e-01 8.9377092967727485e+00 1.0869973214572823e+01 -3.8390491004377676e+00 0 0 0
291 20 6 -3.8000000000000000e-01 5.4526296965156327e+00 1.0543646636472877e+01 -5.6993987752028854e+00 0 0 0
297 21 6 -3.8000000000000000e-01 5.9350682907690269e+00 1.0762199765006272e+01 -2.5481559031212058e+00 0 0 0
307 22 3 5.9999999999999998e-02 6.1711634164484686e+00 1.3513160441804461e+01 -2.7135114101522286e+00 0 0 0
308 22 4 1.0000000000000001e-01 7.0667468265355682e+00 1.3267497783548524e+01 -3.3265116526770138e+00 0 0 0
312 22 5 3.8000000000000000e-01 6.4225778297341556e+00 1.3276442919091306e+01 -1.2387823621003016e+00 0 0 0
313 22 6 -3.8000000000000000e-01 5.4949510451547781e+00 1.3026982388325283e+01 -4.6947842400282802e-01 0 0 0
314 22 12 -2.0000000000000001e-01 5.7079971388906969e+00 1.4962563356707033e+01 -2.9225417719368942e+00 0 0 0
316 22 4 1.0000000000000001e-01 6.5275390603963501e+00 1.5628227336555611e+01 -3.2224507867101795e+00 0 0 0
320 23 11 -5.0000000000000000e-01 7.6908560189923127e+00 1.3413789943925172e+01 -8.6802582309448162e-01 0 0 0
321 23 2 2.8000000000000003e-01 8.3531046775956277e+00 1.3446419480063732e+01 -1.6506167873187680e+00 0 0 0
322 23 3 1.2000000000000000e-01 8.1101112665743607e+00 1.3104585957805289e+01 4.9749399137155120e-01 0 0 0
323 23 4 1.0000000000000001e-01 7.8054183035404048e+00 1.2073061046446165e+01 7.8635803059818743e-01 0 0 0
324 23 5 3.8000000000000000e-01 7.4106277347754332e+00 1.4075919110970787e+01 1.4272867309098789e+00 0 0 0
326 23 12 -2.0000000000000001e-01 9.6223258971255881e+00 1.3287465866431658e+01 6.5323992085793714e-01 0 0 0
327 23 4 1.0000000000000001e-01 9.9528023228541525e+00 1.4239698332473919e+01 2.0496417239975281e-01 0 0 0
328 23 4 1.0000000000000001e-01 9.8611100843374402e+00 1.3347100158036362e+01 1.7275117381782157e+00 0 0 0
329 23 12 -2.0000000000000001e-01 1.0379735931319628e+01 1.2124303085472429e+01 4.6448140279698374e-02 0 0 0
330 23 4 1.0000000000000001e-01 9.9941038103747246e+00 1.1180358481560075e+01 4.4029499718306891e-01 0 0 0
331 23 4 1.0000000000000001e-01 1.0253667996382301e+01 1.2085409394229808e+01 -1.0365868934910036e+00 0 0 0
332 23 5 3.8000000000000000e-01 1.1855280612175054e+01 1.2225715598839548e+01 3.9257542822563274e-01 0 0 0
333 23 6 -3.4999999999999998e-01 1.2420060642570794e+01 1.3275652632465800e+01 7.0030535826657303e-01 0 0 0
334 23 8 -3.8000000000000000e-01 1.2484215740847498e+01 1.1012432242310579e+01 3.2558989519976833e-01 0 0 0
335 23 9 3.4999999999999998e-01 1.1905323430464902e+01 1.0267401442628010e+01 9.2625867644525101e-02 0 0 0
336 24 11 -5.0000000000000000e-01 7.1374079402645174e+00 1.5294618050184345e+01 9.6940646724767754e-01 0 0 0
337 24 2 2.8000000000000003e-01 7.4707375001178491e+00 1.5485662671167610e+01 1.4627453465811386e-02 0 0 0
342 24 10 -2.9999999999999999e-01 6.5852636983116861e+00 1.7667182384161993e+01 1.2508085956706090e+00 0 0 0
344 24 4 1.0000000000000001e-01 7.5951369556618653e+00 1.7977877857734345e+01 9.4156799666514968e-01 0 0 0
345 24 4 1.0000000000000001e-01 5.9282685014641121e+00 1.7697089598042332e+01 3.6746119455060650e-01 0 0 0
100 8 6 -3.8000000000000000e-01 4.6631979917697350e+00 3.2711089563722444e+00 1.0355984560689398e+01 0 0 0
114 9 4 1.0000000000000001e-01 4.5523420829644490e+00 5.8736436081072485e+00 1.0743930154799516e+01 0 0 0
149 11 6 -3.8000000000000000e-01 5.1799276482116916e+00 2.0066612999826856e+00 5.6062664557384512e+00 0 0 0
151 11 4 1.0000000000000001e-01 5.2430043287134813e+00 8.5715167243982882e-01 9.1847539406615315e+00 0 0 0
155 12 11 -5.0000000000000000e-01 4.7105936399357509e+00 3.2422622437530983e+00 7.4103886854375203e+00 0 0 0
156 12 2 2.8000000000000003e-01 4.9142826252547609e+00 3.3008387095702227e+00 8.4216902187727971e+00 0 0 0
157 12 3 1.2000000000000000e-01 3.5788766190682519e+00 3.8830348013043157e+00 6.7529424654098689e+00 0 0 0
158 12 4 1.0000000000000001e-01 2.9492373757935648e+00 3.1301566480548955e+00 6.2309141691807683e+00 0 0 0
159 12 5 3.8000000000000000e-01 4.1449234537863342e+00 4.8306342619268596e+00 5.7079677934989803e+00 0 0 0
160 12 6 -3.8000000000000000e-01 3.5148494140877915e+00 5.0433717082623328e+00 4.6690076613820164e+00 0 0 0
161 12 12 -2.0000000000000001e-01 2.7052859422261104e+00 4.6812612442438182e+00 7.7333267351082844e+00 0 0 0
162 12 4 1.0000000000000001e-01 3.3454400159728817e+00 5.3325628047611113e+00 8.3572825077153627e+00 0 0 0
163 12 4 1.0000000000000001e-01 2.0589476955262174e+00 5.3619418321230325e+00 7.1474188767527371e+00 0 0 0
164 12 5 3.8000000000000000e-01 1.8230514527517083e+00 3.7823751480897392e+00 8.6063082703790581e+00 0 0 0
165 12 6 -3.8000000000000000e-01 1.5022848056248548e+00 2.6446350704665442e+00 8.2727735751645533e+00 0 0 0
166 12 15 -5.6000000000000005e-01 1.3888178500798063e+00 4.2692582195715509e+00 9.7507791097159355e+00 0 0 0
167 12 2 2.8000000000000003e-01 1.6847879023931127e+00 5.2220230560018308e+00 9.9903232041163861e+00 0 0 0
168 12 2 2.8000000000000003e-01 8.2545215108454328e-01 3.6293555935135400e+00 1.0320949047039015e+01 0 0 0
169 13 11 -5.0000000000000000e-01 5.3112240483969648e+00 5.3923416376411968e+00 5.9816227925271299e+00 0 0 0
172 13 4 1.0000000000000001e-01 5.2343167658716547e+00 7.1410671562823076e+00 4.7443153222142476e+00 0 0 0
203 15 11 -5.0000000000000000e-01 4.9731255005458079e+00 2.9639529292287903e+00 2.5604386023755183e+00 0 0 0
204 15 2 2.8000000000000003e-01 5.0001060653844931e+00 2.9801208594965773e+00 3.5940889161773644e+00 0 0 0
209 15 7 -1.0000000000000001e-01 2.7098402350491853e+00 1.9664477394685351e+00 2.6025907252526466e+00 0 0 0
210 15 4 1.0000000000000001e-01 2.5228108506169225e+00 2.5792802029521864e+00 3.4992339141426565e+00 0 0 0
211 15 10 -2.9999999999999999e-01 1.3956347334102417e+00 1.8170648708275501e+00 1.8243583920892434e+00 0 0 0
212 15 4 1.0000000000000001e-01 6.0979102225103365e-01 1.3238057597222890e+00 2.4237346016382930e+00 0 0 0
215 15 10 -2.9999999999999999e-01 3.1764509270085517e+00 5.6719173002123469e-01 3.0134858931224113e+00 0 0 0
216 15 4 1.0000000000000001e-01 3.3592583951817856e+00 -7.1922673858526215e-02 2.1296940495181014e+00 0 0 0
217 15 4 1.0000000000000001e-01 4.1151060932518631e+00 5.8721140411746986e-01 3.5987728010523266e+00 0 0 0
218 15 4 1.0000000000000001e-01 2.4220106831584900e+00 4.9332078167406389e-02 3.6331362051856146e+00 0 0 0
220 16 2 2.8000000000000003e-01 3.6816113660952081e+00 4.8726935584442641e+00 2.6906861322955278e+00 0 0 0
225 16 12 -2.9999999999999999e-01 3.0490761077812372e+00 7.3177225671284987e+00 2.2135153740493689e+00 0 0 0
226 16 4 1.0000000000000001e-01 2.4129799193215642e+00 7.0943620827121023e+00 3.0850228667176269e+00 0 0 0
227 16 4 1.0000000000000001e-01 4.0900892760346048e+00 7.3840011016716183e+00 2.5727042315623461e+00 0 0 0
373 26 4 1.0000000000000001e-01 5.2384751374767076e+00 9.7177552841830099e+00 3.2687926060021768e+00 0 0 0
408 29 16 0.0000000000000000e+00 -2.4524897162609643e-01 1.0046843494334730e+01 5.3765035672552299e+00 0 0 0
411 29 16 -1.0000000000000001e-01 9.7827919197252214e-02 8.7752515820096111e+00 5.1279721947822923e+00 0 0 0
412 29 4 1.0000000000000001e-01 1.1159627035978390e+00 8.5136732816578888e+00 4.8984399829645442e+00 0 0 0
413 29 16 -1.0000000000000001e-01 -2.4427267321412329e+00 9.3311886061477356e+00 5.6520596912584677e+00 0 0 0
414 29 4 1.0000000000000001e-01 -3.4642494500262484e+00 9.5849697079358922e+00 5.8791735392292184e+00 0 0 0
415 29 16 -1.0000000000000001e-01 -8.0411900982836193e-01 7.7944354259650543e+00 5.1630945215886319e+00 0 0 0
416 29 4 1.0000000000000001e-01 -5.0356905617709025e-01 6.7751723238537265e+00 4.9787660048689260e+00 0 0 0
417 29 16 2.9999999999999999e-02 -2.0896558205417191e+00 8.0583697051104650e+00 5.4210798016412358e+00 0 0 0
418 29 8 -3.8000000000000000e-01 -3.0287988766013263e+00 7.0693505015975182e+00 5.4318207359748980e+00 0 0 0
419 29 9 3.4999999999999998e-01 -3.8985373965672929e+00 7.4873200828643016e+00 5.4822844798360304e+00 0 0 0
422 30 3 1.2000000000000000e-01 2.9750284219595819e+00 9.9686160753932072e+00 8.9504451692780513e+00 0 0 0
423 30 4 1.0000000000000001e-01 2.1468857186465571e+00 9.2777660524999703e+00 9.2312563369167790e+00 0 0 0
425 30 6 -3.8000000000000000e-01 3.7961187670744465e+00 9.7873720756696088e+00 1.1192007383901462e+01 0 0 0
426 30 7 -7.0000000000000007e-02 4.0613481825821074e+00 9.1467485297803233e+00 8.2632748732912109e+00 0 0 0
427 30 4 1.0000000000000001e-01 4.4895761059568731e+00 8.4347349032783701e+00 8.9857810429108742e+00 0 0 0
428 30 8 -3.8000000000000000e-01 5.1002777743126231e+00 9.9869884309176520e+00 7.7926944670788023e+00 0 0 0
430 30 10 -2.9999999999999999e-01 3.4794789202988925e+00 8.3940532331513413e+00 7.0816632372745794e+00 0 0 0
431 30 4 1.0000000000000001e-01 4.2686775548652296e+00 7.7999567409551753e+00 6.6103156271109524e+00 0 0 0
432 30 4 1.0000000000000001e-01 2.6947767719155413e+00 7.6837429364379322e+00 7.4037711803301836e+00 0 0 0
433 30 4 1.0000000000000001e-01 3.0563347520654855e+00 9.0438417531191195e+00 6.2954165133561588e+00 0 0 0
22 2 6 -3.8000000000000000e-01 1.5009647686061030e+01 9.9499829093755281e+00 7.4129310374511430e+00 0 0 0
25 2 8 -3.8000000000000000e-01 1.3334801574704018e+01 9.4410908395217934e+00 4.8513373893927394e+00 0 0 0
26 2 9 3.4999999999999998e-01 1.2569304240379939e+01 8.9182954927764033e+00 4.5750588209600478e+00 0 0 0
34 3 4 1.0000000000000001e-01 1.4287587046593574e+01 9.7328309350713234e+00 9.7434194142195931e+00 0 0 0
41 4 11 -5.0000000000000000e-01 1.2032500123586567e+01 9.3078441699491723e+00 1.0961693241698898e+01 0 0 0
42 4 2 2.8000000000000003e-01 1.2783469862634286e+01 8.5914456250018034e+00 1.1050800294996682e+01 0 0 0
43 4 3 1.2000000000000000e-01 1.0653555489704358e+01 9.0210121351778110e+00 1.1372893821558892e+01 0 0 0
44 4 4 1.0000000000000001e-01 1.0017805845195726e+01 9.8592214048327254e+00 1.1090583172853153e+01 0 0 0
47 4 12 -2.9999999999999999e-01 1.0093342853078795e+01 7.7439451686776133e+00 1.0750756841068126e+01 0 0 0
48 4 4 1.0000000000000001e-01 1.0775402035591309e+01 6.8793994148690931e+00 1.0880906266441393e+01 0 0 0
49 4 4 1.0000000000000001e-01 9.1248965498380414e+00 7.4700439636217375e+00 1.1203737559682510e+01 0 0 0
50 4 13 1.0000000000000001e-01 9.7769647828021604e+00 7.9830412213087998e+00 9.0108022693150378e+00 0 0 0
81 7 6 -3.8000000000000000e-01 7.6199740800509765e+00 1.9535109070523380e+00 1.1263313599220860e+01 0 0 0
113 9 3 1.2000000000000000e-01 5.5944577003237992e+00 5.7249461109651811e+00 1.1086463105251953e+01 0 0 0
115 9 5 3.8000000000000000e-01 6.4587359791665930e+00 5.5303736684003901e+00 9.8483871372403211e+00 0 0 0
116 9 6 -3.8000000000000000e-01 6.0924369361923576e+00 5.9745126029805427e+00 8.7640090718412242e+00 0 0 0
118 9 4 1.0000000000000001e-01 5.9647863942124975e+00 7.8685602444725866e+00 1.1252480212492214e+01 0 0 0
121 10 11 -5.0000000000000000e-01 7.5868084061672958e+00 4.8449373214319804e+00 9.9997353556742734e+00 0 0 0
122 10 2 2.8000000000000003e-01 7.8813424226287596e+00 4.6764614850843378e+00 1.0969233825203574e+01 0 0 0
123 10 3 1.2000000000000000e-01 8.4659228884042808e+00 4.6089861431812693e+00 8.8433320506204236e+00 0 0 0
124 10 4 1.0000000000000001e-01 8.6321372256941000e+00 5.5642012988775731e+00 8.3108570141927700e+00 0 0 0
125 10 5 3.8000000000000000e-01 7.7884864907031766e+00 3.6216562282255786e+00 7.8999541948697409e+00 0 0 0
126 10 6 -3.8000000000000000e-01 7.8915959028413187e+00 3.7504185808018180e+00 6.6787008774150056e+00 0 0 0
127 10 12 -2.0000000000000001e-01 9.8206136963296000e+00 4.0420586747324849e+00 9.2886179471587820e+00 0 0 0
128 10 4 1.1000000000000000e-01 1.0341032941633214e+01 4.7771292788349440e+00 9.9284266866536939e+00 0 0 0
129 10 4 1.1000000000000000e-01 9.6408272492564340e+00 3.1731935053839204e+00 9.9408411509963148e+00 0 0 0
130 10 12 -2.0000000000000001e-01 1.0748149542831356e+01 3.6156380638655814e+00 8.1415000090850231e+00 0 0 0
131 10 4 1.3000000000000000e-01 1.1614786044839676e+01 3.1145789112596995e+00 8.6041709698082851e+00 0 0 0
132 10 4 1.3000000000000000e-01 1.0279485505477432e+01 2.8189698804643468e+00 7.5426374437214490e+00 0 0 0
133 10 12 -1.6000000000000000e-01 1.1220592360236706e+01 4.7494480477226029e+00 7.2180128121876939e+00 0 0 0
134 10 4 1.3000000000000000e-01 1.1769808824558716e+01 4.3081956329326569e+00 6.3731600716492709e+00 0 0 0
135 10 4 1.3000000000000000e-01 1.0380742811277837e+01 5.3299572491964415e+00 6.8074088388711136e+00 0 0 0
136 10 11 -5.6000000000000005e-01 1.2102396621636609e+01 5.6069706519728459e+00 7.9881407654373451e+00 0 0 0
137 10 14 3.8000000000000000e-01 1.2741667092522702e+01 6.6156163975610749e+00 7.4303400262718693e+00 0 0 0
138 10 15 -5.6000000000000005e-01 1.2529396940328175e+01 6.9187752012920560e+00 6.1627181423793820e+00 0 0 0
139 10 2 2.8000000000000003e-01 1.1867086213210069e+01 6.3128004110059655e+00 5.6570620253268675e+00 0 0 0
140 10 2 2.8000000000000003e-01 1.3062851569344808e+01 7.7232638932384177e+00 5.7970252780878964e+00 0 0 0
141 10 15 -5.6000000000000005e-01 1.3589626940951213e+01 7.3148492447522928e+00 8.1744337776623937e+00 0 0 0
142 10 2 2.8000000000000003e-01 1.3666570181516613e+01 6.9917626841654537e+00 9.1638209957132997e+00 0 0 0