LAMMPS data file via write_data, version 22 Oct 2015-ICMS, timestep = 9

3200 atoms
2 atom types
3100 bonds
2 bond types
6000 angles
3 angle types
8100 dihedrals
3 dihedral types

5.0600004200000004e-01 7.9334999084000003e+01 xlo xhi
3.0980000500000000e+00 7.9500000000000000e+01 ylo yhi
4.9699997899999998e-01 7.6898002625000004e+01 zlo zhi

Masses

1 12.0112
2 1.00797

Pair Coeffs # lj/cut/coul/cut

1 0.066 3.5
2 0.0300003 2.5

Bond Coeffs # harmonic

1 340 1.09
2 268 1.529

Angle Coeffs # harmonic

1 37.5 110.7
2 33 107.8
3 58.35 112.7

Dihedral Coeffs # opls

1 0 0 0.318 0
2 0 0 0.366 0
3 1.74 -0.157 0.279 0

Atoms # full

1228 39 2 5.9999999999999998e-02 4.5408546833504296e+01 1.0786169131797333e+01 9.7155397139650344e+00 0 0 0
1234 39 2 5.9999999999999998e-02 4.7554901249342088e+01 1.2040881757712278e+01 9.3507106710585735e+00 0 0 0
1240 39 2 5.9999999999999998e-02 4.9700417096929378e+01 1.3295232813673865e+01 8.9872864232663527e+00 0 0 0
1245 39 1 -1.7999999999999999e-01 5.2000203808937812e+01 1.4612047762755420e+01 9.6918774346945540e+00 0 0 0
1246 39 2 5.9999999999999998e-02 5.1872908855536778e+01 1.4570811358003345e+01 8.6108903986995671e+00 0 0 0
1247 39 2 5.9999999999999998e-02 5.2589827017292023e+01 1.3747517090820674e+01 9.9940511752950218e+00 0 0 0
1248 39 2 5.9999999999999998e-02 5.2568518930296520e+01 1.5510198330009642e+01 9.9318732414539603e+00 0 0 0
900 29 2 5.9999999999999998e-02 9.3691135249444883e+00 3.1364442742725281e+01 8.1473195134131178e+00 0 0 0
898 29 2 5.9999999999999998e-02 8.5124276300130894e+00 3.2828147286612449e+01 7.6624654887008257e+00 0 0 0
905 29 2 5.9999999999999998e-02 8.8709661308936258e+00 3.4983161276536045e+01 8.9719642695399173e+00 0 0 0
897 29 1 -1.7999999999999999e-01 9.4402463104342722e+00 3.2450138485071044e+01 8.0897081096984635e+00 0 0 0
899 29 2 5.9999999999999998e-02 1.0251099055816439e+01 3.2700325740019458e+01 7.4068526270110535e+00 0 0 0
901 29 1 -1.2000000000000000e-01 9.6871714224132273e+00 3.3053425405351852e+01 9.4692932703192749e+00 0 0 0
903 29 2 5.9999999999999998e-02 1.0604822848130258e+01 3.2643032296965927e+01 9.8931044265384784e+00 0 0 0
904 29 1 -1.2000000000000000e-01 9.7879077138881065e+00 3.4574356479758954e+01 9.3940492844883146e+00 0 0 0
906 29 2 5.9999999999999998e-02 1.0594060037661293e+01 3.4856495152076477e+01 8.7183329366971485e+00 0 0 0
912 29 2 5.9999999999999998e-02 1.0941619284727610e+01 3.6982811612508804e+01 1.0009801777522000e+01 0 0 0
2274 72 2 5.9999999999999998e-02 2.6732368977847994e+01 3.6729001110234201e+01 2.7577634742101309e+00 0 0 0
2275 72 2 5.9999999999999998e-02 2.6733048308536851e+01 3.6726031925247412e+01 9.9572518375396157e-01 0 0 0
2276 72 2 5.9999999999999998e-02 2.6368921151589475e+01 3.5243514026370136e+01 1.8790044596159967e+00 0 0 0
1537 49 1 -1.7999999999999999e-01 3.1014520628992440e+01 3.9812537372911464e+01 5.5885714732934870e+00 0 0 0
1538 49 2 5.9999999999999998e-02 3.2069460508017038e+01 3.9649747074867626e+01 5.8053053909311148e+00 0 0 0
1539 49 2 5.9999999999999998e-02 3.0622570873085355e+01 3.8906305278657243e+01 5.1286193514786023e+00 0 0 0
1540 49 2 5.9999999999999998e-02 3.0939161082592548e+01 4.0620912414546325e+01 4.8619128714769380e+00 0 0 0
1541 49 1 -1.2000000000000000e-01 3.0244223754540133e+01 4.0150460997227412e+01 6.8619464274939137e+00 0 0 0
1542 49 2 5.9999999999999998e-02 3.0631149020315100e+01 4.1074155129409547e+01 7.2946468523237282e+00 0 0 0
1543 49 2 5.9999999999999998e-02 2.9196643118516750e+01 4.0337098387327316e+01 6.6216143966849010e+00 0 0 0
1544 49 1 -1.2000000000000000e-01 3.0345999601400553e+01 3.9020218481624596e+01 7.8824577688413360e+00 0 0 0
1545 49 2 5.9999999999999998e-02 3.1391895126504281e+01 3.8835129819320677e+01 8.1229862105609811e+00 0 0 0
1546 49 2 5.9999999999999998e-02 2.9958576850052655e+01 3.8098775311826209e+01 7.4500348343486777e+00 0 0 0
1547 49 1 -1.2000000000000000e-01 2.9578788989671580e+01 3.9350288419087853e+01 9.1561490221324426e+00 0 0 0
1548 49 2 5.9999999999999998e-02 2.8531505653611919e+01 3.9532793011880408e+01 8.9187897039373585e+00 0 0 0
1549 49 2 5.9999999999999998e-02 2.9966474252832917e+01 4.0269920543168951e+01 9.5924548412490900e+00 0 0 0
1552 49 2 5.9999999999999998e-02 2.9296566230750482e+01 3.7296106450549146e+01 9.7367809400472325e+00 0 0 0
2273 72 1 -1.7999999999999999e-01 2.6987873664425528e+01 3.6140180146991128e+01 1.8778150321458895e+00 0 0 0
2277 72 1 -1.2000000000000000e-01 2.8470141329919198e+01 3.5778347067667973e+01 1.8792200370818857e+00 0 0 0
2278 72 2 5.9999999999999998e-02 2.8700863765194949e+01 3.5169168451800864e+01 2.7543389655721557e+00 0 0 0
2279 72 2 5.9999999999999998e-02 2.8701628431154020e+01 3.5165432439200849e+01 1.0068578644411375e+00 0 0 0
2280 72 1 -1.2000000000000000e-01 2.9341835064614500e+01 3.7031142519132928e+01 1.8773587951510793e+00 0 0 0
2281 72 2 5.9999999999999998e-02 2.9110889952415636e+01 3.7641534158957171e+01 2.7492782204801909e+00 0 0 0
2282 72 2 5.9999999999999998e-02 2.9111332286205801e+01 3.7637712440496927e+01 1.0026998598833285e+00 0 0 0
2283 72 1 -1.2000000000000000e-01 3.0822786234825355e+01 3.6676737273541200e+01 1.8785752349070879e+00 0 0 0
2284 72 2 5.9999999999999998e-02 3.1056935825483809e+01 3.6068519855966862e+01 1.0058255497425650e+00 0 0 0
2285 72 2 5.9999999999999998e-02 3.1056745902962248e+01 3.6072304720121032e+01 2.7539684692370154e+00 0 0 0
2286 72 1 -1.2000000000000000e-01 3.1687383986125347e+01 3.7931887859008171e+01 1.8751817267342932e+00 0 0 0
2287 72 2 5.9999999999999998e-02 3.1455778409694943e+01 3.8542672231018216e+01 2.7469313133274276e+00 0 0 0
2288 72 2 5.9999999999999998e-02 3.1455648463085776e+01 3.8537713584100473e+01 9.9964215401482581e-01 0 0 0
2289 72 1 -1.2000000000000000e-01 3.3170841495074576e+01 3.7578482657141791e+01 1.8766195158729484e+00 0 0 0
2290 72 2 5.9999999999999998e-02 3.3403140887206412e+01 3.6968578350090134e+01 1.0039726015719921e+00 0 0 0
2291 72 2 5.9999999999999998e-02 3.3402399231286658e+01 3.6972291418288016e+01 2.7520356191735762e+00 0 0 0
2292 72 1 -1.2000000000000000e-01 3.4035245201214813e+01 3.8833698170630328e+01 1.8745311485683986e+00 0 0 0
2293 72 2 5.9999999999999998e-02 3.3800464784265188e+01 3.9441532324527685e+01 2.7473682575156428e+00 0 0 0
2294 72 2 5.9999999999999998e-02 3.3801445892747026e+01 3.9438167712062850e+01 9.9915984435483929e-01 0 0 0
2295 72 1 -1.2000000000000000e-01 3.5516448690382724e+01 3.8479502609095597e+01 1.8752996858275754e+00 0 0 0
2296 72 2 5.9999999999999998e-02 3.5747449969977986e+01 3.7868906542106089e+01 1.0034630155215185e+00 0 0 0
2297 72 2 5.9999999999999998e-02 3.5747246006774745e+01 3.7872812125852917e+01 2.7498693431838417e+00 0 0 0
2298 72 1 -1.2000000000000000e-01 3.6388180640266974e+01 3.9732149636816999e+01 1.8725755010602585e+00 0 0 0
2299 72 2 5.9999999999999998e-02 3.6156685020656973e+01 4.0344831760315891e+01 2.7448625969584017e+00 0 0 0
2300 72 2 5.9999999999999998e-02 3.6157227562799363e+01 4.0341101393690707e+01 9.9749468232552940e-01 0 0 0
2301 72 1 -1.7999999999999999e-01 3.7870487509657089e+01 3.9370308970511473e+01 1.8737336226660692e+00 0 0 0
2302 72 2 5.9999999999999998e-02 3.8126026569289444e+01 3.8781135903708176e+01 9.9397684343141046e-01 0 0 0
2303 72 2 5.9999999999999998e-02 3.8125803220684759e+01 3.8784871150106788e+01 2.7560279926335389e+00 0 0 0
2304 72 2 5.9999999999999998e-02 3.8489263406377432e+01 4.0267162994129883e+01 1.8717410102137213e+00 0 0 0
2638 83 1 -1.2000000000000000e-01 5.7680978017048133e+01 5.9896959037777378e+01 4.5699436146248740e+00 0 0 0
2639 83 2 5.9999999999999998e-02 5.7475878123263499e+01 5.9540237555308551e+01 5.5788500420680194e+00 0 0 0
2640 83 2 5.9999999999999998e-02 5.8748916443797256e+01 6.0108595721164775e+01 4.5251398295939778e+00 0 0 0
2641 83 1 -1.2000000000000000e-01 5.7330583333724888e+01 5.8809139352741411e+01 3.5600088223035504e+00 0 0 0
2642 83 2 5.9999999999999998e-02 5.7535653736400718e+01 5.9166022673527401e+01 2.5509833552075207e+00 0 0 0
2643 83 2 5.9999999999999998e-02 5.6262512740053054e+01 5.8597554806360073e+01 3.6051503742159823e+00 0 0 0
2644 83 1 -1.2000000000000000e-01 5.8121557330478169e+01 5.7534020621996731e+01 3.8279375854929261e+00 0 0 0
2645 83 2 5.9999999999999998e-02 5.7915020101325076e+01 5.7179927626763778e+01 4.8369874214203072e+00 0 0 0
2646 83 2 5.9999999999999998e-02 5.9188472369367652e+01 5.7748303496765956e+01 3.7832083190954724e+00 0 0 0
2647 83 1 -1.2000000000000000e-01 5.7770861742743691e+01 5.6448784756854863e+01 2.8188326072899668e+00 0 0 0
2648 83 2 5.9999999999999998e-02 5.7975183740543692e+01 5.6806594997803273e+01 1.8106606149799804e+00 0 0 0
2649 83 2 5.9999999999999998e-02 5.6703221258161769e+01 5.6238362050026304e+01 2.8640039183634545e+00 0 0 0
2650 83 1 -1.2000000000000000e-01 5.8559988841094281e+01 5.5169095273693713e+01 3.0810731699628136e+00 0 0 0
2651 83 2 5.9999999999999998e-02 5.8356574495371213e+01 5.4810474937453478e+01 4.0910353373591057e+00 0 0 0
2652 83 2 5.9999999999999998e-02 5.9629571265618232e+01 5.5379309509082525e+01 3.0377540236057143e+00 0 0 0
2653 83 1 -1.7999999999999999e-01 5.8204294076519197e+01 5.4086131006216235e+01 2.0665941578906715e+00 0 0 0
2654 83 2 5.9999999999999998e-02 5.8427274016891303e+01 5.4416786192324345e+01 1.0530567030243148e+00 0 0 0
2655 83 2 5.9999999999999998e-02 5.7143644594994804e+01 5.3843178155860841e+01 2.1151146245396344e+00 0 0 0
2656 83 2 5.9999999999999998e-02 5.8769695815027305e+01 5.3174487969365273e+01 2.2573165494046101e+00 0 0 0
2625 83 1 -1.7999999999999999e-01 5.6807504146828570e+01 6.4619571744009690e+01 6.0636769255109888e+00 0 0 0
2626 83 2 5.9999999999999998e-02 5.6584582391366013e+01 6.4288684417894203e+01 7.0771270893484122e+00 0 0 0
2627 83 2 5.9999999999999998e-02 5.7868316502183106e+01 6.4861683508707941e+01 6.0150732858249745e+00 0 0 0
2628 83 2 5.9999999999999998e-02 5.6242835914863150e+01 6.5531689683659565e+01 5.8731508528176741e+00 0 0 0
2629 83 1 -1.2000000000000000e-01 5.6451485739133069e+01 6.3536899553319437e+01 5.0491841398240300e+00 0 0 0
2630 83 2 5.9999999999999998e-02 5.5381869608382338e+01 6.3326813811632647e+01 5.0929538924158519e+00 0 0 0
2631 83 2 5.9999999999999998e-02 5.6654729098636750e+01 6.3895679502900769e+01 4.0391638110557366e+00 0 0 0
2632 83 1 -1.2000000000000000e-01 5.7240367070666601e+01 6.2257037832410781e+01 5.3115867159464436e+00 0 0 0
2633 83 2 5.9999999999999998e-02 5.7035730442504466e+01 6.1899235542197040e+01 6.3196640613191839e+00 0 0 0
2634 83 2 5.9999999999999998e-02 5.8307962663084112e+01 6.2467525613037751e+01 5.2668791259536301e+00 0 0 0
2635 83 1 -1.2000000000000000e-01 5.6889748286922192e+01 6.1171933151957020e+01 4.3022733140732718e+00 0 0 0
2636 83 2 5.9999999999999998e-02 5.7096084730935118e+01 6.1526441683268942e+01 3.2932801898347193e+00 0 0 0
2637 83 2 5.9999999999999998e-02 5.5822830653414158e+01 6.0957464016553459e+01 4.3472169600634549e+00 0 0 0
76 3 2 5.9999999999999998e-02 6.4136773223321313e+01 6.7936564306771530e+01 9.9790745009479895e+00 0 0 0
640 20 2 5.9999999999999998e-02 6.9180481640162981e+01 6.1658386449699115e+01 9.1638921661955397e+00 0 0 0
71 3 2 5.9999999999999998e-02 6.3551467673351091e+01 7.0382799365761386e+01 9.7790595756505585e+00 0 0 0
833 27 1 -1.7999999999999999e-01 2.2034880329274234e+01 1.2136042724619562e+01 1.0916459899864249e+01 0 0 0
834 27 2 5.9999999999999998e-02 2.2680124442706902e+01 1.1883083052258545e+01 1.0076216143401604e+01 0 0 0
835 27 2 5.9999999999999998e-02 2.2464041676912117e+01 1.1693973403617727e+01 1.1814663925924675e+01 0 0 0
836 27 2 5.9999999999999998e-02 2.1061119188178662e+01 1.1678092703771934e+01 1.0745772863728025e+01 0 0 0
1217 39 1 -1.7999999999999999e-01 4.2047034307780514e+01 9.6040950609423916e+00 1.1867120306395556e+01 0 0 0
1218 39 2 5.9999999999999998e-02 4.2174316751902211e+01 9.6450876496335383e+00 1.2948070433277351e+01 0 0 0
1219 39 2 5.9999999999999998e-02 4.1457902455872265e+01 1.0469001671350757e+01 1.1565046459336092e+01 0 0 0
1220 39 2 5.9999999999999998e-02 4.1478238877134622e+01 8.7063816684480582e+00 1.1626911882025942e+01 0 0 0
1221 39 1 -1.2000000000000000e-01 4.3400009009468732e+01 9.5963076784788068e+00 1.1161761083101929e+01 0 0 0
1222 39 2 5.9999999999999998e-02 4.3964550959240391e+01 8.7100617011272146e+00 1.1454992239499838e+01 0 0 0
1223 39 2 5.9999999999999998e-02 4.3253829908521496e+01 9.5265171094350460e+00 1.0082937808371954e+01 0 0 0
1224 39 1 -1.2000000000000000e-01 4.4200466154478384e+01 1.0852318886929545e+01 1.1494494039351911e+01 0 0 0
1226 39 2 5.9999999999999998e-02 4.3636429684041374e+01 1.1736385557424375e+01 1.1200682304768984e+01 0 0 0
1225 39 2 5.9999999999999998e-02 4.4346799601784795e+01 1.0920476215192505e+01 1.2571505418824341e+01 0 0 0
1227 39 1 -1.2000000000000000e-01 4.5552287181702127e+01 1.0851203605969987e+01 1.0793298177299263e+01 0 0 0
1229 39 2 5.9999999999999998e-02 4.6119565777988136e+01 9.9692333802554316e+00 1.1087683272820142e+01 0 0 0
1230 39 1 -1.2000000000000000e-01 4.6346334702383821e+01 1.2107903894424464e+01 1.1130091603040821e+01 0 0 0
1231 39 2 5.9999999999999998e-02 4.6492063692228996e+01 1.2175002872108774e+01 1.2207813860712257e+01 0 0 0
1233 39 1 -1.2000000000000000e-01 4.7700512889136355e+01 1.2107995615241309e+01 1.0428598598044886e+01 0 0 0
1235 39 2 5.9999999999999998e-02 4.8265667234284734e+01 1.1223883119481414e+01 1.0722707413217103e+01 0 0 0
1241 39 2 5.9999999999999998e-02 5.0410652578689643e+01 1.2479300193687143e+01 1.0358512845655428e+01 0 0 0
504 16 2 5.9999999999999998e-02 6.4053553594406523e+01 1.2160331009149653e+01 1.2405733461711758e+01 0 0 0
505 16 2 5.9999999999999998e-02 6.4452552871882460e+01 1.2257086687882140e+01 1.4103235029454300e+01 0 0 0
506 16 1 -1.2000000000000000e-01 6.6132762032238375e+01 1.2566631794153611e+01 1.2792242613341640e+01 0 0 0
509 16 1 -1.7999999999999999e-01 6.6555012143186445e+01 1.1100498661134948e+01 1.2776563690797014e+01 0 0 0
510 16 2 5.9999999999999998e-02 6.5984746464787420e+01 1.0541232332915705e+01 1.2036022370525112e+01 0 0 0
511 16 2 5.9999999999999998e-02 6.6387411804842912e+01 1.0638699633213811e+01 1.3748698040897031e+01 0 0 0
512 16 2 5.9999999999999998e-02 6.7612703183575817e+01 1.1003483932440643e+01 1.2533446373294732e+01 0 0 0
1170 37 2 5.9999999999999998e-02 8.6548914378934434e+00 1.7265828571077055e+01 1.9421738185114268e+01 0 0 0
1171 37 2 5.9999999999999998e-02 9.1766103290527070e+00 1.6429284615565077e+01 1.7978626374779086e+01 0 0 0
1175 37 1 -1.2000000000000000e-01 8.3874554611658603e+00 1.8960279105906526e+01 1.7284617652236257e+01 0 0 0
1176 37 2 5.9999999999999998e-02 7.5734535298970309e+00 1.9035029982492471e+01 1.8004392995933841e+01 0 0 0
1177 37 2 5.9999999999999998e-02 8.0948828365125092e+00 1.8199455785600961e+01 1.6562245214316448e+01 0 0 0
1178 37 1 -1.2000000000000000e-01 8.5732534524829553e+00 2.0299223351695812e+01 1.6576115574632897e+01 0 0 0
1180 37 2 5.9999999999999998e-02 8.8675734177969154e+00 2.1061681270814439e+01 1.7298635692990388e+01 0 0 0
1181 37 1 -1.7999999999999999e-01 7.2928646634780963e+00 2.0727398583756472e+01 1.5865148309135440e+01 0 0 0
1182 37 2 5.9999999999999998e-02 6.4730249010616765e+00 2.0833267982231863e+01 1.6574348455197761e+01 0 0 0
1183 37 2 5.9999999999999998e-02 6.9988855702029342e+00 1.9989951300769285e+01 1.5119394439247280e+01 0 0 0
1184 37 2 5.9999999999999998e-02 7.4296441689740220e+00 2.1683446363447395e+01 1.5360732204161708e+01 0 0 0
1165 37 2 5.9999999999999998e-02 1.0259849663356205e+01 1.4659406340201336e+01 1.9395654960672324e+01 0 0 0
1166 37 1 -1.2000000000000000e-01 1.0745304398673113e+01 1.6754805660420754e+01 1.9415666769009313e+01 0 0 0
1167 37 2 5.9999999999999998e-02 1.1560050945010564e+01 1.6678966132803644e+01 1.8696042321537234e+01 0 0 0
1169 37 1 -1.2000000000000000e-01 9.4695075078456874e+00 1.7189808294417080e+01 1.8701989595043244e+01 0 0 0
1172 37 1 -1.2000000000000000e-01 9.6620589315071967e+00 1.8527143257917050e+01 1.7996519746983587e+01 0 0 0
1173 37 2 5.9999999999999998e-02 1.0476963915421484e+01 1.8448694925953401e+01 1.7278275796511867e+01 0 0 0
1174 37 2 5.9999999999999998e-02 9.9550397573987102e+00 1.9285177054886130e+01 1.8721587663165696e+01 0 0 0
1179 37 2 5.9999999999999998e-02 9.3888025342318127e+00 2.0225544966550959e+01 1.5855463782946684e+01 0 0 0
837 27 1 -1.2000000000000000e-01 2.1906128944590691e+01 1.3649100079176351e+01 1.1065195571370403e+01 0 0 0
838 27 2 5.9999999999999998e-02 2.1449680158119822e+01 1.4071105241479506e+01 1.0168753780831308e+01 0 0 0
839 27 2 5.9999999999999998e-02 2.1235283425563868e+01 1.3883310616736713e+01 1.1892963359246837e+01 0 0 0
840 27 1 -1.2000000000000000e-01 2.3267676478467948e+01 1.4295441358948432e+01 1.1304875250336911e+01 0 0 0
841 27 2 5.9999999999999998e-02 2.3936335571125102e+01 1.4061908018304710e+01 1.0477485924583522e+01 0 0 0
842 27 2 5.9999999999999998e-02 2.3722284968028276e+01 1.3874088057132148e+01 1.2200427111932875e+01 0 0 0
843 27 1 -1.2000000000000000e-01 2.3146462013580713e+01 1.5806057988627247e+01 1.1454286785748064e+01 0 0 0
844 27 2 5.9999999999999998e-02 2.2480286788140461e+01 1.6042271176935550e+01 1.2282940382053038e+01 0 0 0
845 27 2 5.9999999999999998e-02 2.2695054345557452e+01 1.6230077768401994e+01 1.0558358175067122e+01 0 0 0
846 27 1 -1.2000000000000000e-01 2.4509480165966384e+01 1.6444958327785585e+01 1.1693333186085470e+01 0 0 0
847 27 2 5.9999999999999998e-02 2.5177522796433401e+01 1.6210504146211321e+01 1.0865048809529924e+01 0 0 0
848 27 2 5.9999999999999998e-02 2.4963607503919459e+01 1.6022814405688305e+01 1.2589423230437770e+01 0 0 0
849 27 1 -1.2000000000000000e-01 2.4389724975329742e+01 1.7958029271701239e+01 1.1842933605523889e+01 0 0 0
850 27 2 5.9999999999999998e-02 2.3721523560569107e+01 1.8192601272486126e+01 1.2671166870721759e+01 0 0 0
851 27 2 5.9999999999999998e-02 2.3935868397172239e+01 1.8380129001495465e+01 1.0946607020328690e+01 0 0 0
852 27 1 -1.2000000000000000e-01 2.5752645147710766e+01 1.8597307513650890e+01 1.2081701464571795e+01 0 0 0
853 27 2 5.9999999999999998e-02 2.6418448530859870e+01 1.8360981207500327e+01 1.1252869737587236e+01 0 0 0
854 27 2 5.9999999999999998e-02 2.6204356141656845e+01 1.8173484990559434e+01 1.2977490984101422e+01 0 0 0
855 27 1 -1.2000000000000000e-01 2.5631340920571471e+01 2.0107997259018070e+01 1.2230950162818043e+01 0 0 0
856 27 2 5.9999999999999998e-02 2.4962553489804360e+01 2.0341629229837928e+01 1.3058231048771940e+01 0 0 0
857 27 2 5.9999999999999998e-02 2.5176919186272087e+01 2.0529128974830151e+01 1.1335246569418791e+01 0 0 0
858 27 1 -1.2000000000000000e-01 2.6992854139419425e+01 2.0754543065303142e+01 1.2470532057080652e+01 0 0 0
859 27 2 5.9999999999999998e-02 2.7663722773644572e+01 2.0520167341683607e+01 1.1642876785817903e+01 0 0 0
860 27 2 5.9999999999999998e-02 2.7449200636292584e+01 2.0332328875256348e+01 1.3366902532173565e+01 0 0 0
1232 39 2 5.9999999999999998e-02 4.5781139266836952e+01 1.2991832649824834e+01 1.0835947597107701e+01 0 0 0
1236 39 1 -1.2000000000000000e-01 4.8494730385715634e+01 1.3364601265627730e+01 1.0765410195352695e+01 0 0 0
1237 39 2 5.9999999999999998e-02 4.8638168996645618e+01 1.3429525268627167e+01 1.1843081699893082e+01 0 0 0
1238 39 2 5.9999999999999998e-02 4.7927634915268008e+01 1.4246537799553364e+01 1.0470873084765396e+01 0 0 0
1239 39 1 -1.2000000000000000e-01 4.9846687595032137e+01 1.3363470429250158e+01 1.0064437570291128e+01 0 0 0
1242 39 1 -1.2000000000000000e-01 5.0647210660829842e+01 1.4619446702245838e+01 1.0397344256137469e+01 0 0 0
1243 39 2 5.9999999999999998e-02 5.0793389227866918e+01 1.4688992108666655e+01 1.1476095379750346e+01 0 0 0
1244 39 2 5.9999999999999998e-02 5.0082473751413062e+01 1.5505561244229337e+01 1.0104419512747461e+01 0 0 0
481 16 1 -1.7999999999999999e-01 5.8502040718590131e+01 1.8970858154745120e+01 1.4219923883385512e+01 0 0 0
482 16 2 5.9999999999999998e-02 5.9072041084240290e+01 1.9529917367608675e+01 1.4960763561352918e+01 0 0 0
483 16 2 5.9999999999999998e-02 5.8670464809363139e+01 1.9432582367636883e+01 1.3247937482634278e+01 0 0 0
484 16 2 5.9999999999999998e-02 5.7444207130546836e+01 1.9068057289127790e+01 1.4462272697754560e+01 0 0 0
485 16 1 -1.2000000000000000e-01 5.8924090162998162e+01 1.7504639309518531e+01 1.4204271031053459e+01 0 0 0
486 16 2 5.9999999999999998e-02 5.8723314310803111e+01 1.7051830917748678e+01 1.5176283678860097e+01 0 0 0
487 16 2 5.9999999999999998e-02 5.8324132024755862e+01 1.6955134216427751e+01 1.3477516702639427e+01 0 0 0
488 16 1 -1.2000000000000000e-01 6.0405125262078428e+01 1.7362692278817061e+01 1.3864213639720111e+01 0 0 0
489 16 2 5.9999999999999998e-02 6.1003271140902839e+01 1.7910808485542280e+01 1.4590778323369168e+01 0 0 0
490 16 2 5.9999999999999998e-02 6.0604541100878478e+01 1.7814380771244334e+01 1.2893398196738403e+01 0 0 0
491 16 1 -1.2000000000000000e-01 6.0833469127085188e+01 1.5901384162499205e+01 1.3846761292775794e+01 0 0 0
492 16 2 5.9999999999999998e-02 6.0238721018415895e+01 1.5351618417133066e+01 1.3118519099580695e+01 0 0 0
493 16 2 5.9999999999999998e-02 6.0637908270778283e+01 1.5448205056311197e+01 1.4817648461690577e+01 0 0 0
494 16 1 -1.2000000000000000e-01 6.2313253341250046e+01 1.5767212420061361e+01 1.3506950704761998e+01 0 0 0
495 16 2 5.9999999999999998e-02 6.2910708115585415e+01 1.6316112799410284e+01 1.4234400662109920e+01 0 0 0
496 16 2 5.9999999999999998e-02 6.2511749400476027e+01 1.6219327417770511e+01 1.2535552618084557e+01 0 0 0
497 16 1 -1.2000000000000000e-01 6.2743767808016628e+01 1.4304139415348583e+01 1.3489272394918345e+01 0 0 0
498 16 2 5.9999999999999998e-02 6.2146379405999703e+01 1.3755192212366527e+01 1.2761735706262169e+01 0 0 0
499 16 2 5.9999999999999998e-02 6.2545277014942116e+01 1.3851840355926242e+01 1.4460622784279622e+01 0 0 0
500 16 1 -1.2000000000000000e-01 6.4223609196961959e+01 1.4169751312397022e+01 1.3149636182618281e+01 0 0 0
501 16 2 5.9999999999999998e-02 6.4818214897242441e+01 1.4719577684418336e+01 1.3877898057161966e+01 0 0 0
502 16 2 5.9999999999999998e-02 6.4419420454224039e+01 1.4622787540849295e+01 1.2178742537918302e+01 0 0 0
503 16 1 -1.2000000000000000e-01 6.4651795107376145e+01 1.2708442118237087e+01 1.3132259680321193e+01 0 0 0
507 16 2 5.9999999999999998e-02 6.6732730377242007e+01 1.3116161922948596e+01 1.3518894878477694e+01 0 0 0
508 16 2 5.9999999999999998e-02 6.6333591455605216e+01 1.3019510007951068e+01 1.1820374872349099e+01 0 0 0
862 27 2 5.9999999999999998e-02 2.6219356930665324e+01 2.2520782583547927e+01 1.3459579925908574e+01 0 0 0
863 27 2 5.9999999999999998e-02 2.6435588628169224e+01 2.2710107922132739e+01 1.1721187355988041e+01 0 0 0
861 27 1 -1.7999999999999999e-01 2.6864517301982847e+01 2.2267715170217503e+01 1.2619326785635280e+01 0 0 0
864 27 2 5.9999999999999998e-02 2.7838455837479039e+01 2.2725221617437906e+01 1.2790199091436106e+01 0 0 0
1409 45 1 -1.7999999999999999e-01 5.8691314534123883e+01 3.0768151670173015e+01 1.7839735607093274e+01 0 0 0
1410 45 2 5.9999999999999998e-02 5.9596916738782042e+01 3.0497624143447272e+01 1.7298407154390926e+01 0 0 0
1411 45 2 5.9999999999999998e-02 5.8708725068941227e+01 3.0256393441746660e+01 1.8801076965726139e+01 0 0 0
1412 45 2 5.9999999999999998e-02 5.7835816911518542e+01 3.0398925101331407e+01 1.7274946534387006e+01 0 0 0
902 29 2 5.9999999999999998e-02 8.8802724784912304e+00 3.2769775418777996e+01 1.0146537496000644e+01 0 0 0
909 29 2 5.9999999999999998e-02 9.2279594200628132e+00 3.4904738395559868e+01 1.1444756060370132e+01 0 0 0
911 29 2 5.9999999999999998e-02 9.2169177168722172e+00 3.7109915183311593e+01 1.0262730801199684e+01 0 0 0
907 29 1 -1.2000000000000000e-01 1.0034688528591806e+01 3.5183005571549344e+01 1.0767989411577574e+01 0 0 0
908 29 2 5.9999999999999998e-02 1.0952870855685994e+01 3.4777863775753659e+01 1.1191184851120845e+01 0 0 0
910 29 1 -1.2000000000000000e-01 1.0134460280042102e+01 3.6701769558432211e+01 1.0685725202573414e+01 0 0 0
913 29 1 -1.2000000000000000e-01 1.0381417137462810e+01 3.7312841180559012e+01 1.2061181133520197e+01 0 0 0
914 29 2 5.9999999999999998e-02 1.1299122604831576e+01 3.6904864233163238e+01 1.2484168638587244e+01 0 0 0
915 29 2 5.9999999999999998e-02 9.5743841399252272e+00 3.7031655583013787e+01 1.2737258691075095e+01 0 0 0
916 29 1 -1.2000000000000000e-01 1.0480792476787315e+01 3.8831618349234773e+01 1.1979019520103016e+01 0 0 0
917 29 2 5.9999999999999998e-02 9.5626493697686961e+00 3.9236674838150790e+01 1.1555731518560631e+01 0 0 0
918 29 2 5.9999999999999998e-02 1.1287419450504215e+01 3.9110028487434583e+01 1.1302210967607367e+01 0 0 0
919 29 1 -1.2000000000000000e-01 1.0727557255751172e+01 3.9440471287503634e+01 1.3352952752588630e+01 0 0 0
920 29 2 5.9999999999999998e-02 1.1644506367211036e+01 3.9031623365765149e+01 1.3775150749793944e+01 0 0 0
921 29 2 5.9999999999999998e-02 9.9211857225550428e+00 3.9158355321403789e+01 1.4028516032017292e+01 0 0 0
922 29 1 -1.2000000000000000e-01 1.0828340890005480e+01 4.0961472774471922e+01 1.3277730197020079e+01 0 0 0
924 29 2 5.9999999999999998e-02 1.1634936251557644e+01 4.1244974800802503e+01 1.2600176260856442e+01 0 0 0
926 29 2 5.9999999999999998e-02 1.2003336148593569e+01 4.1186679745904634e+01 1.5084548594439429e+01 0 0 0
927 29 2 5.9999999999999998e-02 1.0264745608387056e+01 4.1314938229598262e+01 1.5340186630220707e+01 0 0 0
1566 49 2 5.9999999999999998e-02 2.6532301283435761e+01 3.7112497781000620e+01 1.5809539575571870e+01 0 0 0
1550 49 1 -1.2000000000000000e-01 2.9684627711143264e+01 3.8217307461503246e+01 1.0170378022076301e+01 0 0 0
1551 49 2 5.9999999999999998e-02 3.0731359132147002e+01 3.8032551139254707e+01 1.0409963793934784e+01 0 0 0
1553 49 1 -1.2000000000000000e-01 2.8916894508727026e+01 3.8546568257217636e+01 1.1446511256909993e+01 0 0 0
1554 49 2 5.9999999999999998e-02 2.7869897791910393e+01 3.8731021055670510e+01 1.1207055045401850e+01 0 0 0
1555 49 2 5.9999999999999998e-02 2.9304757110578425e+01 3.9467911539397875e+01 1.1880382102660860e+01 0 0 0
1556 49 1 -1.2000000000000000e-01 2.9022770060635661e+01 3.7413390207469277e+01 1.2460606139923668e+01 0 0 0
1557 49 2 5.9999999999999998e-02 3.0069883043122708e+01 3.7230646624677235e+01 1.2697696173015641e+01 0 0 0
1558 49 2 5.9999999999999998e-02 2.8634985343132175e+01 3.6493833854137158e+01 1.2024340215653153e+01 0 0 0
1559 49 1 -1.2000000000000000e-01 2.8255553703495753e+01 3.7743185615759025e+01 1.3734095579676223e+01 0 0 0
1560 49 2 5.9999999999999998e-02 2.7209622730884178e+01 3.7928439486340643e+01 1.3493429268392301e+01 0 0 0
1561 49 2 5.9999999999999998e-02 2.8643028732818721e+01 3.8664396275410276e+01 1.4166913226641888e+01 0 0 0
1562 49 1 -1.2000000000000000e-01 2.8357504653105490e+01 3.6612319635985600e+01 1.4753882872963693e+01 0 0 0
1563 49 2 5.9999999999999998e-02 2.9404998716077909e+01 3.6425503184455224e+01 1.4994446214557181e+01 0 0 0
1564 49 2 5.9999999999999998e-02 2.7970542686628729e+01 3.5688850553386217e+01 1.4320994715033782e+01 0 0 0
1565 49 1 -1.7999999999999999e-01 2.7587000384602923e+01 3.6949152887596320e+01 1.6027117770755630e+01 0 0 0
1567 49 2 5.9999999999999998e-02 2.7978811428200387e+01 3.7854645949488443e+01 1.6488473391228350e+01 0 0 0
1568 49 2 5.9999999999999998e-02 2.7661892737009012e+01 3.6139533125118447e+01 1.6752446533323077e+01 0 0 0
1413 45 1 -1.2000000000000000e-01 5.8605813382734638e+01 3.2279444887260418e+01 1.8031526104580497e+01 0 0 0
1414 45 2 5.9999999999999998e-02 5.8561178884159993e+01 3.2773112094812404e+01 1.7059778639838353e+01 0 0 0
1415 45 2 5.9999999999999998e-02 5.7680110766266225e+01 3.2533953036638145e+01 1.8549492768343310e+01 0 0 0
1416 45 1 -1.2000000000000000e-01 5.9802118027872623e+01 3.2801815713667636e+01 1.8822813081051113e+01 0 0 0
1417 45 2 5.9999999999999998e-02 6.0725725863761539e+01 3.2548392006378791e+01 1.8304270660065939e+01 0 0 0
1419 45 1 -1.2000000000000000e-01 5.9722708079689852e+01 3.4309888272359437e+01 1.9018434887134021e+01 0 0 0
1420 45 2 5.9999999999999998e-02 5.8801032851120951e+01 3.4565913370897654e+01 1.9539433536302194e+01 0 0 0
1421 45 2 5.9999999999999998e-02 5.9682252760669499e+01 3.4805757780095533e+01 1.8049547099666515e+01 0 0 0
1427 45 2 5.9999999999999998e-02 6.0797719278082909e+01 3.6829667047479312e+01 1.9034549041561480e+01 0 0 0
1423 45 2 5.9999999999999998e-02 6.1843709090136961e+01 3.4570704773563030e+01 1.9289759864639255e+01 0 0 0
2497 79 1 -1.7999999999999999e-01 6.8812214358758169e+01 3.8948999892212683e+01 1.6726176376949624e+01 0 0 0
2498 79 2 5.9999999999999998e-02 6.9767483489259462e+01 3.8427513552040679e+01 1.6768973584096376e+01 0 0 0
2499 79 2 5.9999999999999998e-02 6.8348049272731330e+01 3.8720020859910910e+01 1.5767843070817271e+01 0 0 0
2500 79 2 5.9999999999999998e-02 6.9008791260154752e+01 4.0020240824007125e+01 1.6759665784137525e+01 0 0 0
2501 79 1 -1.2000000000000000e-01 6.7909535960654082e+01 3.8523571856095288e+01 1.7880711821487530e+01 0 0 0
2502 79 2 5.9999999999999998e-02 6.8377514170684464e+01 3.8784443107887384e+01 1.8831006410399453e+01 0 0 0
2503 79 2 5.9999999999999998e-02 6.6969397298562527e+01 3.9075207375331182e+01 1.7837508103621261e+01 0 0 0
2504 79 1 -1.2000000000000000e-01 6.7630139885050525e+01 3.7023705925065968e+01 1.7837207588798439e+01 0 0 0
2505 79 2 5.9999999999999998e-02 6.8569100940974963e+01 3.6473676785638325e+01 1.7882041219830594e+01 0 0 0
2506 79 2 5.9999999999999998e-02 6.7162809876261989e+01 3.6763873763586716e+01 1.6888336931993699e+01 0 0 0
2507 79 1 -1.2000000000000000e-01 6.6729208908487479e+01 3.6592114327815629e+01 1.8987045546094741e+01 0 0 0
2508 79 2 5.9999999999999998e-02 6.5787623657432150e+01 3.7138426437964547e+01 1.8944211330051751e+01 0 0 0
2510 79 1 -1.2000000000000000e-01 6.6457842904554525e+01 3.5092639676623492e+01 1.8936449637037914e+01 0 0 0
2511 79 2 5.9999999999999998e-02 6.7398286272617128e+01 3.4544395607145404e+01 1.8978718465663757e+01 0 0 0
2512 79 2 5.9999999999999998e-02 6.5987252081364460e+01 3.4834744842377170e+01 1.7988013996947327e+01 0 0 0