LAMMPS data file via write_data, version 30 Sep 2013-ICMS, timestep = 21

88 atoms
4 atom types
52 bonds
2 bond types
72 angles
1 angle types
48 impropers
1 improper types

-4.7107000000000001e+00 4.7107000000000001e+00 xlo xhi
-1.2622282610000000e+00 1.7580571739000000e+01 ylo yhi
0.0000000000000000e+00 6.8814000000000002e+00 zlo zhi

Masses

1 15.9994
2 40.08
3 30.9738
4 1.00797

Pair Coeffs

1 0.24 3.535
2 0.3015 3.98
3 0.215 4.295
4 0.013 1.098

Bond Coeffs

1 1.61 245.2 0 0
2 0.965 532.506 -1282.9 2004.77

Angle Coeffs

1 109 45 0 0

BondBond Coeffs

1 0 1.61 1.61

BondAngle Coeffs

1 0 0 1.61 1.61

Improper Coeffs

1 0 0

AngleAngle Coeffs

1 0 0 0 109 109 109

Atoms

1 1 1 -5.8670000000000000e-01 -1.5431772727090642e+00 7.9954215801832644e+00 1.7661235005492282e+00 0 0 0
2 1 1 -5.8770000000000000e-01 1.4832449339760667e+00 5.2631590529022647e+00 5.2290755895386249e+00 0 0 0
4 1 1 -5.6920000000000004e-01 8.1763390667121683e-01 7.9623601507921817e+00 1.6968940423750500e+00 0 0 0
5 1 1 -5.6779999999999997e-01 2.1471734962710456e+00 4.8719343883166619e+00 1.6471726640312396e+00 0 0 0
7 1 1 -5.9260000000000002e-01 -3.7319227745752043e-01 6.1897787445387138e+00 5.8994471093203460e-01 0 0 0
8 1 1 -5.9750000000000003e-01 4.2334665795679571e+00 4.6674597540766642e+00 6.3099628483033954e-01 0 0 0
9 1 1 -5.9260000000000002e-01 -3.1989979188378399e+00 6.8148232606114991e+00 4.0343425665317003e+00 0 0 0
10 1 1 -5.8499999999999996e-01 -2.4218866282789436e-01 6.2173488568070239e+00 2.8823496653314620e+00 0 0 0
11 1 1 -5.7609999999999995e-01 4.1380588292405491e+00 4.7588943118144336e+00 2.8151647443334329e+00 0 0 0
12 1 1 -5.8640000000000003e-01 -3.1997164983610560e+00 6.9820474129622117e+00 6.3005205817294376e+00 0 0 0
15 1 2 1.2171000000000001e+00 -8.9471428077801465e-02 3.8376781620802527e+00 1.6998908318647776e+00 0 0 0
17 1 2 1.2164999999999999e+00 -1.0526144881880080e+00 5.8898804415702521e+00 5.1390850539796480e+00 0 0 0
18 1 3 4.7949999999999998e-01 -3.6568430167876798e-01 7.1175453697593261e+00 1.7302333680831499e+00 0 0 0
19 1 3 4.8099999999999998e-01 3.3997090660821483e+00 4.1015293314382459e+00 1.7171584163033042e+00 0 0 0
20 1 3 4.7880000000000000e-01 -4.0226937237866016e+00 7.3306180421787621e+00 5.1369480249649753e+00 0 0 0
21 1 1 -8.6529999999999996e-01 -2.4817361793889838e+00 3.8240667963947477e+00 2.2154993785985759e+00 1 0 0
22 1 4 2.6569999999999999e-01 -2.3829934833854614e+00 4.0466729080996942e+00 3.1560521266593828e+00 1 0 0
23 1 1 -5.8670000000000000e-01 -3.0339685580538664e+00 -2.3178280113784480e-01 5.2508727513972184e+00 1 0 0
24 1 1 -5.8770000000000000e-01 3.1955717666438361e+00 2.5784183248799555e+00 1.7948931446976384e+00 0 0 0
26 1 1 -5.6920000000000004e-01 3.9301810808274658e+00 -2.1787901643549254e-01 5.1496441710130743e+00 0 0 0
27 1 1 -5.6779999999999997e-01 2.5681795307853221e+00 2.9679336793441999e+00 5.0571317815095416e+00 0 0 0
28 1 1 -5.6889999999999996e-01 -7.1130899554472238e-01 -1.0813631841227715e+00 1.6045178573085277e+00 1 0 0
29 1 1 -5.9260000000000002e-01 -4.3554311749150125e+00 1.8135010137973564e+00 4.1158903577270092e+00 1 0 0
30 1 1 -5.9750000000000003e-01 4.0505802933371654e-01 3.3416405382156702e+00 4.0655423549526626e+00 0 0 0
31 1 1 -5.9260000000000002e-01 -1.3614410076820864e+00 1.3400891514526136e+00 6.8488848563881999e-01 1 0 0
32 1 1 -5.8499999999999996e-01 -4.4982803131563962e+00 1.7909202715227697e+00 6.2701511118165296e+00 1 0 0
33 1 1 -5.7609999999999995e-01 5.8450059928537046e-01 3.1901077002744307e+00 6.3080574606743420e+00 0 0 0
34 1 1 -5.8640000000000003e-01 -1.4200243672756210e+00 1.0570707886852779e+00 2.8197829768934124e+00 1 0 0
37 1 2 1.2171000000000001e+00 -4.6866183422942314e+00 4.2932406044508360e+00 5.1374796230457056e+00 1 0 0
39 1 2 1.2164999999999999e+00 -3.6942018645129537e+00 1.6436643844203485e+00 1.7242089884665655e+00 1 0 0
40 1 3 4.7949999999999998e-01 -4.2743475764414747e+00 7.2874764270013281e-01 5.1898123525618196e+00 1 0 0
41 1 3 4.8099999999999998e-01 1.3183583964022150e+00 3.7672215731180354e+00 5.1567249591307105e+00 0 0 0
42 1 3 4.7880000000000000e-01 -6.7938307368325190e-01 4.8326076757099107e-01 1.6862845617594864e+00 1 0 0
43 1 1 -8.6529999999999996e-01 -2.3175524469132633e+00 3.8668509937913598e+00 5.6556269129167376e+00 0 0 0
44 1 4 2.6569999999999999e-01 -2.3653910945069265e+00 4.0296168869423017e+00 6.6128055708020907e+00 0 0 0
47 1 1 -5.8799999999999997e-01 4.0394260441472083e+00 6.7750470827641696e+00 5.1467638848928194e+00 -1 0 0
50 1 1 -5.6889999999999996e-01 4.1397057746294283e+00 7.5386566236403088e+00 1.8019436513916747e+00 0 0 0
57 1 2 1.2548999999999999e+00 2.3798560572238987e+00 6.8208067544558135e+00 8.7540553792858411e-02 0 0 1
58 1 2 1.2543000000000000e+00 2.3237649308672559e+00 6.7445124911904095e+00 3.3548185524062175e+00 0 0 0
60 1 2 1.2161000000000000e+00 -3.2573225669332579e+00 6.0685938573568743e+00 1.6781688965438646e+00 1 0 0
69 1 1 -5.8799999999999997e-01 6.1157664649814603e-01 1.2581609043574906e+00 1.7263556381369849e+00 1 0 0
79 1 2 1.2548999999999999e+00 2.2470524335102833e+00 8.2053386430848041e-01 3.5532853911845783e+00 0 0 0
80 1 2 1.2543000000000000e+00 2.2952688120345641e+00 9.0485576007998825e-01 6.7929729246333626e+00 0 0 -1
82 1 2 1.2161000000000000e+00 -1.2888192650065635e+00 1.6709231158939952e+00 5.1540868759168026e+00 0 0 0
3 1 1 -5.8799999999999997e-01 -4.0394260441170493e+00 9.5432963955154726e+00 1.7346361150968821e+00 1 0 0
6 1 1 -5.6889999999999996e-01 -4.1397057748656794e+00 8.7796868547607030e+00 5.0794563486246611e+00 0 0 0
13 1 2 1.2548999999999999e+00 -2.3798560572876841e+00 9.4975367237861654e+00 6.7938594460913100e+00 0 0 -1
14 1 2 1.2543000000000000e+00 -2.3237649308961723e+00 9.5738309870346541e+00 3.5265814477213770e+00 0 0 0
16 1 2 1.2161000000000000e+00 3.2573225668052666e+00 1.0249749621382069e+01 5.2032311035606726e+00 -1 0 0
25 1 1 -5.8799999999999997e-01 -6.1157664637989562e-01 1.5060182573990161e+01 5.1550443618569464e+00 -1 0 0
35 1 2 1.2548999999999999e+00 -2.2470524333228603e+00 1.5497809614158291e+01 3.3281146087407971e+00 0 0 0
36 1 2 1.2543000000000000e+00 -2.2952688119777722e+00 1.5413487718117608e+01 8.8427075335252958e-02 0 0 1
38 1 2 1.2161000000000000e+00 1.2888192653362085e+00 1.4647420361954554e+01 1.7273131241833399e+00 0 0 0
45 1 1 -5.8670000000000000e-01 1.5431772729210544e+00 8.3229218983096764e+00 5.1152764994192568e+00 0 0 0
46 1 1 -5.8770000000000000e-01 -1.4832449340591070e+00 1.1055184425254938e+01 1.6523244104650785e+00 0 0 0
48 1 1 -5.6920000000000004e-01 -8.1763390663719249e-01 8.3559833271952400e+00 5.1845059576379136e+00 0 0 0
49 1 1 -5.6779999999999997e-01 -2.1471734963105309e+00 1.1446409090125021e+01 5.2342273360592051e+00 0 0 0
51 1 1 -5.9260000000000002e-01 3.7319227733560711e-01 1.0128564733695855e+01 6.2914552889866551e+00 0 0 0
52 1 1 -5.9750000000000003e-01 -4.2334665796821787e+00 1.1650883724659790e+01 6.2504037152014140e+00 0 0 0
53 1 1 -5.9260000000000002e-01 3.1989979188202273e+00 9.5035202176572344e+00 2.8470574336306393e+00 0 0 0
54 1 1 -5.8499999999999996e-01 2.4218866279049603e-01 1.0100994621460233e+01 3.9990503347085591e+00 0 0 0
55 1 1 -5.7609999999999995e-01 -4.1380588290973765e+00 1.1559449166382150e+01 4.0662352557349317e+00 0 0 0
56 1 1 -5.8640000000000003e-01 3.1997164983891913e+00 9.3362960652033120e+00 5.8087941818320188e-01 0 0 0
59 1 2 1.2171000000000001e+00 8.9471428144886581e-02 1.2480665316182678e+01 5.1815091681150731e+00 0 0 0
61 1 2 1.2164999999999999e+00 1.0526144880739747e+00 1.0428463036349299e+01 1.7423149459665928e+00 0 0 0
62 1 3 4.7949999999999998e-01 3.6568430170289806e-01 9.2007981083382493e+00 5.1511666318910638e+00 0 0 0
63 1 3 4.8099999999999998e-01 -3.3997090660931466e+00 1.2216814147024747e+01 5.1642415836602797e+00 0 0 0
64 1 3 4.7880000000000000e-01 4.0226937237106402e+00 8.9877254362004173e+00 1.7444519750888958e+00 0 0 0
65 1 1 -8.6529999999999996e-01 2.4817361794912265e+00 1.2494276682481445e+01 4.6659006213847665e+00 -1 0 0
66 1 4 2.6569999999999999e-01 2.3829934834276210e+00 1.2271670569917760e+01 3.7253478735280221e+00 -1 0 0
67 1 1 -5.8670000000000000e-01 3.0339685579789362e+00 1.6550126279505754e+01 1.6305272485178370e+00 -1 0 0
68 1 1 -5.8770000000000000e-01 -3.1955717667751471e+00 1.3739925153643014e+01 5.0865068550728667e+00 0 0 0
70 1 1 -5.6920000000000004e-01 -3.9301810807896391e+00 1.6536222494657402e+01 1.7317558288968187e+00 0 0 0
71 1 1 -5.6779999999999997e-01 -2.5681795306637385e+00 1.3350409799002707e+01 1.8242682185310848e+00 0 0 0
72 1 1 -5.6889999999999996e-01 7.1130899537055470e-01 1.7399706662803226e+01 5.2768821426898418e+00 -1 0 0
73 1 1 -5.9260000000000002e-01 4.3554311748323862e+00 1.4504842464614416e+01 2.7655096422244014e+00 -1 0 0
74 1 1 -5.9750000000000003e-01 -4.0505802923914952e-01 1.2976702939842077e+01 2.8158576450080570e+00 0 0 0
75 1 1 -5.9260000000000002e-01 1.3614410076404522e+00 1.4978254327401240e+01 6.1965115145394192e+00 -1 0 0
76 1 1 -5.8499999999999996e-01 4.4982803129698334e+00 1.4527423206694957e+01 6.1124888817142120e-01 -1 0 0
77 1 1 -5.7609999999999995e-01 -5.8450059914976005e-01 1.3128235777848452e+01 5.7334253935210744e-01 0 0 0
78 1 1 -5.8640000000000003e-01 1.4200243671809984e+00 1.5261272690279284e+01 4.0616170229657866e+00 -1 0 0
81 1 2 1.2171000000000001e+00 4.6866183423957484e+00 1.2025102873919289e+01 1.7439203770793674e+00 -1 0 0
83 1 2 1.2164999999999999e+00 3.6942018644680208e+00 1.4674679094698805e+01 5.1571910114679502e+00 -1 0 0
84 1 3 4.7949999999999998e-01 4.2743475763953009e+00 1.5589595835662184e+01 1.6915876473454352e+00 -1 0 0
85 1 3 4.8099999999999998e-01 -1.3183583963813355e+00 1.2551121905073643e+01 1.7246750408512153e+00 0 0 0
86 1 3 4.7880000000000000e-01 6.7938307364769734e-01 1.5835082711116039e+01 5.1951154382698563e+00 -1 0 0
87 1 1 -8.6529999999999996e-01 2.3175524469579600e+00 1.2451492484036367e+01 1.2257730871391408e+00 0 0 0
88 1 4 2.6569999999999999e-01 2.3653910945591585e+00 1.2288726592019561e+01 2.6859442915719550e-01 0 0 0

Velocities

1 0.0000000000000000e+00 0.0000000000000000e+00 0.0000000000000000e+00
2 0.0000000000000000e+00 0.0000000000000000e+00 0.0000000000000000e+00
4 0.0000000000000000e+00 0.0000000000000000e+00 0.0000000000000000e+00
5 0.0000000000000000e+00 0.0000000000000000e+00 0.0000000000000000e+00
7 0.0000000000000000e+00 0.0000000000000000e+00 0.0000000000000000e+00
8 0.0000000000000000e+00 0.0000000000000000e+00 0.0000000000000000e+00
9 0.0000000000000000e+00 0.0000000000000000e+00 0.0000000000000000e+00
10 0.0000000000000000e+00 0.0000000000000000e+00 0.0000000000000000e+00
11 0.0000000000000000e+00 0.0000000000000000e+00 0.0000000000000000e+00
12 0.0000000000000000e+00 0.0000000000000000e+00 0.0000000000000000e+00
15 0.0000000000000000e+00 0.0000000000000000e+00 0.0000000000000000e+00
17 0.0000000000000000e+00 0.0000000000000000e+00 0.0000000000000000e+00
18 0.0000000000000000e+00 0.0000000000000000e+00 0.0000000000000000e+00
19 0.0000000000000000e+00 0.0000000000000000e+00 0.0000000000000000e+00
20 0.0000000000000000e+00 0.0000000000000000e+00 0.0000000000000000e+00
21 0.0000000000000000e+00 0.0000000000000000e+00 0.0000000000000000e+00
22 0.0000000000000000e+00 0.0000000000000000e+00 0.0000000000000000e+00
23 0.0000000000000000e+00 0.0000000000000000e+00 0.0000000000000000e+00
24 0.0000000000000000e+00 0.0000000000000000e+00 0.0000000000000000e+00
26 0.0000000000000000e+00 0.0000000000000000e+00 0.0000000000000000e+00
27 0.0000000000000000e+00 0.0000000000000000e+00 0.0000000000000000e+00
28 0.0000000000000000e+00 0.0000000000000000e+00 0.0000000000000000e+00
29 0.0000000000000000e+00 0.0000000000000000e+00 0.0000000000000000e+00
30 0.0000000000000000e+00 0.0000000000000000e+00 0.0000000000000000e+00
31 0.0000000000000000e+00 0.0000000000000000e+00 0.0000000000000000e+00
32 0.0000000000000000e+00 0.0000000000000000e+00 0.0000000000000000e+00
33 0.0000000000000000e+00 0.0000000000000000e+00 0.0000000000000000e+00
34 0.0000000000000000e+00 0.0000000000000000e+00 0.0000000000000000e+00
37 0.0000000000000000e+00 0.0000000000000000e+00 0.0000000000000000e+00
39 0.0000000000000000e+00 0.0000000000000000e+00 0.0000000000000000e+00
40 0.0000000000000000e+00 0.0000000000000000e+00 0.0000000000000000e+00
41 0.0000000000000000e+00 0.0000000000000000e+00 0.0000000000000000e+00
42 0.0000000000000000e+00 0.0000000000000000e+00 0.0000000000000000e+00
43 0.0000000000000000e+00 0.0000000000000000e+00 0.0000000000000000e+00
44 0.0000000000000000e+00 0.0000000000000000e+00 0.0000000000000000e+00
47 0.0000000000000000e+00 0.0000000000000000e+00 0.0000000000000000e+00
50 0.0000000000000000e+00 0.0000000000000000e+00 0.0000000000000000e+00
57 0.0000000000000000e+00 0.0000000000000000e+00 0.0000000000000000e+00
58 0.0000000000000000e+00 0.0000000000000000e+00 0.0000000000000000e+00
60 0.0000000000000000e+00 0.0000000000000000e+00 0.0000000000000000e+00
69 0.0000000000000000e+00 0.0000000000000000e+00 0.0000000000000000e+00
79 0.0000000000000000e+00 0.0000000000000000e+00 0.0000000000000000e+00
80 0.0000000000000000e+00 0.0000000000000000e+00 0.0000000000000000e+00
82 0.0000000000000000e+00 0.0000000000000000e+00 0.0000000000000000e+00
3 0.0000000000000000e+00 0.0000000000000000e+00 0.0000000000000000e+00
6 0.0000000000000000e+00 0.0000000000000000e+00 0.0000000000000000e+00
13 0.0000000000000000e+00 0.0000000000000000e+00 0.0000000000000000e+00
14 0.0000000000000000e+00 0.0000000000000000e+00 0.0000000000000000e+00
16 0.0000000000000000e+00 0.0000000000000000e+00 0.0000000000000000e+00
25 0.0000000000000000e+00 0.0000000000000000e+00 0.0000000000000000e+00
35 0.0000000000000000e+00 0.0000000000000000e+00 0.0000000000000000e+00
36 0.0000000000000000e+00 0.0000000000000000e+00 0.0000000000000000e+00
38 0.0000000000000000e+00 0.0000000000000000e+00 0.0000000000000000e+00
45 0.0000000000000000e+00 0.0000000000000000e+00 0.0000000000000000e+00
46 0.0000000000000000e+00 0.0000000000000000e+00 0.0000000000000000e+00
48 0.0000000000000000e+00 0.0000000000000000e+00 0.0000000000000000e+00
49 0.0000000000000000e+00 0.0000000000000000e+00 0.0000000000000000e+00
51 0.0000000000000000e+00 0.0000000000000000e+00 0.0000000000000000e+00
52 0.0000000000000000e+00 0.0000000000000000e+00 0.0000000000000000e+00
53 0.0000000000000000e+00 0.0000000000000000e+00 0.0000000000000000e+00
54 0.0000000000000000e+00 0.0000000000000000e+00 0.0000000000000000e+00
55 0.0000000000000000e+00 0.0000000000000000e+00 0.0000000000000000e+00
56 0.0000000000000000e+00 0.0000000000000000e+00 0.0000000000000000e+00
59 0.0000000000000000e+00 0.0000000000000000e+00 0.0000000000000000e+00
61 0.0000000000000000e+00 0.0000000000000000e+00 0.0000000000000000e+00
62 0.0000000000000000e+00 0.0000000000000000e+00 0.0000000000000000e+00
63 0.0000000000000000e+00 0.0000000000000000e+00 0.0000000000000000e+00
64 0.0000000000000000e+00 0.0000000000000000e+00 0.0000000000000000e+00
65 0.0000000000000000e+00 0.0000000000000000e+00 0.0000000000000000e+00
66 0.0000000000000000e+00 0.0000000000000000e+00 0.0000000000000000e+00
67 0.0000000000000000e+00 0.0000000000000000e+00 0.0000000000000000e+00
68 0.0000000000000000e+00 0.0000000000000000e+00 0.0000000000000000e+00
70 0.0000000000000000e+00 0.0000000000000000e+00 0.0000000000000000e+00
71 0.0000000000000000e+00 0.0000000000000000e+00 0.0000000000000000e+00
72 0.0000000000000000e+00 0.0000000000000000e+00 0.0000000000000000e+00
73 0.0000000000000000e+00 0.0000000000000000e+00 0.0000000000000000e+00
74 0.0000000000000000e+00 0.0000000000000000e+00 0.0000000000000000e+00
75 0.0000000000000000e+00 0.0000000000000000e+00 0.0000000000000000e+00
76 0.0000000000000000e+00 0.0000000000000000e+00 0.0000000000000000e+00
77 0.0000000000000000e+00 0.0000000000000000e+00 0.0000000000000000e+00
78 0.0000000000000000e+00 0.0000000000000000e+00 0.0000000000000000e+00
81 0.0000000000000000e+00 0.0000000000000000e+00 0.0000000000000000e+00
83 0.0000000000000000e+00 0.0000000000000000e+00 0.0000000000000000e+00
84 0.0000000000000000e+00 0.0000000000000000e+00 0.0000000000000000e+00
85 0.0000000000000000e+00 0.0000000000000000e+00 0.0000000000000000e+00
86 0.0000000000000000e+00 0.0000000000000000e+00 0.0000000000000000e+00
87 0.0000000000000000e+00 0.0000000000000000e+00 0.0000000000000000e+00
88 0.0000000000000000e+00 0.0000000000000000e+00 0.0000000000000000e+00

Bonds

1 1 1 18
2 1 2 41
3 1 4 18
4 1 5 19
5 1 7 18
6 1 8 19
7 1 9 20
8 1 10 18
9 1 11 19
10 1 12 20
11 2 21 22
12 1 23 40
13 1 24 19
14 1 26 40
15 1 27 41
16 1 28 42
17 1 29 40
18 1 30 41
19 1 31 42
20 1 32 40
21 1 33 41
22 1 34 42
23 2 43 44
24 1 47 20
25 1 50 64
26 1 69 42
27 1 3 64
28 1 6 20
29 1 25 86
30 1 45 62
31 1 46 85
32 1 48 62
33 1 49 63
34 1 51 62
35 1 52 63
36 1 53 64
37 1 54 62
38 1 55 63
39 1 56 64
40 2 65 66
41 1 67 84
42 1 68 63
43 1 70 84
44 1 71 85
45 1 72 86
46 1 73 84
47 1 74 85
48 1 75 86
49 1 76 84
50 1 77 85
51 1 78 86
52 2 87 88

Angles

1 1 4 18 7
2 1 4 18 1
3 1 4 18 10
4 1 7 18 1
5 1 7 18 10
6 1 1 18 10
7 1 8 19 24
8 1 8 19 5
9 1 8 19 11
10 1 24 19 5
11 1 24 19 11
12 1 5 19 11
13 1 12 20 47
14 1 12 20 6
15 1 12 20 9
16 1 47 20 6
17 1 47 20 9
18 1 6 20 9
19 1 26 40 29
20 1 26 40 23
21 1 26 40 32
22 1 29 40 23
23 1 29 40 32
24 1 23 40 32
25 1 30 41 2
26 1 30 41 27
27 1 30 41 33
28 1 2 41 27
29 1 2 41 33
30 1 27 41 33
31 1 34 42 69
32 1 34 42 28
33 1 34 42 31
34 1 69 42 28
35 1 69 42 31
36 1 28 42 31
37 1 48 62 51
38 1 48 62 45
39 1 48 62 54
40 1 51 62 45
41 1 51 62 54
42 1 45 62 54
43 1 52 63 68
44 1 52 63 49
45 1 52 63 55
46 1 68 63 49
47 1 68 63 55
48 1 49 63 55
49 1 56 64 3
50 1 56 64 50
51 1 56 64 53
52 1 3 64 50
53 1 3 64 53
54 1 50 64 53
55 1 70 84 73
56 1 70 84 67
57 1 70 84 76
58 1 73 84 67
59 1 73 84 76
60 1 67 84 76
61 1 74 85 46
62 1 74 85 71
63 1 74 85 77
64 1 46 85 71
65 1 46 85 77
66 1 71 85 77
67 1 78 86 25
68 1 78 86 72
69 1 78 86 75
70 1 25 86 72
71 1 25 86 75
72 1 72 86 75

Impropers

1 1 4 18 7 1
2 1 4 18 7 10
3 1 4 18 1 10
4 1 7 18 1 10
5 1 8 19 24 5
6 1 8 19 24 11
7 1 8 19 5 11
8 1 24 19 5 11
9 1 12 20 47 6
10 1 12 20 47 9
11 1 12 20 6 9
12 1 47 20 6 9
13 1 26 40 29 23
14 1 26 40 29 32
15 1 26 40 23 32
16 1 29 40 23 32
17 1 30 41 2 27
18 1 30 41 2 33
19 1 30 41 27 33
20 1 2 41 27 33
21 1 34 42 69 28
22 1 34 42 69 31
23 1 34 42 28 31
24 1 69 42 28 31
25 1 48 62 51 45
26 1 48 62 51 54
27 1 48 62 45 54
28 1 51 62 45 54
29 1 52 63 68 49
30 1 52 63 68 55
31 1 52 63 49 55
32 1 68 63 49 55
33 1 56 64 3 50
34 1 56 64 3 53
35 1 56 64 50 53
36 1 3 64 50 53
37 1 70 84 73 67
38 1 70 84 73 76
39 1 70 84 67 76
40 1 73 84 67 76
41 1 74 85 46 71
42 1 74 85 46 77
43 1 74 85 71 77
44 1 46 85 71 77
45 1 78 86 25 72
46 1 78 86 25 75
47 1 78 86 72 75
48 1 25 86 72 75
