LAMMPS data file from msi2lmp v3.8 for hydrogen-class2a

      2 atoms
      1 bonds
      0 angles
      0 dihedrals
      0 impropers

   1 atom types
   1 bond types

     0.000000000    10.000000000 xlo xhi
     0.000000000    10.000000000 ylo yhi
     0.000000000    10.000000000 zlo zhi

Masses

   1   1.007970

Pair Coeffs

   1   0.0216000000   1.4210000000 

Bond Coeffs

  1     0.7412   414.2185  -805.6549   914.1296 

Atoms

      1      1   1  0.000000     4.600000000     5.000000000     5.000000000
      2      1   1  0.000000     5.400000000     5.000000000     5.000000000

Bonds

     1   1      1      2

