LAMMPS data file via write_data, version 8 Jul 2013-ICMS, timestep = 100

18 atoms
2 atom types
19 bonds
2 bond types
30 angles
2 angle types
44 dihedrals
3 dihedral types
10 impropers
2 improper types

6.4669444000000006e-02 2.0064669444000000e+01 xlo xhi
-2.0061369444000000e+01 -6.1369444000000002e-02 ylo yhi
-2.0006684444000001e+01 -6.6844440000000003e-03 zlo zhi

Masses

1 1.00797
2 12.0112

Pair Coeffs

1 0.02 2.995
2 0.064 4.01

Bond Coeffs

1 1.0982 372.825 -803.453 894.317
2 1.417 470.836 -627.618 1327.63

Angle Coeffs

1 117.94 35.1558 -12.4682 0
2 118.9 61.0226 -34.9931 0

BondBond Coeffs

1 1.0795 1.0982 1.417
2 68.2856 1.417 1.417

BondAngle Coeffs

1 24.2183 20.0033 1.0982 1.417
2 28.8708 28.8708 1.417 1.417

Dihedral Coeffs

1 0 0 3.9661 0 0 0
2 0 0 1.8769 0 0 0
3 8.3667 0 1.1932 0 0 0

AngleAngleTorsion Coeffs

1 -4.8141 117.94 118.9
2 0.3598 117.94 117.94
3 0 118.9 118.9

EndBondTorsion Coeffs

1 0 -0.4669 0 0 -6.8958 0 1.0982 1.417
2 0 -0.689 0 0 -0.689 0 1.0982 1.0982
3 -0.1185 6.3204 0 -0.1185 6.3204 0 1.417 1.417

MiddleBondTorsion Coeffs

1 0 -1.1521 0 1.417
2 0 4.8228 0 1.417
3 27.5989 -2.312 0 1.417

BondBond13 Coeffs

1 -6.2741 1.0982 1.417
2 -1.7077 1.0982 1.0982
3 53 1.417 1.417

AngleTorsion Coeffs

1 0 2.7147 0 0 2.5014 0 117.94 118.9
2 0 2.4501 0 0 2.4501 0 117.94 117.94
3 1.9767 1.0239 0 1.9767 1.0239 0 118.9 118.9

Improper Coeffs

1 4.8912 0
2 7.1794 0

AngleAngle Coeffs

1 0 0 0 117.94 118.9 117.94
2 0 0 0 118.9 118.9 118.9

Atoms

18 1 1 1.3100000000000001e-01 9.9574933500837552e+00 -1.2855699261043650e+01 -1.0010658786050385e+01 0 0 0
12 1 2 -1.2700000000000000e-01 1.2524586845863034e+01 -1.0622647511061919e+01 -1.0014483203464335e+01 0 0 0
13 1 2 -1.2700000000000000e-01 1.1849932737594386e+01 -1.1844167343288936e+01 -1.0014267665701867e+01 0 0 0
14 1 2 -1.1799999999999999e-01 1.0471451507149483e+01 -1.1884407924875557e+01 -1.0010554079859771e+01 0 0 0
16 1 1 1.3100000000000001e-01 1.3623482573544599e+01 -1.0608627536035261e+01 -1.0017740023047612e+01 0 0 0
17 1 1 1.3300000000000001e-01 1.2423173328253526e+01 -1.2781722106755247e+01 -1.0017107748036224e+01 0 0 0
11 1 2 -1.1899999999999999e-01 1.1824463220633394e+01 -9.4345084088686573e+00 -1.0010664918717946e+01 0 0 0
15 1 1 1.3200000000000001e-01 1.2372743811475528e+01 -8.4821764708921972e+00 -1.0010895146272851e+01 0 0 0
6 1 2 -3.5999999999999997e-02 9.7180998909191985e+00 -1.0688871061339180e+01 -1.0006679589837779e+01 0 0 0
7 1 2 -1.1700000000000001e-01 8.3049093862054022e+00 -1.0688245548842010e+01 -1.0002814635233518e+01 0 0 0
10 1 1 1.3200000000000001e-01 7.7566583883096998e+00 -1.1640610689150668e+01 -1.0003011751003802e+01 0 0 0
1 1 1 1.3200000000000001e-01 6.5058583566337349e+00 -9.5142175698508122e+00 -9.9953964772318820e+00 0 0 0
2 1 2 -1.2800000000000000e-01 7.6047500200526397e+00 -9.5001455226263101e+00 -9.9988299818478321e+00 0 0 0
3 1 2 -1.2700000000000000e-01 8.2793587870115335e+00 -8.2786179012594605e+00 -9.9990352928606985e+00 0 0 0
4 1 2 -1.1700000000000001e-01 9.6578358406722238e+00 -8.2382733217090838e+00 -1.0002647388843705e+01 0 0 0
8 1 1 1.3100000000000001e-01 7.7062317152147077e+00 -7.3409401955285567e+00 -9.9963864594727561e+00 0 0 0
5 1 2 -3.6999999999999998e-02 1.0411287420975295e+01 -9.4337768116873821e+00 -1.0006612536314821e+01 0 0 0
9 1 1 1.3300000000000001e-01 1.0171732819407845e+01 -7.2669948151851038e+00 -1.0002534316202265e+01 0 0 0

Velocities

18 0.0000000000000000e+00 0.0000000000000000e+00 0.0000000000000000e+00
12 0.0000000000000000e+00 0.0000000000000000e+00 0.0000000000000000e+00
13 0.0000000000000000e+00 0.0000000000000000e+00 0.0000000000000000e+00
14 0.0000000000000000e+00 0.0000000000000000e+00 0.0000000000000000e+00
16 0.0000000000000000e+00 0.0000000000000000e+00 0.0000000000000000e+00
17 0.0000000000000000e+00 0.0000000000000000e+00 0.0000000000000000e+00
11 0.0000000000000000e+00 0.0000000000000000e+00 0.0000000000000000e+00
15 0.0000000000000000e+00 0.0000000000000000e+00 0.0000000000000000e+00
6 0.0000000000000000e+00 0.0000000000000000e+00 0.0000000000000000e+00
7 0.0000000000000000e+00 0.0000000000000000e+00 0.0000000000000000e+00
10 0.0000000000000000e+00 0.0000000000000000e+00 0.0000000000000000e+00
1 0.0000000000000000e+00 0.0000000000000000e+00 0.0000000000000000e+00
2 0.0000000000000000e+00 0.0000000000000000e+00 0.0000000000000000e+00
3 0.0000000000000000e+00 0.0000000000000000e+00 0.0000000000000000e+00
4 0.0000000000000000e+00 0.0000000000000000e+00 0.0000000000000000e+00
8 0.0000000000000000e+00 0.0000000000000000e+00 0.0000000000000000e+00
5 0.0000000000000000e+00 0.0000000000000000e+00 0.0000000000000000e+00
9 0.0000000000000000e+00 0.0000000000000000e+00 0.0000000000000000e+00

Bonds

1 1 18 14
2 2 12 13
3 2 13 14
4 1 16 12
5 1 17 13
6 2 11 12
7 1 15 11
8 2 6 7
9 2 6 14
10 1 10 7
11 1 1 2
12 2 2 3
13 2 2 7
14 2 3 4
15 2 4 5
16 1 8 3
17 2 5 6
18 2 5 11
19 1 9 4

Angles

1 2 11 12 13
2 1 16 12 11
3 1 16 12 13
4 2 12 13 14
5 1 17 13 12
6 1 17 13 14
7 2 6 14 13
8 1 18 14 6
9 1 18 14 13
10 2 5 11 12
11 1 15 11 5
12 1 15 11 12
13 2 5 6 7
14 2 5 6 14
15 2 7 6 14
16 2 2 7 6
17 1 10 7 2
18 1 10 7 6
19 1 1 2 3
20 1 1 2 7
21 2 3 2 7
22 2 2 3 4
23 1 8 3 2
24 1 8 3 4
25 2 3 4 5
26 1 9 4 3
27 1 9 4 5
28 2 4 5 6
29 2 4 5 11
30 2 6 5 11

Dihedrals

1 1 16 12 11 5
2 3 11 12 13 14
3 1 16 12 13 14
4 2 16 12 13 17
5 1 17 13 12 11
6 3 12 13 14 6
7 1 17 13 14 6
8 2 17 13 14 18
9 1 18 14 6 5
10 1 18 14 6 7
11 1 18 14 13 12
12 1 15 11 5 4
13 1 15 11 5 6
14 3 5 11 12 13
15 1 15 11 12 13
16 2 15 11 12 16
17 3 5 6 7 2
18 3 14 6 7 2
19 3 5 6 14 13
20 3 7 6 14 13
21 1 10 7 2 3
22 1 10 7 6 5
23 1 10 7 6 14
24 1 1 2 3 4
25 2 1 2 3 8
26 3 7 2 3 4
27 1 1 2 7 6
28 2 1 2 7 10
29 3 3 2 7 6
30 1 8 3 2 7
31 3 2 3 4 5
32 1 8 3 4 5
33 2 8 3 4 9
34 1 9 4 3 2
35 3 3 4 5 6
36 3 3 4 5 11
37 1 9 4 5 6
38 1 9 4 5 11
39 3 4 5 6 7
40 3 4 5 6 14
41 3 11 5 6 7
42 3 11 5 6 14
43 3 4 5 11 12
44 3 6 5 11 12

Impropers

1 1 16 12 13 11
2 1 17 13 14 12
3 1 18 14 13 6
4 1 15 11 12 5
5 2 5 6 7 14
6 1 10 7 6 2
7 1 1 2 3 7
8 1 8 3 4 2
9 1 9 4 5 3
10 2 4 5 6 11
