LAMMPS data file via write_data, version 24 Oct 2015-ICMS, timestep = 16

117 atoms
8 atom types
116 bonds
10 bond types
219 angles
19 angle types
311 dihedrals
25 dihedral types
11 impropers
3 improper types

-2.5859999660000001e+00 1.2220000267000000e+01 xlo xhi
2.5989999770000001e+00 2.2969999312999999e+01 ylo yhi
-2.3459999560000000e+00 3.6015998840000002e+01 zlo zhi

Masses

1 12.0112
2 14.0067
3 12.0112
4 15.9994
5 1.00797
6 1.00797
7 15.9994
8 14.0067

Pair Coeffs # lj/cut/coul/cut

1 0.039 3.87541
2 0.167 3.50123
3 0.148 3.61705
4 0.228 2.85978
5 0.038 2.44997
6 0 0
7 0.228 2.85978
8 0.167 3.50123

Bond Coeffs # harmonic

1 322.716 1.526
2 340.618 1.105
3 356.599 1.47
4 377.575 1.46
5 388 1.32
6 483.451 1.026
7 615.322 1.23
8 283.092 1.52
9 540 1.25
10 457.459 1.026

Angle Coeffs # harmonic

1 44.4 110
2 50 109.5
3 39.5 106.4
4 57.3 109.5
5 46.6 110.5
6 50 109.5
7 51.5 109.5
8 111 118
9 35 122
10 37.5 115
11 68 120
12 53.5 114.1
13 68 120
14 46.6 110.5
15 45 109.5
16 68 120
17 145 123
18 41.6 110
19 36 105.5

Dihedral Coeffs # harmonic

1 0.1581 1 3
2 0.1581 1 3
3 0.1581 1 3
4 0.1581 1 3
5 0.0889 1 3
6 0.0889 1 3
7 0.1581 1 3
8 0.1581 1 3
9 0.1581 1 3
10 0 1 0
11 0 1 0
12 0 1 0
13 0 1 0
14 3.8 -1 2
15 3.2 -1 2
16 1.8 -1 2
17 1.2 -1 2
18 0 1 0
19 0 1 0
20 0 1 0
21 0 1 0
22 0.1581 1 3
23 0.1581 1 3
24 0 1 0
25 0 1 0

Improper Coeffs # cvff

1 0.05 -1 2
2 10 -1 2
3 11.6 -1 2

Atoms # full

1 1 1 2.2000000000000000e-01 1.4910285057634631e+00 2.0560228642521494e+01 -4.2849750163132361e-01 0 0 0
2 1 1 -2.0000000000000001e-01 2.3345187989361205e+00 1.9881902367134977e+01 6.6767907815849603e-01 0 0 0
3 1 1 -2.0000000000000001e-01 2.9054556886850413e+00 2.0891628831167594e+01 1.6609148610214672e+00 0 0 0
4 1 1 -2.0000000000000001e-01 3.5715356284848956e+00 2.0182697393370688e+01 2.8587357484047109e+00 0 0 0
5 1 1 -2.0000000000000001e-01 4.1295381348170972e+00 2.1164763329915797e+01 3.8868650437975876e+00 0 0 0
6 1 1 2.0000000000000000e-02 4.8038324305482671e+00 2.0458443544804037e+01 5.0739506111424912e+00 0 0 0
7 1 2 -5.0000000000000000e-01 5.4421162600540338e+00 2.1460432143754517e+01 5.9299361569161659e+00 0 0 0
8 1 3 3.8000000000000000e-01 6.4171882865646772e+00 2.1150602178766018e+01 6.7960733243974003e+00 0 0 0
16 1 5 1.0000000000000001e-01 2.0881638318975924e+00 2.0692669447261210e+01 -1.3495859402564667e+00 0 0 0
17 1 5 1.0000000000000001e-01 1.1836464403717395e+00 2.1575821488412966e+01 -1.2015663168879144e-01 0 0 0
18 1 5 1.0000000000000001e-01 3.1604088988005850e+00 1.9314396294219382e+01 2.0034258142943326e-01 0 0 0
19 1 5 1.0000000000000001e-01 1.7325695100736336e+00 1.9146416712389193e+01 1.2268946560212557e+00 0 0 0
20 1 5 1.0000000000000001e-01 3.6322763859870366e+00 2.1549853127538682e+01 1.1508241363718743e+00 0 0 0
21 1 5 1.0000000000000001e-01 2.0995994364743931e+00 2.1550105702261121e+01 2.0306650916396549e+00 0 0 0
22 1 5 1.0000000000000001e-01 4.3839369856423138e+00 1.9527519635935580e+01 2.4976580036782456e+00 0 0 0
23 1 5 1.0000000000000001e-01 2.8385113949084002e+00 1.9524276164539163e+01 3.3562390094306576e+00 0 0 0
24 1 5 1.0000000000000001e-01 4.8626850805478750e+00 2.1819759209747112e+01 3.3897672128232785e+00 0 0 0
25 1 5 1.0000000000000001e-01 3.3221682775475707e+00 2.1823437359322515e+01 4.2474751462448763e+00 0 0 0
26 1 5 1.0000000000000001e-01 5.5628470058537811e+00 1.9754983066492606e+01 4.6964240978435194e+00 0 0 0
27 1 5 1.0000000000000001e-01 4.0829056362734333e+00 1.9858960919852759e+01 5.6533800347661192e+00 0 0 0
28 1 6 2.8000000000000003e-01 5.1186128365205041e+00 2.2438139298186400e+01 5.9866755466779011e+00 0 0 0
29 1 5 1.0000000000000001e-01 7.0523302071093372e+00 1.9074884346259072e+01 6.3942762266910336e+00 0 0 0
114 1 8 -5.0000000000000000e-01 2.6506142725965681e-01 1.9801916392980470e+01 -7.6129334639845658e-01 0 0 0
115 1 6 3.5999999999999999e-01 1.0040007736997127e-01 1.9767248902794744e+01 -1.7782326096738481e+00 0 0 0
116 1 6 3.5999999999999999e-01 -5.7343940264159243e-01 2.0240602682308364e+01 -3.5389955418812696e-01 0 0 0
117 1 6 3.5999999999999999e-01 2.8328327348395488e-01 1.8828039682407979e+01 -4.3321935271616574e-01 0 0 0
41 1 1 -2.0000000000000001e-01 1.0056924023293659e+01 1.2620459680128116e+01 1.4809130550782312e+01 0 0 0
42 1 1 -2.0000000000000001e-01 9.3337254589672742e+00 1.1434831800167958e+01 1.5470517727131956e+01 0 0 0
43 1 1 2.0000000000000000e-02 1.0242592270247346e+01 1.0199655370412954e+01 1.5636662276238530e+01 0 0 0
44 1 2 -5.0000000000000000e-01 9.5639326287734363e+00 9.0717043962364734e+00 1.6291338990563940e+01 0 0 0
63 1 5 1.0000000000000001e-01 1.0431084159631421e+01 1.2304804378630241e+01 1.3820809498862047e+01 0 0 0
64 1 5 1.0000000000000001e-01 8.9591572196228064e+00 1.1748410369929427e+01 1.6461509481467022e+01 0 0 0
65 1 5 1.0000000000000001e-01 8.4494246558652844e+00 1.1164707241142871e+01 1.4865527080432482e+01 0 0 0
66 1 5 1.0000000000000001e-01 1.1126515787109579e+01 1.0482658976251598e+01 1.6237400737847704e+01 0 0 0
67 1 5 1.0000000000000001e-01 1.0621906165734291e+01 9.8526225255327695e+00 1.4654688118400630e+01 0 0 0
68 1 6 2.8000000000000003e-01 8.5810248315904438e+00 8.8144433614687951e+00 1.6111292312819625e+01 0 0 0
69 1 5 1.0000000000000001e-01 9.3760738592898996e+00 6.2400532631650725e+00 1.6673090424506832e+01 0 0 0
9 1 4 -3.8000000000000000e-01 7.0732759958623612e+00 2.2058108495125772e+01 7.2899522494900273e+00 0 0 0
10 1 1 -2.0000000000000001e-01 6.6779537757120861e+00 1.9691100206613317e+01 7.2264636711748871e+00 0 0 0
11 1 1 -2.0000000000000001e-01 7.6802380679797544e+00 1.9640770117312808e+01 8.3944527173938823e+00 0 0 0
12 1 1 -2.0000000000000001e-01 7.4922284297073984e+00 1.8442170784315969e+01 9.3615010427281238e+00 0 0 0
13 1 1 -2.0000000000000001e-01 8.4534063685385039e+00 1.8436403081483789e+01 1.0564451929856872e+01 0 0 0
14 1 3 3.8000000000000000e-01 8.1307804877039782e+00 1.7341156660242444e+01 1.1582641354861494e+01 0 0 0
15 1 4 -3.8000000000000000e-01 6.9609581735487058e+00 1.7009274684946160e+01 1.1777794337429572e+01 0 0 0
30 1 5 1.0000000000000001e-01 5.7306654573675093e+00 1.9225769597342101e+01 7.5386545003851460e+00 0 0 0
31 1 5 1.0000000000000001e-01 8.7018322999006461e+00 1.9658925109125448e+01 7.9738014248823070e+00 0 0 0
32 1 5 1.0000000000000001e-01 7.5869232389044265e+00 2.0569239411308136e+01 8.9778286977221331e+00 0 0 0
33 1 5 1.0000000000000001e-01 7.5811609323687188e+00 1.7484360572746819e+01 8.8208149425014479e+00 0 0 0
34 1 5 1.0000000000000001e-01 6.4679567221342138e+00 1.8467795506880975e+01 9.7735883424421370e+00 0 0 0
35 1 5 1.0000000000000001e-01 9.5039807317059264e+00 1.8369099378461456e+01 1.0234713229374590e+01 0 0 0
36 1 5 1.0000000000000001e-01 8.3606337879470125e+00 1.9398559908393665e+01 1.1101849889297506e+01 0 0 0
37 1 2 -5.0000000000000000e-01 9.1518168710327252e+00 1.6833760132679334e+01 1.2281235699502378e+01 0 0 0
38 1 1 2.0000000000000000e-02 8.8608300904620556e+00 1.6164832483765775e+01 1.3564229878798786e+01 0 0 0
39 1 1 -2.0000000000000001e-01 9.8425430985209612e+00 1.5031434526502494e+01 1.3916751433419543e+01 0 0 0
40 1 1 -2.0000000000000001e-01 9.1507475989920994e+00 1.3860034952831366e+01 1.4635415668882903e+01 0 0 0
55 1 6 2.8000000000000003e-01 1.0099728622827501e+01 1.7105724153109293e+01 1.1976592189553001e+01 0 0 0
56 1 5 1.0000000000000001e-01 8.8655188904810771e+00 1.6926627492772841e+01 1.4372382122542346e+01 0 0 0
57 1 5 1.0000000000000001e-01 7.8317410449734304e+00 1.5767317677187135e+01 1.3546602322011916e+01 0 0 0
58 1 5 1.0000000000000001e-01 1.0641112606238895e+01 1.5445733238286220e+01 1.4558362350579651e+01 0 0 0
59 1 5 1.0000000000000001e-01 1.0328758257303006e+01 1.4658787199455681e+01 1.2999449881586958e+01 0 0 0
60 1 5 1.0000000000000001e-01 8.7841416266344297e+00 1.4198587224878745e+01 1.5619080295798236e+01 0 0 0
61 1 5 1.0000000000000001e-01 8.2526619884539443e+00 1.3563252259239187e+01 1.4066708018640815e+01 0 0 0
62 1 5 1.0000000000000001e-01 1.0951381905092992e+01 1.2891603429837280e+01 1.5396010560265770e+01 0 0 0
45 1 3 3.8000000000000000e-01 1.0295672876366893e+01 8.1731530028968198e+00 1.6945139734100042e+01 0 0 0
46 1 4 -3.8000000000000000e-01 1.1513790650421583e+01 8.2926329460316826e+00 1.7101244782365772e+01 0 0 0
47 1 1 -2.0000000000000001e-01 9.5534828030357364e+00 6.9582740928165299e+00 1.7494407729488316e+01 0 0 0
48 1 1 -2.0000000000000001e-01 1.0329564604824704e+01 6.2578495841446431e+00 1.8621317313751486e+01 0 0 0
49 1 1 -2.0000000000000001e-01 9.4042504977824475e+00 5.5216154466271750e+00 1.9617681114983082e+01 0 0 0
50 1 1 -2.0000000000000001e-01 1.0138046499196712e+01 4.9288830062447238e+00 2.0838451803990246e+01 0 0 0
51 1 5 1.0000000000000001e-01 1.0713835162671360e+01 5.7165032873559758e+00 2.1358640913371840e+01 0 0 0
52 1 5 1.0000000000000001e-01 1.0875883102341405e+01 4.1699358666356048e+00 2.0521587825556182e+01 0 0 0
53 1 3 3.8000000000000000e-01 9.2187273831475061e+00 4.2688971651148737e+00 2.1862219285515927e+01 0 0 0
54 1 4 -3.8000000000000000e-01 9.6137510363398313e+00 3.3234588207576445e+00 2.2546964753758260e+01 0 0 0
70 1 5 1.0000000000000001e-01 8.5578931978443169e+00 7.2742459091370737e+00 1.7856573555962328e+01 0 0 0
71 1 5 1.0000000000000001e-01 1.1059345829990733e+01 5.5627610825488141e+00 1.8166150052241591e+01 0 0 0
72 1 5 1.0000000000000001e-01 1.0927485882854326e+01 7.0118959436813881e+00 1.9160522580598602e+01 0 0 0
73 1 5 1.0000000000000001e-01 8.8536248590312869e+00 4.7120035959460660e+00 1.9109430739061832e+01 0 0 0
74 1 5 1.0000000000000001e-01 8.6452985198022354e+00 6.2458534853645542e+00 1.9957287229900256e+01 0 0 0
75 1 2 -5.0000000000000000e-01 8.0037896830298649e+00 4.7662771527583088e+00 2.2014420916086429e+01 0 0 0
76 1 1 2.0000000000000000e-02 7.1397003451095689e+00 4.1971042087102726e+00 2.3050625337965840e+01 0 0 0
77 1 1 -2.0000000000000001e-01 6.1029288800521782e+00 5.2251691556340418e+00 2.3531440214255785e+01 0 0 0
78 1 1 -2.0000000000000001e-01 5.9056879335155497e+00 5.2011198885696688e+00 2.5054855963590022e+01 0 0 0
79 1 1 -2.0000000000000001e-01 5.0397890346344054e+00 6.3698969425338250e+00 2.5580282351042019e+01 0 0 0
91 1 6 2.8000000000000003e-01 7.7083344027743026e+00 5.4579917016145636e+00 2.1312440744760728e+01 0 0 0
92 1 5 1.0000000000000001e-01 6.6609425246037421e+00 3.2813036864125977e+00 2.2649186037227320e+01 0 0 0
93 1 5 1.0000000000000001e-01 7.7693800857881534e+00 3.8786681433327090e+00 2.3900949190055769e+01 0 0 0
94 1 5 1.0000000000000001e-01 5.1457477099097177e+00 5.0349546273562584e+00 2.3016788043533204e+01 0 0 0
95 1 5 1.0000000000000001e-01 6.4366234800835498e+00 6.2342108702616947e+00 2.3234340239562854e+01 0 0 0
96 1 5 1.0000000000000001e-01 5.4582644104029336e+00 4.2379833820980295e+00 2.5354491996877957e+01 0 0 0
97 1 5 1.0000000000000001e-01 6.8906066959423367e+00 5.2412290683978702e+00 2.5553917149930616e+01 0 0 0
98 1 5 1.0000000000000001e-01 4.0461431700953208e+00 6.3397757941639670e+00 2.5098952144630040e+01 0 0 0
99 1 5 1.0000000000000001e-01 5.4926998009976629e+00 7.3278462163850140e+00 2.5270885619359980e+01 0 0 0
80 1 1 -2.0000000000000001e-01 4.8812746300556906e+00 6.3616020862417741e+00 2.7111199370613672e+01 0 0 0
81 1 1 2.0000000000000000e-02 4.0127807939494158e+00 7.5210914879308977e+00 2.7634960251528902e+01 0 0 0
82 1 2 -5.0000000000000000e-01 3.8257169960726722e+00 7.4686968436576846e+00 2.9089222280082993e+01 0 0 0
83 1 3 3.8000000000000000e-01 2.7564983246511465e+00 8.0578192388944760e+00 2.9615739052996258e+01 0 0 0
84 1 4 -3.8000000000000000e-01 1.9043016511783979e+00 8.6246208780846967e+00 2.8925388243568289e+01 0 0 0
85 1 1 -2.0000000000000001e-01 2.6289848861772631e+00 8.0063050989573874e+00 3.1139507621782958e+01 0 0 0
86 1 1 -2.0000000000000001e-01 1.1825743519826699e+00 8.2488652680075383e+00 3.1600474671582852e+01 0 0 0
87 1 1 -2.0000000000000001e-01 8.2988725198481228e-01 7.5708652245726897e+00 3.2940232873783287e+01 0 0 0
88 1 1 -2.0000000000000001e-01 -6.4777828393936554e-01 7.7162898112769556e+00 3.3311115472938141e+01 0 0 0
89 1 3 4.5000000000000001e-01 -9.2461430959164304e-01 6.9785937162189455e+00 3.4601070548275516e+01 0 0 0
90 1 7 -5.0000000000000000e-01 -1.8406501962066379e+00 7.3829361517942047e+00 3.5341381171163086e+01 0 0 0
100 1 5 1.0000000000000001e-01 4.4261964477266806e+00 5.4018245922994135e+00 2.7415643449219509e+01 0 0 0
101 1 5 1.0000000000000001e-01 5.8806172843467817e+00 6.4044618707111107e+00 2.7580784036310657e+01 0 0 0
102 1 5 1.0000000000000001e-01 3.0206167818992973e+00 7.4728846238364000e+00 2.7149830982317955e+01 0 0 0
103 1 5 1.0000000000000001e-01 4.4514942398980200e+00 8.5037615363090104e+00 2.7377301383645136e+01 0 0 0
104 1 6 2.8000000000000003e-01 4.5463304867207279e+00 7.1654728692421736e+00 2.9762219102733734e+01 0 0 0
105 1 5 1.0000000000000001e-01 3.2932259231321819e+00 8.7674825212827727e+00 3.1593410036426601e+01 0 0 0
106 1 5 1.0000000000000001e-01 2.9784344848122748e+00 7.0198708575934461e+00 3.1502888147122405e+01 0 0 0
107 1 5 1.0000000000000001e-01 1.0153503565794237e+00 9.3401286250387248e+00 3.1658662077471003e+01 0 0 0
108 1 5 1.0000000000000001e-01 5.0092623798131142e-01 7.8744164841734170e+00 3.0819513542596912e+01 0 0 0
109 1 5 1.0000000000000001e-01 1.4339943820629586e+00 7.9628108653394580e+00 3.3771691050539644e+01 0 0 0
110 1 5 1.0000000000000001e-01 1.0573163995205890e+00 6.4961301774332929e+00 3.2884606139332135e+01 0 0 0
111 1 5 1.0000000000000001e-01 -9.2300190095621804e-01 8.7808381933236355e+00 3.3425102731709302e+01 0 0 0
112 1 5 1.0000000000000001e-01 -1.2922397157072609e+00 7.3179834618897983e+00 3.2502086582617601e+01 0 0 0
113 1 7 -5.0000000000000000e-01 -2.2131928777512250e-01 5.9892914891028113e+00 3.4883220522038648e+01 0 0 0

Velocities

1 0.0000000000000000e+00 0.0000000000000000e+00 0.0000000000000000e+00
2 0.0000000000000000e+00 0.0000000000000000e+00 0.0000000000000000e+00
3 0.0000000000000000e+00 0.0000000000000000e+00 0.0000000000000000e+00
4 0.0000000000000000e+00 0.0000000000000000e+00 0.0000000000000000e+00
5 0.0000000000000000e+00 0.0000000000000000e+00 0.0000000000000000e+00
6 0.0000000000000000e+00 0.0000000000000000e+00 0.0000000000000000e+00
7 0.0000000000000000e+00 0.0000000000000000e+00 0.0000000000000000e+00
8 0.0000000000000000e+00 0.0000000000000000e+00 0.0000000000000000e+00
16 0.0000000000000000e+00 0.0000000000000000e+00 0.0000000000000000e+00
17 0.0000000000000000e+00 0.0000000000000000e+00 0.0000000000000000e+00
18 0.0000000000000000e+00 0.0000000000000000e+00 0.0000000000000000e+00
19 0.0000000000000000e+00 0.0000000000000000e+00 0.0000000000000000e+00
20 0.0000000000000000e+00 0.0000000000000000e+00 0.0000000000000000e+00
21 0.0000000000000000e+00 0.0000000000000000e+00 0.0000000000000000e+00
22 0.0000000000000000e+00 0.0000000000000000e+00 0.0000000000000000e+00
23 0.0000000000000000e+00 0.0000000000000000e+00 0.0000000000000000e+00
24 0.0000000000000000e+00 0.0000000000000000e+00 0.0000000000000000e+00
25 0.0000000000000000e+00 0.0000000000000000e+00 0.0000000000000000e+00
26 0.0000000000000000e+00 0.0000000000000000e+00 0.0000000000000000e+00
27 0.0000000000000000e+00 0.0000000000000000e+00 0.0000000000000000e+00
28 0.0000000000000000e+00 0.0000000000000000e+00 0.0000000000000000e+00
29 0.0000000000000000e+00 0.0000000000000000e+00 0.0000000000000000e+00
114 0.0000000000000000e+00 0.0000000000000000e+00 0.0000000000000000e+00
115 0.0000000000000000e+00 0.0000000000000000e+00 0.0000000000000000e+00
116 0.0000000000000000e+00 0.0000000000000000e+00 0.0000000000000000e+00
117 0.0000000000000000e+00 0.0000000000000000e+00 0.0000000000000000e+00
41 0.0000000000000000e+00 0.0000000000000000e+00 0.0000000000000000e+00
42 0.0000000000000000e+00 0.0000000000000000e+00 0.0000000000000000e+00
43 0.0000000000000000e+00 0.0000000000000000e+00 0.0000000000000000e+00
44 0.0000000000000000e+00 0.0000000000000000e+00 0.0000000000000000e+00
63 0.0000000000000000e+00 0.0000000000000000e+00 0.0000000000000000e+00
64 0.0000000000000000e+00 0.0000000000000000e+00 0.0000000000000000e+00
65 0.0000000000000000e+00 0.0000000000000000e+00 0.0000000000000000e+00
66 0.0000000000000000e+00 0.0000000000000000e+00 0.0000000000000000e+00
67 0.0000000000000000e+00 0.0000000000000000e+00 0.0000000000000000e+00
68 0.0000000000000000e+00 0.0000000000000000e+00 0.0000000000000000e+00
69 0.0000000000000000e+00 0.0000000000000000e+00 0.0000000000000000e+00
9 0.0000000000000000e+00 0.0000000000000000e+00 0.0000000000000000e+00
10 0.0000000000000000e+00 0.0000000000000000e+00 0.0000000000000000e+00
11 0.0000000000000000e+00 0.0000000000000000e+00 0.0000000000000000e+00
12 0.0000000000000000e+00 0.0000000000000000e+00 0.0000000000000000e+00
13 0.0000000000000000e+00 0.0000000000000000e+00 0.0000000000000000e+00
14 0.0000000000000000e+00 0.0000000000000000e+00 0.0000000000000000e+00
15 0.0000000000000000e+00 0.0000000000000000e+00 0.0000000000000000e+00
30 0.0000000000000000e+00 0.0000000000000000e+00 0.0000000000000000e+00
31 0.0000000000000000e+00 0.0000000000000000e+00 0.0000000000000000e+00
32 0.0000000000000000e+00 0.0000000000000000e+00 0.0000000000000000e+00
33 0.0000000000000000e+00 0.0000000000000000e+00 0.0000000000000000e+00
34 0.0000000000000000e+00 0.0000000000000000e+00 0.0000000000000000e+00
35 0.0000000000000000e+00 0.0000000000000000e+00 0.0000000000000000e+00
36 0.0000000000000000e+00 0.0000000000000000e+00 0.0000000000000000e+00
37 0.0000000000000000e+00 0.0000000000000000e+00 0.0000000000000000e+00
38 0.0000000000000000e+00 0.0000000000000000e+00 0.0000000000000000e+00
39 0.0000000000000000e+00 0.0000000000000000e+00 0.0000000000000000e+00
40 0.0000000000000000e+00 0.0000000000000000e+00 0.0000000000000000e+00
55 0.0000000000000000e+00 0.0000000000000000e+00 0.0000000000000000e+00
56 0.0000000000000000e+00 0.0000000000000000e+00 0.0000000000000000e+00
57 0.0000000000000000e+00 0.0000000000000000e+00 0.0000000000000000e+00
58 0.0000000000000000e+00 0.0000000000000000e+00 0.0000000000000000e+00
59 0.0000000000000000e+00 0.0000000000000000e+00 0.0000000000000000e+00
60 0.0000000000000000e+00 0.0000000000000000e+00 0.0000000000000000e+00
61 0.0000000000000000e+00 0.0000000000000000e+00 0.0000000000000000e+00
62 0.0000000000000000e+00 0.0000000000000000e+00 0.0000000000000000e+00
45 0.0000000000000000e+00 0.0000000000000000e+00 0.0000000000000000e+00
46 0.0000000000000000e+00 0.0000000000000000e+00 0.0000000000000000e+00
47 0.0000000000000000e+00 0.0000000000000000e+00 0.0000000000000000e+00
48 0.0000000000000000e+00 0.0000000000000000e+00 0.0000000000000000e+00
49 0.0000000000000000e+00 0.0000000000000000e+00 0.0000000000000000e+00
50 0.0000000000000000e+00 0.0000000000000000e+00 0.0000000000000000e+00
51 0.0000000000000000e+00 0.0000000000000000e+00 0.0000000000000000e+00
52 0.0000000000000000e+00 0.0000000000000000e+00 0.0000000000000000e+00
53 0.0000000000000000e+00 0.0000000000000000e+00 0.0000000000000000e+00
54 0.0000000000000000e+00 0.0000000000000000e+00 0.0000000000000000e+00
70 0.0000000000000000e+00 0.0000000000000000e+00 0.0000000000000000e+00
71 0.0000000000000000e+00 0.0000000000000000e+00 0.0000000000000000e+00
72 0.0000000000000000e+00 0.0000000000000000e+00 0.0000000000000000e+00
73 0.0000000000000000e+00 0.0000000000000000e+00 0.0000000000000000e+00
74 0.0000000000000000e+00 0.0000000000000000e+00 0.0000000000000000e+00
75 0.0000000000000000e+00 0.0000000000000000e+00 0.0000000000000000e+00
76 0.0000000000000000e+00 0.0000000000000000e+00 0.0000000000000000e+00
77 0.0000000000000000e+00 0.0000000000000000e+00 0.0000000000000000e+00
78 0.0000000000000000e+00 0.0000000000000000e+00 0.0000000000000000e+00
79 0.0000000000000000e+00 0.0000000000000000e+00 0.0000000000000000e+00
91 0.0000000000000000e+00 0.0000000000000000e+00 0.0000000000000000e+00
92 0.0000000000000000e+00 0.0000000000000000e+00 0.0000000000000000e+00
93 0.0000000000000000e+00 0.0000000000000000e+00 0.0000000000000000e+00
94 0.0000000000000000e+00 0.0000000000000000e+00 0.0000000000000000e+00
95 0.0000000000000000e+00 0.0000000000000000e+00 0.0000000000000000e+00
96 0.0000000000000000e+00 0.0000000000000000e+00 0.0000000000000000e+00
97 0.0000000000000000e+00 0.0000000000000000e+00 0.0000000000000000e+00
98 0.0000000000000000e+00 0.0000000000000000e+00 0.0000000000000000e+00
99 0.0000000000000000e+00 0.0000000000000000e+00 0.0000000000000000e+00
80 0.0000000000000000e+00 0.0000000000000000e+00 0.0000000000000000e+00
81 0.0000000000000000e+00 0.0000000000000000e+00 0.0000000000000000e+00
82 0.0000000000000000e+00 0.0000000000000000e+00 0.0000000000000000e+00
83 0.0000000000000000e+00 0.0000000000000000e+00 0.0000000000000000e+00
84 0.0000000000000000e+00 0.0000000000000000e+00 0.0000000000000000e+00
85 0.0000000000000000e+00 0.0000000000000000e+00 0.0000000000000000e+00
86 0.0000000000000000e+00 0.0000000000000000e+00 0.0000000000000000e+00
87 0.0000000000000000e+00 0.0000000000000000e+00 0.0000000000000000e+00
88 0.0000000000000000e+00 0.0000000000000000e+00 0.0000000000000000e+00
89 0.0000000000000000e+00 0.0000000000000000e+00 0.0000000000000000e+00
90 0.0000000000000000e+00 0.0000000000000000e+00 0.0000000000000000e+00
100 0.0000000000000000e+00 0.0000000000000000e+00 0.0000000000000000e+00
101 0.0000000000000000e+00 0.0000000000000000e+00 0.0000000000000000e+00
102 0.0000000000000000e+00 0.0000000000000000e+00 0.0000000000000000e+00
103 0.0000000000000000e+00 0.0000000000000000e+00 0.0000000000000000e+00
104 0.0000000000000000e+00 0.0000000000000000e+00 0.0000000000000000e+00
105 0.0000000000000000e+00 0.0000000000000000e+00 0.0000000000000000e+00
106 0.0000000000000000e+00 0.0000000000000000e+00 0.0000000000000000e+00
107 0.0000000000000000e+00 0.0000000000000000e+00 0.0000000000000000e+00
108 0.0000000000000000e+00 0.0000000000000000e+00 0.0000000000000000e+00
109 0.0000000000000000e+00 0.0000000000000000e+00 0.0000000000000000e+00
110 0.0000000000000000e+00 0.0000000000000000e+00 0.0000000000000000e+00
111 0.0000000000000000e+00 0.0000000000000000e+00 0.0000000000000000e+00
112 0.0000000000000000e+00 0.0000000000000000e+00 0.0000000000000000e+00
113 0.0000000000000000e+00 0.0000000000000000e+00 0.0000000000000000e+00

Bonds

1 1 1 2
2 2 1 16
3 2 1 17
4 3 1 114
5 1 2 3
6 2 2 18
7 2 2 19
8 1 3 4
9 2 3 20
10 2 3 21
11 1 4 5
12 2 4 22
13 2 4 23
14 1 5 6
15 2 5 24
16 2 5 25
17 4 6 7
18 2 6 26
19 2 6 27
20 5 7 8
21 6 7 28
22 7 8 9
23 10 115 114
24 10 116 114
25 10 117 114
26 1 41 42
27 2 41 62
28 2 41 63
29 1 42 43
30 2 42 64
31 2 42 65
32 4 43 44
33 2 43 66
34 2 43 67
35 5 44 45
36 6 44 68
37 8 10 8
38 1 10 11
39 2 10 29
40 2 10 30
41 1 11 12
42 2 11 31
43 2 11 32
44 1 12 13
45 2 12 33
46 2 12 34
47 8 13 14
48 2 13 35
49 2 13 36
50 7 14 15
51 5 37 14
52 6 37 55
53 4 38 37
54 1 38 39
55 2 38 56
56 2 38 57
57 1 39 40
58 2 39 58
59 2 39 59
60 1 40 41
61 2 40 60
62 2 40 61
63 7 45 46
64 8 47 45
65 1 47 48
66 2 47 69
67 2 47 70
68 1 48 49
69 2 48 71
70 2 48 72
71 1 49 50
72 2 49 73
73 2 49 74
74 8 50 53
75 2 50 51
76 2 50 52
77 7 53 54
78 5 75 53
79 6 75 91
80 4 76 75
81 1 76 77
82 2 76 92
83 2 76 93
84 1 77 78
85 2 77 94
86 2 77 95
87 1 78 79
88 2 78 96
89 2 78 97
90 1 79 80
91 2 79 98
92 2 79 99
93 1 80 81
94 2 80 100
95 2 80 101
96 4 81 82
97 2 81 102
98 2 81 103
99 5 82 83
100 6 82 104
101 7 83 84
102 8 85 83
103 1 85 86
104 2 85 105
105 2 85 106
106 1 86 87
107 2 86 107
108 2 86 108
109 1 87 88
110 2 87 109
111 2 87 110
112 8 88 89
113 2 88 111
114 2 88 112
115 9 89 90
116 9 89 113

Angles

1 1 2 1 16
2 1 2 1 17
3 2 2 1 114
4 3 16 1 17
5 4 16 1 114
6 4 17 1 114
7 5 1 2 3
8 1 1 2 18
9 1 1 2 19
10 1 3 2 18
11 1 3 2 19
12 3 18 2 19
13 5 2 3 4
14 1 2 3 20
15 1 2 3 21
16 1 4 3 20
17 1 4 3 21
18 3 20 3 21
19 5 3 4 5
20 1 3 4 22
21 1 3 4 23
22 1 5 4 22
23 1 5 4 23
24 3 22 4 23
25 5 4 5 6
26 1 4 5 24
27 1 4 5 25
28 1 6 5 24
29 1 6 5 25
30 3 24 5 25
31 6 5 6 7
32 1 5 6 26
33 1 5 6 27
34 7 7 6 26
35 7 7 6 27
36 3 26 6 27
37 8 6 7 8
38 9 6 7 28
39 10 8 7 28
40 11 7 8 9
41 12 10 8 7
42 13 10 8 9
43 18 1 114 115
44 18 1 114 116
45 18 1 114 117
46 19 115 114 116
47 19 115 114 117
48 19 116 114 117
49 5 40 41 42
50 1 40 41 62
51 1 40 41 63
52 1 42 41 62
53 1 42 41 63
54 3 62 41 63
55 5 41 42 43
56 1 41 42 64
57 1 41 42 65
58 1 43 42 64
59 1 43 42 65
60 3 64 42 65
61 6 42 43 44
62 1 42 43 66
63 1 42 43 67
64 7 44 43 66
65 7 44 43 67
66 3 66 43 67
67 8 43 44 45
68 9 43 44 68
69 10 45 44 68
70 14 11 10 8
71 15 8 10 29
72 15 8 10 30
73 1 11 10 29
74 1 11 10 30
75 3 29 10 30
76 5 10 11 12
77 1 10 11 31
78 1 10 11 32
79 1 12 11 31
80 1 12 11 32
81 3 31 11 32
82 5 11 12 13
83 1 11 12 33
84 1 11 12 34
85 1 13 12 33
86 1 13 12 34
87 3 33 12 34
88 14 12 13 14
89 1 12 13 35
90 1 12 13 36
91 15 14 13 35
92 15 14 13 36
93 3 35 13 36
94 13 13 14 15
95 12 13 14 37
96 11 37 14 15
97 8 38 37 14
98 10 14 37 55
99 9 38 37 55
100 6 39 38 37
101 7 37 38 56
102 7 37 38 57
103 1 39 38 56
104 1 39 38 57
105 3 56 38 57
106 5 38 39 40
107 1 38 39 58
108 1 38 39 59
109 1 40 39 58
110 1 40 39 59
111 3 58 39 59
112 5 39 40 41
113 1 39 40 60
114 1 39 40 61
115 1 41 40 60
116 1 41 40 61
117 3 60 40 61
118 11 44 45 46
119 12 47 45 44
120 13 47 45 46
121 14 48 47 45
122 15 45 47 69
123 15 45 47 70
124 1 48 47 69
125 1 48 47 70
126 3 69 47 70
127 5 47 48 49
128 1 47 48 71
129 1 47 48 72
130 1 49 48 71
131 1 49 48 72
132 3 71 48 72
133 5 48 49 50
134 1 48 49 73
135 1 48 49 74
136 1 50 49 73
137 1 50 49 74
138 3 73 49 74
139 14 49 50 53
140 1 49 50 51
141 1 49 50 52
142 15 53 50 51
143 15 53 50 52
144 3 51 50 52
145 13 50 53 54
146 12 50 53 75
147 11 75 53 54
148 8 76 75 53
149 10 53 75 91
150 9 76 75 91
151 6 77 76 75
152 7 75 76 92
153 7 75 76 93
154 1 77 76 92
155 1 77 76 93
156 3 92 76 93
157 5 76 77 78
158 1 76 77 94
159 1 76 77 95
160 1 78 77 94
161 1 78 77 95
162 3 94 77 95
163 5 77 78 79
164 1 77 78 96
165 1 77 78 97
166 1 79 78 96
167 1 79 78 97
168 3 96 78 97
169 5 78 79 80
170 1 78 79 98
171 1 78 79 99
172 1 80 79 98
173 1 80 79 99
174 3 98 79 99
175 5 79 80 81
176 1 79 80 100
177 1 79 80 101
178 1 81 80 100
179 1 81 80 101
180 3 100 80 101
181 6 80 81 82
182 1 80 81 102
183 1 80 81 103
184 7 82 81 102
185 7 82 81 103
186 3 102 81 103
187 8 81 82 83
188 9 81 82 104
189 10 83 82 104
190 11 82 83 84
191 12 85 83 82
192 13 85 83 84
193 14 86 85 83
194 15 83 85 105
195 15 83 85 106
196 1 86 85 105
197 1 86 85 106
198 3 105 85 106
199 5 85 86 87
200 1 85 86 107
201 1 85 86 108
202 1 87 86 107
203 1 87 86 108
204 3 107 86 108
205 5 86 87 88
206 1 86 87 109
207 1 86 87 110
208 1 88 87 109
209 1 88 87 110
210 3 109 87 110
211 14 87 88 89
212 1 87 88 111
213 1 87 88 112
214 15 89 88 111
215 15 89 88 112
216 3 111 88 112
217 16 88 89 90
218 16 88 89 113
219 17 90 89 113

Dihedrals

1 2 16 1 2 18
2 2 16 1 2 19
3 2 17 1 2 18
4 2 17 1 2 19
5 5 2 1 114 115
6 5 2 1 114 116
7 5 2 1 114 117
8 6 16 1 114 115
9 6 16 1 114 116
10 6 16 1 114 117
11 6 17 1 114 115
12 6 17 1 114 116
13 6 17 1 114 117
14 1 3 2 1 16
15 1 3 2 1 17
16 3 3 2 1 114
17 4 18 2 1 114
18 4 19 2 1 114
19 7 1 2 3 4
20 1 1 2 3 20
21 1 1 2 3 21
22 2 18 2 3 20
23 2 18 2 3 21
24 2 19 2 3 20
25 2 19 2 3 21
26 1 4 3 2 18
27 1 4 3 2 19
28 7 2 3 4 5
29 1 2 3 4 22
30 1 2 3 4 23
31 2 20 3 4 22
32 2 20 3 4 23
33 2 21 3 4 22
34 2 21 3 4 23
35 1 5 4 3 20
36 1 5 4 3 21
37 7 3 4 5 6
38 1 3 4 5 24
39 1 3 4 5 25
40 2 22 4 5 24
41 2 22 4 5 25
42 2 23 4 5 24
43 2 23 4 5 25
44 1 6 5 4 22
45 1 6 5 4 23
46 8 4 5 6 7
47 1 4 5 6 26
48 1 4 5 6 27
49 2 24 5 6 26
50 2 24 5 6 27
51 2 25 5 6 26
52 2 25 5 6 27
53 9 7 6 5 24
54 9 7 6 5 25
55 10 5 6 7 8
56 11 5 6 7 28
57 12 26 6 7 8
58 13 26 6 7 28
59 12 27 6 7 8
60 13 27 6 7 28
61 14 6 7 8 9
62 15 6 7 8 10
63 16 28 7 8 9
64 17 28 7 8 10
65 1 42 41 40 60
66 1 42 41 40 61
67 7 40 41 42 43
68 1 40 41 42 64
69 1 40 41 42 65
70 2 62 41 42 64
71 2 62 41 42 65
72 2 63 41 42 64
73 2 63 41 42 65
74 1 43 42 41 62
75 1 43 42 41 63
76 8 41 42 43 44
77 1 41 42 43 66
78 1 41 42 43 67
79 2 64 42 43 66
80 2 64 42 43 67
81 2 65 42 43 66
82 2 65 42 43 67
83 9 44 43 42 64
84 9 44 43 42 65
85 10 42 43 44 45
86 11 42 43 44 68
87 12 66 43 44 45
88 13 66 43 44 68
89 12 67 43 44 45
90 13 67 43 44 68
91 14 43 44 45 46
92 15 43 44 45 47
93 16 68 44 45 46
94 17 68 44 45 47
95 18 11 10 8 7
96 19 29 10 8 7
97 19 30 10 8 7
98 20 11 10 8 9
99 21 29 10 8 9
100 21 30 10 8 9
101 23 8 10 11 31
102 23 8 10 11 32
103 2 29 10 11 31
104 2 29 10 11 32
105 2 30 10 11 31
106 2 30 10 11 32
107 22 12 11 10 8
108 1 12 11 10 29
109 1 12 11 10 30
110 7 10 11 12 13
111 1 10 11 12 33
112 1 10 11 12 34
113 2 31 11 12 33
114 2 31 11 12 34
115 2 32 11 12 33
116 2 32 11 12 34
117 1 13 12 11 31
118 1 13 12 11 32
119 22 11 12 13 14
120 1 11 12 13 35
121 1 11 12 13 36
122 2 33 12 13 35
123 2 33 12 13 36
124 2 34 12 13 35
125 2 34 12 13 36
126 23 14 13 12 33
127 23 14 13 12 34
128 20 12 13 14 15
129 18 12 13 14 37
130 21 35 13 14 15
131 19 35 13 14 37
132 21 36 13 14 15
133 19 36 13 14 37
134 15 38 37 14 13
135 17 55 37 14 13
136 14 38 37 14 15
137 16 55 37 14 15
138 10 39 38 37 14
139 12 56 38 37 14
140 12 57 38 37 14
141 11 39 38 37 55
142 13 56 38 37 55
143 13 57 38 37 55
144 9 37 38 39 58
145 9 37 38 39 59
146 2 56 38 39 58
147 2 56 38 39 59
148 2 57 38 39 58
149 2 57 38 39 59
150 8 40 39 38 37
151 1 40 39 38 56
152 1 40 39 38 57
153 7 38 39 40 41
154 1 38 39 40 60
155 1 38 39 40 61
156 2 58 39 40 60
157 2 58 39 40 61
158 2 59 39 40 60
159 2 59 39 40 61
160 1 41 40 39 58
161 1 41 40 39 59
162 7 39 40 41 42
163 1 39 40 41 62
164 1 39 40 41 63
165 2 60 40 41 62
166 2 60 40 41 63
167 2 61 40 41 62
168 2 61 40 41 63
169 18 48 47 45 44
170 19 69 47 45 44
171 19 70 47 45 44
172 20 48 47 45 46
173 21 69 47 45 46
174 21 70 47 45 46
175 23 45 47 48 71
176 23 45 47 48 72
177 2 69 47 48 71
178 2 69 47 48 72
179 2 70 47 48 71
180 2 70 47 48 72
181 22 49 48 47 45
182 1 49 48 47 69
183 1 49 48 47 70
184 7 47 48 49 50
185 1 47 48 49 73
186 1 47 48 49 74
187 2 71 48 49 73
188 2 71 48 49 74
189 2 72 48 49 73
190 2 72 48 49 74
191 1 50 49 48 71
192 1 50 49 48 72
193 22 48 49 50 53
194 1 48 49 50 51