LAMMPS data file. msi2lmp v3.9.7 / 24 Oct 2015 / CGCMM for pmma-poly-class2c

    152 atoms
    151 bonds
    280 angles
    371 dihedrals
    170 impropers

   8 atom types
  12 bond types
  26 angle types
  35 dihedral types
  19 improper types

    -3.031181000    16.410415000 xlo xhi
   -14.383047000     6.110202000 ylo yhi
   -11.174386000     3.653585000 zlo zhi

Masses

   1  12.011150 # c
   2  12.011150 # c3
   3  12.011150 # c_1
   4  15.999400 # o_2
   5   1.007970 # hc
   6  15.999400 # o_1
   7  12.011150 # c2
   8  12.011150 # c1

Pair Coeffs # lj/class2/coul/long

   1   0.0540000000   4.0100000000 # c
   2   0.0540000000   4.0100000000 # c3
   3   0.1200000000   3.8100000000 # c_1
   4   0.2400000000   3.4200000000 # o_2
   5   0.0200000000   2.9950000000 # hc
   6   0.2670000000   3.3000000000 # o_1
   7   0.0540000000   4.0100000000 # c2
   8   0.0540000000   4.0100000000 # c1

Bond Coeffs # class2

   1     1.5202   253.7067  -423.0370   396.9000 # c-c_1
   2     1.5300   299.6700  -501.7700   679.8100 # c-c3
   3     1.5300   299.6700  -501.7700   679.8100 # c-c2
   4     1.1010   345.0000  -691.8900   844.6000 # c3-hc
   5     1.3683   367.1481  -794.7908  1055.2319 # c_1-o_2
   6     1.2020   851.1403 -1918.4882  2160.7659 # c_1-o_1
   7     1.4300   326.7273  -608.5306   689.0333 # c3-o_2
   8     1.1010   345.0000  -691.8900   844.6000 # hc-c2
   9     1.1010   345.0000  -691.8900   844.6000 # hc-c1
  10     1.5202   253.7067  -423.0370   396.9000 # c_1-c1
  11     1.5300   299.6700  -501.7700   679.8100 # c2-c1
  12     1.5300   299.6700  -501.7700   679.8100 # c3-c1

Angle Coeffs # class2

   1   108.5295    51.9747    -9.4851   -10.9985 # c3-c-c_1
   2   108.5295    51.9747    -9.4851   -10.9985 # c_1-c-c2
   3   112.6700    39.5160    -7.4430    -9.5583 # c3-c-c3
   4   112.6700    39.5160    -7.4430    -9.5583 # c3-c-c2
   5   107.6600    39.6410   -12.9210    -2.4318 # hc-c3-hc
   6   110.7700    41.4530   -10.6040     5.1290 # c-c3-hc
   7   100.3182    38.8631    -3.8323    -7.9802 # c-c_1-o_2
   8   123.1451    55.5431   -17.2123     0.1348 # c-c_1-o_1
   9   120.7970    95.3446   -32.2869     6.3778 # o_2-c_1-o_1
  10   113.2880    61.2868   -28.9786     7.9929 # c3-o_2-c_1
  11   107.6880    65.4801   -10.3498     5.8866 # o_2-c3-hc
  12   112.6700    39.5160    -7.4430    -9.5583 # c2-c-c2
  13   107.6600    39.6410   -12.9210    -2.4318 # hc-c2-hc
  14   110.7700    41.4530   -10.6040     5.1290 # c-c2-hc
  15   112.6700    39.5160    -7.4430    -9.5583 # c-c2-c
  16   107.7336    40.6099   -28.8121     0.0000 # c_1-c1-hc
  17   110.7700    41.4530   -10.6040     5.1290 # hc-c1-c2
  18   110.7700    41.4530   -10.6040     5.1290 # c3-c1-hc
  19   108.5295    51.9747    -9.4851   -10.9985 # c_1-c1-c2
  20   108.5295    51.9747    -9.4851   -10.9985 # c3-c1-c_1
  21   112.6700    39.5160    -7.4430    -9.5583 # c3-c1-c2
  22   110.7700    41.4530   -10.6040     5.1290 # hc-c2-c1
  23   112.6700    39.5160    -7.4430    -9.5583 # c-c2-c1
  24   100.3182    38.8631    -3.8323    -7.9802 # o_2-c_1-c1
  25   123.1451    55.5431   -17.2123     0.1348 # o_1-c_1-c1
  26   110.7700    41.4530   -10.6040     5.1290 # hc-c3-c1

Dihedral Coeffs # class2

   1     1.8341     0.0000     2.0603     0.0000    -0.0195     0.0000# c3-c-c_1-o_2
   2     0.0442     0.0000     0.0292     0.0000     0.0562     0.0000# c3-c-c_1-o_1
   3     1.8341     0.0000     2.0603     0.0000    -0.0195     0.0000# c2-c-c_1-o_2
   4     0.0442     0.0000     0.0292     0.0000     0.0562     0.0000# c2-c-c_1-o_1
   5    -0.0228     0.0000     0.0280     0.0000    -0.1863     0.0000# c_1-c-c3-hc
   6     0.0000     0.0000     0.0316     0.0000    -0.1681     0.0000# c3-c-c3-hc
   7     0.0000     0.0000     0.0316     0.0000    -0.1681     0.0000# c2-c-c3-hc
   8    -0.0228     0.0000     0.0280     0.0000    -0.1863     0.0000# c_1-c-c2-hc
   9     0.0972     0.0000     0.0722     0.0000    -0.2581     0.0000# c_1-c-c2-c
  10     0.0000     0.0000     0.0316     0.0000    -0.1681     0.0000# c3-c-c2-hc
  11     0.0000     0.0000     0.0514     0.0000    -0.1430     0.0000# c3-c-c2-c
  12    -2.5594     0.0000     2.2013     0.0000     0.0325     0.0000# c-c_1-o_2-c3
  13    -2.5594     0.0000     2.2013     0.0000     0.0325     0.0000# o_1-c_1-o_2-c3
  14     0.0000     0.0000     0.0000     0.0000    -0.1932     0.0000# hc-c3-o_2-c_1
  15     0.0000     0.0000     0.0316     0.0000    -0.1681     0.0000# c2-c-c2-hc
  16     0.0000     0.0000     0.0514     0.0000    -0.1430     0.0000# c2-c-c2-c
  17     0.0972     0.0000     0.0722     0.0000    -0.2581     0.0000# c_1-c-c2-c1
  18     0.0000     0.0000     0.0514     0.0000    -0.1430     0.0000# c2-c-c2-c1
  19     0.0000     0.0000     0.0514     0.0000    -0.1430     0.0000# c3-c-c2-c1
  20    -0.6359     0.0000     1.4807     0.0000    -0.0438     0.0000# o_2-c_1-c1-hc
  21    -0.1804     0.0000     0.0012     0.0000     0.0371     0.0000# o_1-c_1-c1-hc
  22     1.8341     0.0000     2.0603     0.0000    -0.0195     0.0000# o_2-c_1-c1-c2
  23     0.0442     0.0000     0.0292     0.0000     0.0562     0.0000# o_1-c_1-c1-c2
  24     1.8341     0.0000     2.0603     0.0000    -0.0195     0.0000# o_2-c_1-c1-c3
  25     0.0442     0.0000     0.0292     0.0000     0.0562     0.0000# o_1-c_1-c1-c3
  26    -0.1432     0.0000     0.0617     0.0000    -0.1083     0.0000# hc-c2-c1-hc
  27     0.0000     0.0000     0.0316     0.0000    -0.1681     0.0000# c-c2-c1-hc
  28    -0.0228     0.0000     0.0280     0.0000    -0.1863     0.0000# hc-c2-c1-c_1
  29     0.0972     0.0000     0.0722     0.0000    -0.2581     0.0000# c-c2-c1-c_1
  30     0.0000     0.0000     0.0316     0.0000    -0.1681     0.0000# hc-c2-c1-c3
  31     0.0000     0.0000     0.0514     0.0000    -0.1430     0.0000# c-c2-c1-c3
  32    -0.1432     0.0000     0.0617     0.0000    -0.1083     0.0000# hc-c3-c1-hc
  33    -0.0228     0.0000     0.0280     0.0000    -0.1863     0.0000# hc-c3-c1-c_1
  34     0.0000     0.0000     0.0316     0.0000    -0.1681     0.0000# hc-c3-c1-c2
  35    -2.5594     0.0000     2.2013     0.0000     0.0325     0.0000# c1-c_1-o_2-c3

Improper Coeffs # class2

  1    46.9264     0.0000 # c-c_1-o_2-o_1
  2    46.9264     0.0000 # o_2-c_1-o_1-c1
  3     0.0000     0.0000 
  4     0.0000     0.0000 
  5     0.0000     0.0000 
  6     0.0000     0.0000 
  7     0.0000     0.0000 
  8     0.0000     0.0000 
  9     0.0000     0.0000 
 10     0.0000     0.0000 
 11     0.0000     0.0000 
 12     0.0000     0.0000 
 13     0.0000     0.0000 
 14     0.0000     0.0000 
 15     0.0000     0.0000 
 16     0.0000     0.0000 
 17     0.0000     0.0000 
 18     0.0000     0.0000 
 19     0.0000     0.0000 

BondBond Coeffs

  1     5.4199     1.5300     1.5202 
  2     5.4199     1.5202     1.5300 
  3     0.0000     1.5300     1.5300 
  4     0.0000     1.5300     1.5300 
  5     5.3316     1.1010     1.1010 
  6     3.3872     1.5300     1.1010 
  7    19.1069     1.5202     1.3683 
  8    46.0685     1.5202     1.2020 
  9   121.4880     1.3683     1.2020 
 10    45.4503     1.4300     1.3683 
 11     5.6454     1.4300     1.1010 
 12     0.0000     1.5300     1.5300 
 13     5.3316     1.1010     1.1010 
 14     3.3872     1.5300     1.1010 
 15     0.0000     1.5300     1.5300 
 16     0.7115     1.5202     1.1010 
 17     3.3872     1.1010     1.5300 
 18     3.3872     1.5300     1.1010 
 19     5.4199     1.5202     1.5300 
 20     5.4199     1.5300     1.5202 
 21     0.0000     1.5300     1.5300 
 22     3.3872     1.1010     1.5300 
 23     0.0000     1.5300     1.5300 
 24    19.1069     1.3683     1.5202 
 25    46.0685     1.2020     1.5202 
 26     3.3872     1.1010     1.5300 

BondAngle Coeffs

  1    18.1678    15.8758     1.5300     1.5202 
  2    15.8758    18.1678     1.5202     1.5300 
  3     8.0160     8.0160     1.5300     1.5300 
  4     8.0160     8.0160     1.5300     1.5300 
  5    18.1030    18.1030     1.1010     1.1010 
  6    20.7540    11.4210     1.5300     1.1010 
  7     1.3435     4.6978     1.5202     1.3683 
  8    34.9982    37.1298     1.5202     1.2020 
  9    71.8761    76.2614     1.3683     1.2020 
 10    41.9116    46.4608     1.4300     1.3683 
 11    57.4975     8.6864     1.4300     1.1010 
 12     8.0160     8.0160     1.5300     1.5300 
 13    18.1030    18.1030     1.1010     1.1010 
 14    20.7540    11.4210     1.5300     1.1010 
 15     8.0160     8.0160     1.5300     1.5300 
 16    12.4632     9.1765     1.5202     1.1010 
 17    11.4210    20.7540     1.1010     1.5300 
 18    20.7540    11.4210     1.5300     1.1010 
 19    15.8758    18.1678     1.5202     1.5300 
 20    18.1678    15.8758     1.5300     1.5202 
 21     8.0160     8.0160     1.5300     1.5300 
 22    11.4210    20.7540     1.1010     1.5300 
 23     8.0160     8.0160     1.5300     1.5300 
 24     4.6978     1.3435     1.3683     1.5202 
 25    37.1298    34.9982     1.2020     1.5202 
 26    11.4210    20.7540     1.1010     1.5300 

AngleAngle Coeffs

  1     0.0000     0.0000     0.0000   100.3182   120.7970   123.1451 
  2     0.0000     0.0000     0.0000   120.7970   123.1451   100.3182 
  3     0.0000     0.0000     0.0000   112.6700   108.5295   108.5295 
  4     0.0000     0.0000     0.0000   108.5295   108.5295   112.6700 
  5    -0.1729    -0.1729    -0.1729   112.6700   112.6700   112.6700 
  6    -0.3157    -0.3157    -0.3157   107.6600   107.6600   107.6600 
  7     0.2738    -0.4825     0.2738   110.7700   107.6600   110.7700 
  8     0.0000     0.0000     0.0000   107.6880   107.6600   107.6880 
  9     0.0000     0.0000     0.0000   108.5295   112.6700   108.5295 
 10    -0.1729    -0.1729    -0.1729   112.6700   112.6700   112.6700 
 11     0.2738    -0.4825     0.2738   110.7700   107.6600   110.7700 
 12    -1.3199    -1.3199     0.1184   112.6700   110.7700   110.7700 
 13     1.0827     2.0403    -1.8202   107.7336   110.7700   108.5295 
 14     2.0403    -1.8202     1.0827   108.5295   107.7336   110.7700 
 15     0.1184    -1.3199    -1.3199   110.7700   110.7700   112.6700 
 16     0.0000     0.0000     0.0000   108.5295   108.5295   112.6700 
 17     0.2738     0.2738    -0.4825   107.6600   110.7700   110.7700 
 18     0.1184    -1.3199    -1.3199   110.7700   110.7700   112.6700 
 19     0.2738     0.2738    -0.4825   107.6600   110.7700   110.7700 

AngleAngleTorsion Coeffs

  1     0.0000   108.5295   100.3182 
  2    -8.0190   108.5295   123.1451 
  3     0.0000   108.5295   100.3182 
  4    -8.0190   108.5295   123.1451 
  5    -5.3624   108.5295   110.7700 
  6   -16.1640   112.6700   110.7700 
  7   -16.1640   112.6700   110.7700 
  8    -5.3624   108.5295   110.7700 
  9    -0.3801   108.5295   112.6700 
 10   -16.1640   112.6700   110.7700 
 11   -22.0450   112.6700   112.6700 
 12     0.0000   100.3182   113.2880 
 13     0.0000   120.7970   113.2880 
 14     0.0000   107.6880   113.2880 
 15   -16.1640   112.6700   110.7700 
 16   -22.0450   112.6700   112.6700 
 17    -0.3801   108.5295   112.6700 
 18   -22.0450   112.6700   112.6700 
 19   -22.0450   112.6700   112.6700 
 20     0.0000   100.3182   107.7336 
 21   -15.3496   123.1451   107.7336 
 22     0.0000   100.3182   108.5295 
 23    -8.0190   123.1451   108.5295 
 24     0.0000   100.3182   108.5295 
 25    -8.0190   123.1451   108.5295 
 26   -12.5640   110.7700   110.7700 
 27   -16.1640   112.6700   110.7700 
 28    -5.3624   110.7700   108.5295 
 29    -0.3801   112.6700   108.5295 
 30   -16.1640   110.7700   112.6700 
 31   -22.0450   112.6700   112.6700 
 32   -12.5640   110.7700   110.7700 
 33    -5.3624   110.7700   108.5295 
 34   -16.1640   110.7700   112.6700 
 35     0.0000   100.3182   113.2880 

EndBondTorsion Coeffs

1     0.0000     0.0000     0.0000     0.0000     0.0000     0.0000     1.5300     1.3683 
2     0.2654     0.0503     0.1046    -0.2810     0.0816    -0.1522     1.5300     1.2020 
3     0.0000     0.0000     0.0000     0.0000     0.0000     0.0000     1.5300     1.3683 
4     0.2654     0.0503     0.1046    -0.2810     0.0816    -0.1522     1.5300     1.2020 
5    -0.0204     0.3628    -0.4426    -0.0097    -0.0315    -0.0755     1.5202     1.1010 
6     0.2486     0.2422    -0.0925     0.0814     0.0591     0.2219     1.5300     1.1010 
7     0.2486     0.2422    -0.0925     0.0814     0.0591     0.2219     1.5300     1.1010 
8    -0.0204     0.3628    -0.4426    -0.0097    -0.0315    -0.0755     1.5202     1.1010 
9     0.0055     0.0060    -0.0009     0.0062    -0.0002     0.0036     1.5202     1.5300 
10     0.2486     0.2422    -0.0925     0.0814     0.0591     0.2219     1.5300     1.1010 
11    -0.0732     0.0000     0.0000    -0.0732     0.0000     0.0000     1.5300     1.5300 
12     0.0000     0.0000     0.0000     0.0000     0.0000     0.0000     1.5202     1.4300 
13     0.0000     0.0000     0.0000     0.0000     0.0000     0.0000     1.2020     1.4300 
14     0.0000     0.0000     0.0000     0.0000     0.0000     0.0000     1.1010     1.3683 
15     0.2486     0.2422    -0.0925     0.0814     0.0591     0.2219     1.5300     1.1010 
16    -0.0732     0.0000     0.0000    -0.0732     0.0000     0.0000     1.5300     1.5300 
17     0.0055     0.0060    -0.0009     0.0062    -0.0002     0.0036     1.5202     1.5300 
18    -0.0732     0.0000     0.0000    -0.0732     0.0000     0.0000     1.5300     1.5300 
19    -0.0732     0.0000     0.0000    -0.0732     0.0000     0.0000     1.5300     1.5300 
20     0.0000     0.0000     0.0000     0.0000     0.0000     0.0000     1.3683     1.1010 
21    -0.2298     0.0354     0.3853     1.2143     0.2831     0.3916     1.2020     1.1010 
22     0.0000     0.0000     0.0000     0.0000     0.0000     0.0000     1.3683     1.5300 
23    -0.2810     0.0816    -0.1522     0.2654     0.0503     0.1046     1.2020     1.5300 
24     0.0000     0.0000     0.0000     0.0000     0.0000     0.0000     1.3683     1.5300 
25    -0.2810     0.0816    -0.1522     0.2654     0.0503     0.1046     1.2020     1.5300 
26     0.2130     0.3120     0.0777     0.2130     0.3120     0.0777     1.1010     1.1010 
27     0.2486     0.2422    -0.0925     0.0814     0.0591     0.2219     1.5300     1.1010 
28    -0.0097    -0.0315    -0.0755    -0.0204     0.3628    -0.4426     1.1010     1.5202 
29     0.0062    -0.0002     0.0036     0.0055     0.0060    -0.0009     1.5300     1.5202 
30     0.0814     0.0591     0.2219     0.2486     0.2422    -0.0925     1.1010     1.5300 
31    -0.0732     0.0000     0.0000    -0.0732     0.0000     0.0000     1.5300     1.5300 
32     0.2130     0.3120     0.0777     0.2130     0.3120     0.0777     1.1010     1.1010 
33    -0.0097    -0.0315    -0.0755    -0.0204     0.3628    -0.4426     1.1010     1.5202 
34     0.0814     0.0591     0.2219     0.2486     0.2422    -0.0925     1.1010     1.5300 
35     0.0000     0.0000     0.0000     0.0000     0.0000     0.0000     1.5202     1.4300 

MiddleBondTorsion Coeffs

  1   -17.3280    -5.7900    -3.2114     1.5202 
  2     0.3388    -0.1096     0.1219     1.5202 
  3   -17.3280    -5.7900    -3.2114     1.5202 
  4     0.3388    -0.1096     0.1219     1.5202 
  5    -3.5039     1.2458    -0.7610     1.5300 
  6   -14.8790    -3.6581    -0.3138     1.5300 
  7   -14.8790    -3.6581    -0.3138     1.5300 
  8    -3.5039     1.2458    -0.7610     1.5300 
  9    -1.5945     0.2267    -0.6911     1.5300 
 10   -14.8790    -3.6581    -0.3138     1.5300 
 11   -17.7870    -7.1877     0.0000     1.5300 
 12     1.3445     3.5515    -4.9202     1.3683 
 13     4.2600     0.0000     0.0000     1.3683 
 14     0.0000     0.0000     0.0000     1.4300 
 15   -14.8790    -3.6581    -0.3138     1.5300 
 16   -17.7870    -7.1877     0.0000     1.5300 
 17    -1.5945     0.2267    -0.6911     1.5300 
 18   -17.7870    -7.1877     0.0000     1.5300 
 19   -17.7870    -7.1877     0.0000     1.5300 
 20   -13.7686    -2.5959     1.1934     1.5202 
 21     0.2359     0.9139     0.9594     1.5202 
 22   -17.3280    -5.7900    -3.2114     1.5202 
 23     0.3388    -0.1096     0.1219     1.5202 
 24   -17.3280    -5.7900    -3.2114     1.5202 
 25     0.3388    -0.1096     0.1219     1.5202 
 26   -14.2610    -0.5322    -0.4864     1.5300 
 27   -14.8790    -3.6581    -0.3138     1.5300 
 28    -3.5039     1.2458    -0.7610     1.5300 
 29    -1.5945     0.2267    -0.6911     1.5300 
 30   -14.8790    -3.6581    -0.3138     1.5300 
 31   -17.7870    -7.1877     0.0000     1.5300 
 32   -14.2610    -0.5322    -0.4864     1.5300 
 33    -3.5039     1.2458    -0.7610     1.5300 
 34   -14.8790    -3.6581    -0.3138     1.5300 
 35     1.3445     3.5515    -4.9202     1.3683 

BondBond13 Coeffs

  1     0.0000     1.5300     1.3683 
  2     0.0000     1.5300     1.2020 
  3     0.0000     1.5300     1.3683 
  4     0.0000     1.5300     1.2020 
  5     0.0000     1.5202     1.1010 
  6     0.0000     1.5300     1.1010 
  7     0.0000     1.5300     1.1010 
  8     0.0000     1.5202     1.1010 
  9     0.0000     1.5202     1.5300 
 10     0.0000     1.5300     1.1010 
 11     0.0000     1.5300     1.5300 
 12     0.0000     1.5202     1.4300 
 13     0.0000     1.2020     1.4300 
 14     0.0000     1.1010     1.3683 
 15     0.0000     1.5300     1.1010 
 16     0.0000     1.5300     1.5300 
 17     0.0000     1.5202     1.5300 
 18     0.0000     1.5300     1.5300 
 19     0.0000     1.5300     1.5300 
 20     0.0000     1.3683     1.1010 
 21     0.0000     1.2020     1.1010 
 22     0.0000     1.3683     1.5300 
 23     0.0000     1.2020     1.5300 
 24     0.0000     1.3683     1.5300 
 25     0.0000     1.2020     1.5300 
 26     0.0000     1.1010     1.1010 
 27     0.0000     1.5300     1.1010 
 28     0.0000     1.1010     1.5202 
 29     0.0000     1.5300     1.5202 
 30     0.0000     1.1010     1.5300 
 31     0.0000     1.5300     1.5300 
 32     0.0000     1.1010     1.1010 
 33     0.0000     1.1010     1.5202 
 34     0.0000     1.1010     1.5300 
 35     0.0000     1.5202     1.4300 

AngleTorsion Coeffs

  1     0.0000     0.0000     0.0000     0.0000     0.0000     0.0000   108.5295   100.3182 
  2     0.0885    -1.3703    -0.5452     0.6750     0.5965     0.6725   108.5295   123.1451 
  3     0.0000     0.0000     0.0000     0.0000     0.0000     0.0000   108.5295   100.3182 
  4     0.0885    -1.3703    -0.5452     0.6750     0.5965     0.6725   108.5295   123.1451 
  5    -0.7466    -0.9448    -0.6321     0.0162     1.4211    -1.4092   108.5295   110.7700 
  6    -0.2454     0.0000    -0.1136     0.3113     0.4516    -0.1988   112.6700   110.7700 
  7    -0.2454     0.0000    -0.1136     0.3113     0.4516    -0.1988   112.6700   110.7700 
  8    -0.7466    -0.9448    -0.6321     0.0162     1.4211    -1.4092   108.5295   110.7700 
  9     0.0515    -0.0674    -0.0474    -0.2607     0.3203    -0.2283   108.5295   112.6700 
 10    -0.2454     0.0000    -0.1136     0.3113     0.4516    -0.1988   112.6700   110.7700 
 11     0.3886    -0.3139     0.1389     0.3886    -0.3139     0.1389   112.6700   112.6700 
 12     0.0000     0.0000     0.0000     0.0000     0.0000     0.0000   100.3182   113.2880 
 13     0.0000     0.0000     0.0000     0.0000     0.0000     0.0000   120.7970   113.2880 
 14     0.0000     0.0000     0.0000     0.0000     0.0000     0.0000   107.6880   113.2880 
 15    -0.2454     0.0000    -0.1136     0.3113     0.4516    -0.1988   112.6700   110.7700 
 16     0.3886    -0.3139     0.1389     0.3886    -0.3139     0.1389   112.6700   112.6700 
 17     0.0515    -0.0674    -0.0474    -0.2607     0.3203    -0.2283   108.5295   112.6700 
 18     0.3886    -0.3139     0.1389     0.3886    -0.3139     0.1389   112.6700   112.6700 
 19     0.3886    -0.3139     0.1389     0.3886    -0.3139     0.1389   112.6700   112.6700 
 20     0.0000     0.0000     0.0000     0.0000     0.0000     0.0000   100.3182   107.7336 
 21    -1.4946     0.7308    -0.2083     9.1299    -0.4847     0.3582   123.1451   107.7336 
 22     0.0000     0.0000     0.0000     0.0000     0.0000     0.0000   100.3182   108.5295 
 23     0.6750     0.5965     0.6725     0.0885    -1.3703    -0.5452   123.1451   108.5295 
 24     0.0000     0.0000     0.0000     0.0000     0.0000     0.0000   100.3182   108.5295 
 25     0.6750     0.5965     0.6725     0.0885    -1.3703    -0.5452   123.1451   108.5295 
 26    -0.8085     0.5569    -0.2466    -0.8085     0.5569    -0.2466   110.7700   110.7700 
 27    -0.2454     0.0000    -0.1136     0.3113     0.4516    -0.1988   112.6700   110.7700 
 28     0.0162     1.4211    -1.4092    -0.7466    -0.9448    -0.6321   110.7700   108.5295 
 29    -0.2607     0.3203    -0.2283     0.0515    -0.0674    -0.0474   112.6700   108.5295 
 30     0.3113     0.4516    -0.1988    -0.2454     0.0000    -0.1136   110.7700   112.6700 
 31     0.3886    -0.3139     0.1389     0.3886    -0.3139     0.1389   112.6700   112.6700 
 32    -0.8085     0.5569    -0.2466    -0.8085     0.5569    -0.2466   110.7700   110.7700 
 33     0.0162     1.4211    -1.4092    -0.7466    -0.9448    -0.6321   110.7700   108.5295 
 34     0.3113     0.4516    -0.1988    -0.2454     0.0000    -0.1136   110.7700   112.6700 
 35     0.0000     0.0000     0.0000     0.0000     0.0000     0.0000   100.3182   113.2880 

Atoms # full

      1      1   1  0.000000    -0.633418000     3.634698000    -0.520447000   0   0   0 # c
      2      1   2 -0.159000    -1.681078000     4.738564000    -0.675925000   0   0   0 # c3
      3      1   3  0.266000    -1.387493000     2.511538000     0.201451000   0   0   0 # c_1
      4      1   4 -0.266000    -0.833117000     2.333802000     1.415262000   0   0   0 # o_2
      5      1   2 -0.026000    -1.417542000     1.295223000     2.194265000   0   0   0 # c3
      6      1   5  0.053000    -2.476360000     1.527665000     2.374308000   0   0   0 # hc
      7      1   5  0.053000    -2.531181000     4.392408000    -1.284049000   0   0   0 # hc
      8      1   5  0.053000    -0.886560000     1.228488000     3.153585000   0   0   0 # hc
      9      1   5  0.053000    -1.228588000     5.610202000    -1.173631000   0   0   0 # hc
     10      1   5  0.053000    -2.070284000     5.062610000     0.301509000   0   0   0 # hc
     11      1   5  0.053000    -1.325591000     0.341689000     1.655498000   0   0   0 # hc
     12      1   2 -0.159000     0.512831000     4.150735000     0.351569000   0   0   0 # c3
     13      1   5  0.053000     1.055972000     4.940079000    -0.192088000   0   0   0 # hc
     14      1   5  0.053000     1.238964000     3.371721000     0.627844000   0   0   0 # hc
     15      1   5  0.053000     0.117814000     4.600272000     1.276936000   0   0   0 # hc
     16      1   6 -0.133000    -2.322596000     1.880616000    -0.204263000   0   0   0 # o_1
     17      2   1  0.000000     0.804693000     2.145964000    -2.336744000   0   0   0 # c
     18      2   7 -0.106000    -0.294421000     3.170838000    -1.953678000   0   0   0 # c2
     19      2   3  0.266000     2.138571000     2.832879000    -2.103460000   0   0   0 # c_1
     20      2   4 -0.266000     2.372145000     3.671394000    -3.131947000   0   0   0 # o_2
     21      2   2 -0.026000     3.602748000     4.383361000    -3.054350000   0   0   0 # c3
     22      2   5  0.053000     3.610506000     4.998838000    -2.143924000   0   0   0 # hc
     23      2   5  0.053000     3.694800000     5.030836000    -3.937109000   0   0   0 # hc
     24      2   5  0.053000    -1.235915000     2.773341000    -2.374311000   0   0   0 # hc
     25      2   5  0.053000    -0.081285000     4.091302000    -2.526023000   0   0   0 # hc
     26      2   5  0.053000     4.436044000     3.667105000    -3.035015000   0   0   0 # hc
     27      2   2 -0.159000     0.611666000     1.991584000    -3.851496000   0   0   0 # c3
     28      2   5  0.053000    -0.289273000     1.387825000    -4.043900000   0   0   0 # hc
     29      2   5  0.053000     1.463121000     1.506181000    -4.351096000   0   0   0 # hc
     30      2   5  0.053000     0.447238000     2.968089000    -4.333583000   0   0   0 # hc
     31      2   6 -0.133000     2.890594000     2.696257000    -1.179564000   0   0   0 # o_1
     32      3   1  0.000000     1.397177000    -0.496953000    -1.800162000   0   0   0 # c
     33      3   7 -0.106000     0.691539000     0.852868000    -1.495129000   0   0   0 # c2
     34      3   3  0.266000     0.695638000    -1.078791000    -3.017470000   0   0   0 # c_1
     35      3   4 -0.266000    -0.433002000    -1.685271000    -2.599657000   0   0   0 # o_2
     36      3   2 -0.026000    -1.200644000    -2.295669000    -3.631502000   0   0   0 # c3
     37      3   5  0.053000    -1.507749000    -1.530598000    -4.358027000   0   0   0 # hc
     38      3   5  0.053000    -2.091554000    -2.757962000    -3.184979000   0   0   0 # hc
     39      3   5  0.053000     0.980971000     1.115979000    -0.462722000   0   0   0 # hc
     40      3   5  0.053000    -0.384900000     0.614574000    -1.458910000   0   0   0 # hc
     41      3   5  0.053000    -0.594468000    -3.067094000    -4.126610000   0   0   0 # hc
     42      3   2 -0.159000     1.017164000    -1.351769000    -0.581861000   0   0   0 # c3
     43      3   5  0.053000     1.624485000    -1.039640000     0.282512000   0   0   0 # hc
     44      3   5  0.053000     1.174800000    -2.428888000    -0.737066000   0   0   0 # hc
     45      3   5  0.053000    -0.036762000    -1.199383000    -0.300261000   0   0   0 # hc
     46      3   6 -0.133000     1.027390000    -1.028862000    -4.168218000   0   0   0 # o_1
     47      4   1  0.000000     3.966949000    -1.439368000    -2.191285000   0   0   0 # c
     48      4   7 -0.106000     2.913413000    -0.313606000    -2.028563000   0   0   0 # c2
     49      4   3  0.266000     3.989592000    -2.240375000    -0.907672000   0   0   0 # c_1
     50      4   4 -0.266000     4.599493000    -1.508560000     0.045550000   0   0   0 # o_2
     51      4   2 -0.026000     4.686298000    -2.139943000     1.318815000   0   0   0 # c3
     52      4   5  0.053000     3.673589000    -2.349798000     1.690021000   0   0   0 # hc
     53      4   5  0.053000     5.200688000    -1.464754000     2.016189000   0   0   0 # hc
     54      4   5  0.053000     3.037439000     0.331225000    -2.915449000   0   0   0 # hc
     55      4   5  0.053000     3.252029000     0.280214000    -1.163342000   0   0   0 # hc
     56      4   5  0.053000     5.255838000    -3.074913000     1.223300000   0   0   0 # hc
     57      4   2 -0.159000     5.282529000    -0.651603000    -2.269945000   0   0   0 # c3
     58      4   5  0.053000     5.346025000    -0.148371000    -3.247479000   0   0   0 # hc
     59      4   5  0.053000     6.171959000    -1.287625000    -2.151011000   0   0   0 # hc
     60      4   5  0.053000     5.331038000     0.138310000    -1.504257000   0   0   0 # hc
     61      4   6 -0.133000     3.545053000    -3.337606000    -0.715715000   0   0   0 # o_1
     62      5   1  0.000000     4.620833000    -3.326693000    -4.109533000   0   0   0 # c
     63      5   7 -0.106000     3.652503000    -2.337506000    -3.407769000   0   0   0 # c2
     64      5   3  0.266000     5.653604000    -2.472614000    -4.831647000   0   0   0 # c_1
     65      5   4 -0.266000     5.111475000    -2.022075000    -5.980401000   0   0   0 # o_2
     66      5   2 -0.026000     5.971771000    -1.203306000    -6.765481000   0   0   0 # c3
     67      5   5  0.053000     6.260026000    -0.316003000    -6.184475000   0   0   0 # hc
     68      5   5  0.053000     5.435290000    -0.890960000    -7.671954000   0   0   0 # hc
     69      5   5  0.053000     2.753672000    -2.924820000    -3.151292000   0   0   0 # hc
     70      5   5  0.053000     3.352208000    -1.638604000    -4.206128000   0   0   0 # hc
     71      5   5  0.053000     6.864808000    -1.779197000    -7.046079000   0   0   0 # hc
     72      5   2 -0.159000     3.708002000    -3.959156000    -5.169887000   0   0   0 # c3
     73      5   5  0.053000     3.031714000    -4.679313000    -4.682555000   0   0   0 # hc
     74      5   5  0.053000     4.256861000    -4.488719000    -5.962328000   0   0   0 # hc
     75      5   5  0.053000     3.068976000    -3.201001000    -5.649870000   0   0   0 # hc
     76      5   6 -0.133000     6.768331000    -2.204430000    -4.480250000   0   0   0 # o_1
     77      6   1  0.000000     6.093263000    -5.587913000    -3.560636000   0   0   0 # c
     78      6   7 -0.106000     5.308751000    -4.312834000    -3.138300000   0   0   0 # c2
     79      6   3  0.266000     5.049508000    -6.603485000    -4.003777000   0   0   0 # c_1
     80      6   4 -0.266000     4.554427000    -7.203560000    -2.902940000   0   0   0 # o_2
     81      6   2 -0.026000     3.562981000    -8.192962000    -3.156902000   0   0   0 # c3
     82      6   5  0.053000     2.705493000    -7.727344000    -3.662190000   0   0   0 # hc
     83      6   5  0.053000     3.237173000    -8.622824000    -2.199861000   0   0   0 # hc
     84      6   5  0.053000     5.995489000    -3.722546000    -2.507421000   0   0   0 # hc
     85      6   5  0.053000     4.514555000    -4.679531000    -2.467788000   0   0   0 # hc
     86      6   5  0.053000     3.991532000    -8.983665000    -3.788604000   0   0   0 # hc
     87      6   2 -0.159000     6.684506000    -6.073042000    -2.229026000   0   0   0 # c3
     88      6   5  0.053000     7.545290000    -5.439783000    -1.961956000   0   0   0 # hc
     89      6   5  0.053000     7.027618000    -7.117413000    -2.257204000   0   0   0 # hc
     90      6   5  0.053000     5.953601000    -5.976673000    -1.410522000   0   0   0 # hc
     91      6   6 -0.133000     4.679701000    -6.860981000    -5.114546000   0   0   0 # o_1