LAMMPS data file via write_data, version 6 Nov 2015-ICMS, timestep = 100

152 atoms
8 atom types
151 bonds
12 bond types
280 angles
26 angle types
371 dihedrals
35 dihedral types
170 impropers
19 improper types

-3.0311810000000001e+00 1.6410415000000000e+01 xlo xhi
-1.4383046999999999e+01 6.1102020000000001e+00 ylo yhi
-1.1174386000000000e+01 3.6535850000000001e+00 zlo zhi

Masses

1 12.0112
2 12.0112
3 12.0112
4 15.9994
5 1.00797
6 15.9994
7 12.0112
8 12.0112

Pair Coeffs # lj/class2/coul/long

1 0.054 4.01
2 0.054 4.01
3 0.12 3.81
4 0.24 3.42
5 0.02 2.995
6 0.267 3.3
7 0.054 4.01
8 0.054 4.01

Bond Coeffs # class2

1 1.5202 253.707 -423.037 396.9
2 1.53 299.67 -501.77 679.81
3 1.53 299.67 -501.77 679.81
4 1.101 345 -691.89 844.6
5 1.3683 367.148 -794.791 1055.23
6 1.202 851.14 -1918.49 2160.77
7 1.43 326.727 -608.531 689.033
8 1.101 345 -691.89 844.6
9 1.101 345 -691.89 844.6
10 1.5202 253.707 -423.037 396.9
11 1.53 299.67 -501.77 679.81
12 1.53 299.67 -501.77 679.81

Angle Coeffs # class2

1 108.53 51.9747 -9.4851 -10.9985
2 108.53 51.9747 -9.4851 -10.9985
3 112.67 39.516 -7.443 -9.5583
4 112.67 39.516 -7.443 -9.5583
5 107.66 39.641 -12.921 -2.4318
6 110.77 41.453 -10.604 5.129
7 100.318 38.8631 -3.8323 -7.9802
8 123.145 55.5431 -17.2123 0.1348
9 120.797 95.3446 -32.2869 6.3778
10 113.288 61.2868 -28.9786 7.9929
11 107.688 65.4801 -10.3498 5.8866
12 112.67 39.516 -7.443 -9.5583
13 107.66 39.641 -12.921 -2.4318
14 110.77 41.453 -10.604 5.129
15 112.67 39.516 -7.443 -9.5583
16 107.734 40.6099 -28.8121 0
17 110.77 41.453 -10.604 5.129
18 110.77 41.453 -10.604 5.129
19 108.53 51.9747 -9.4851 -10.9985
20 108.53 51.9747 -9.4851 -10.9985
21 112.67 39.516 -7.443 -9.5583
22 110.77 41.453 -10.604 5.129
23 112.67 39.516 -7.443 -9.5583
24 100.318 38.8631 -3.8323 -7.9802
25 123.145 55.5431 -17.2123 0.1348
26 110.77 41.453 -10.604 5.129

BondBond Coeffs

1 5.4199 1.53 1.5202
2 5.4199 1.5202 1.53
3 0 1.53 1.53
4 0 1.53 1.53
5 5.3316 1.101 1.101
6 3.3872 1.53 1.101
7 19.1069 1.5202 1.3683
8 46.0685 1.5202 1.202
9 121.488 1.3683 1.202
10 45.4503 1.43 1.3683
11 5.6454 1.43 1.101
12 0 1.53 1.53
13 5.3316 1.101 1.101
14 3.3872 1.53 1.101
15 0 1.53 1.53
16 0.7115 1.5202 1.101
17 3.3872 1.101 1.53
18 3.3872 1.53 1.101
19 5.4199 1.5202 1.53
20 5.4199 1.53 1.5202
21 0 1.53 1.53
22 3.3872 1.101 1.53
23 0 1.53 1.53
24 19.1069 1.3683 1.5202
25 46.0685 1.202 1.5202
26 3.3872 1.101 1.53

BondAngle Coeffs

1 18.1678 15.8758 1.53 1.5202
2 15.8758 18.1678 1.5202 1.53
3 8.016 8.016 1.53 1.53
4 8.016 8.016 1.53 1.53
5 18.103 18.103 1.101 1.101
6 20.754 11.421 1.53 1.101
7 1.3435 4.6978 1.5202 1.3683
8 34.9982 37.1298 1.5202 1.202
9 71.8761 76.2614 1.3683 1.202
10 41.9116 46.4608 1.43 1.3683
11 57.4975 8.6864 1.43 1.101
12 8.016 8.016 1.53 1.53
13 18.103 18.103 1.101 1.101
14 20.754 11.421 1.53 1.101
15 8.016 8.016 1.53 1.53
16 12.4632 9.1765 1.5202 1.101
17 11.421 20.754 1.101 1.53
18 20.754 11.421 1.53 1.101
19 15.8758 18.1678 1.5202 1.53
20 18.1678 15.8758 1.53 1.5202
21 8.016 8.016 1.53 1.53
22 11.421 20.754 1.101 1.53
23 8.016 8.016 1.53 1.53
24 4.6978 1.3435 1.3683 1.5202
25 37.1298 34.9982 1.202 1.5202
26 11.421 20.754 1.101 1.53

Dihedral Coeffs # class2

1 1.8341 0 2.0603 0 -0.0195 0
2 0.0442 0 0.0292 0 0.0562 0
3 1.8341 0 2.0603 0 -0.0195 0
4 0.0442 0 0.0292 0 0.0562 0
5 -0.0228 0 0.028 0 -0.1863 0
6 0 0 0.0316 0 -0.1681 0
7 0 0 0.0316 0 -0.1681 0
8 -0.0228 0 0.028 0 -0.1863 0
9 0.0972 0 0.0722 0 -0.2581 0
10 0 0 0.0316 0 -0.1681 0
11 0 0 0.0514 0 -0.143 0
12 -2.5594 0 2.2013 0 0.0325 0
13 -2.5594 0 2.2013 0 0.0325 0
14 0 0 0 0 -0.1932 0
15 0 0 0.0316 0 -0.1681 0
16 0 0 0.0514 0 -0.143 0
17 0.0972 0 0.0722 0 -0.2581 0
18 0 0 0.0514 0 -0.143 0
19 0 0 0.0514 0 -0.143 0
20 -0.6359 0 1.4807 0 -0.0438 0
21 -0.1804 0 0.0012 0 0.0371 0
22 1.8341 0 2.0603 0 -0.0195 0
23 0.0442 0 0.0292 0 0.0562 0
24 1.8341 0 2.0603 0 -0.0195 0
25 0.0442 0 0.0292 0 0.0562 0
26 -0.1432 0 0.0617 0 -0.1083 0
27 0 0 0.0316 0 -0.1681 0
28 -0.0228 0 0.028 0 -0.1863 0
29 0.0972 0 0.0722 0 -0.2581 0
30 0 0 0.0316 0 -0.1681 0
31 0 0 0.0514 0 -0.143 0
32 -0.1432 0 0.0617 0 -0.1083 0
33 -0.0228 0 0.028 0 -0.1863 0
34 0 0 0.0316 0 -0.1681 0
35 -2.5594 0 2.2013 0 0.0325 0

AngleAngleTorsion Coeffs

1 0 108.53 100.318
2 -8.019 108.53 123.145
3 0 108.53 100.318
4 -8.019 108.53 123.145
5 -5.3624 108.53 110.77
6 -16.164 112.67 110.77
7 -16.164 112.67 110.77
8 -5.3624 108.53 110.77
9 -0.3801 108.53 112.67
10 -16.164 112.67 110.77
11 -22.045 112.67 112.67
12 0 100.318 113.288
13 0 120.797 113.288
14 0 107.688 113.288
15 -16.164 112.67 110.77
16 -22.045 112.67 112.67
17 -0.3801 108.53 112.67
18 -22.045 112.67 112.67
19 -22.045 112.67 112.67
20 0 100.318 107.734
21 -15.3496 123.145 107.734
22 0 100.318 108.53
23 -8.019 123.145 108.53
24 0 100.318 108.53
25 -8.019 123.145 108.53
26 -12.564 110.77 110.77
27 -16.164 112.67 110.77
28 -5.3624 110.77 108.53
29 -0.3801 112.67 108.53
30 -16.164 110.77 112.67
31 -22.045 112.67 112.67
32 -12.564 110.77 110.77
33 -5.3624 110.77 108.53
34 -16.164 110.77 112.67
35 0 100.318 113.288

EndBondTorsion Coeffs

1 0 0 0 0 0 0 1.53 1.3683
2 0.2654 0.0503 0.1046 -0.281 0.0816 -0.1522 1.53 1.202
3 0 0 0 0 0 0 1.53 1.3683
4 0.2654 0.0503 0.1046 -0.281 0.0816 -0.1522 1.53 1.202
5 -0.0204 0.3628 -0.4426 -0.0097 -0.0315 -0.0755 1.5202 1.101
6 0.2486 0.2422 -0.0925 0.0814 0.0591 0.2219 1.53 1.101
7 0.2486 0.2422 -0.0925 0.0814 0.0591 0.2219 1.53 1.101
8 -0.0204 0.3628 -0.4426 -0.0097 -0.0315 -0.0755 1.5202 1.101
9 0.0055 0.006 -0.0009 0.0062 -0.0002 0.0036 1.5202 1.53
10 0.2486 0.2422 -0.0925 0.0814 0.0591 0.2219 1.53 1.101
11 -0.0732 0 0 -0.0732 0 0 1.53 1.53
12 0 0 0 0 0 0 1.5202 1.43
13 0 0 0 0 0 0 1.202 1.43
14 0 0 0 0 0 0 1.101 1.3683
15 0.2486 0.2422 -0.0925 0.0814 0.0591 0.2219 1.53 1.101
16 -0.0732 0 0 -0.0732 0 0 1.53 1.53
17 0.0055 0.006 -0.0009 0.0062 -0.0002 0.0036 1.5202 1.53
18 -0.0732 0 0 -0.0732 0 0 1.53 1.53
19 -0.0732 0 0 -0.0732 0 0 1.53 1.53
20 0 0 0 0 0 0 1.3683 1.101
21 -0.2298 0.0354 0.3853 1.2143 0.2831 0.3916 1.202 1.101
22 0 0 0 0 0 0 1.3683 1.53
23 -0.281 0.0816 -0.1522 0.2654 0.0503 0.1046 1.202 1.53
24 0 0 0 0 0 0 1.3683 1.53
25 -0.281 0.0816 -0.1522 0.2654 0.0503 0.1046 1.202 1.53
26 0.213 0.312 0.0777 0.213 0.312 0.0777 1.101 1.101
27 0.2486 0.2422 -0.0925 0.0814 0.0591 0.2219 1.53 1.101
28 -0.0097 -0.0315 -0.0755 -0.0204 0.3628 -0.4426 1.101 1.5202
29 0.0062 -0.0002 0.0036 0.0055 0.006 -0.0009 1.53 1.5202
30 0.0814 0.0591 0.2219 0.2486 0.2422 -0.0925 1.101 1.53
31 -0.0732 0 0 -0.0732 0 0 1.53 1.53
32 0.213 0.312 0.0777 0.213 0.312 0.0777 1.101 1.101
33 -0.0097 -0.0315 -0.0755 -0.0204 0.3628 -0.4426 1.101 1.5202
34 0.0814 0.0591 0.2219 0.2486 0.2422 -0.0925 1.101 1.53
35 0 0 0 0 0 0 1.5202 1.43

MiddleBondTorsion Coeffs

1 -17.328 -5.79 -3.2114 1.5202
2 0.3388 -0.1096 0.1219 1.5202
3 -17.328 -5.79 -3.2114 1.5202
4 0.3388 -0.1096 0.1219 1.5202
5 -3.5039 1.2458 -0.761 1.53
6 -14.879 -3.6581 -0.3138 1.53
7 -14.879 -3.6581 -0.3138 1.53
8 -3.5039 1.2458 -0.761 1.53
9 -1.5945 0.2267 -0.6911 1.53
10 -14.879 -3.6581 -0.3138 1.53
11 -17.787 -7.1877 0 1.53
12 1.3445 3.5515 -4.9202 1.3683
13 4.26 0 0 1.3683
14 0 0 0 1.43
15 -14.879 -3.6581 -0.3138 1.53
16 -17.787 -7.1877 0 1.53
17 -1.5945 0.2267 -0.6911 1.53
18 -17.787 -7.1877 0 1.53
19 -17.787 -7.1877 0 1.53
20 -13.7686 -2.5959 1.1934 1.5202
21 0.2359 0.9139 0.9594 1.5202
22 -17.328 -5.79 -3.2114 1.5202
23 0.3388 -0.1096 0.1219 1.5202
24 -17.328 -5.79 -3.2114 1.5202
25 0.3388 -0.1096 0.1219 1.5202
26 -14.261 -0.5322 -0.4864 1.53
27 -14.879 -3.6581 -0.3138 1.53
28 -3.5039 1.2458 -0.761 1.53
29 -1.5945 0.2267 -0.6911 1.53
30 -14.879 -3.6581 -0.3138 1.53
31 -17.787 -7.1877 0 1.53
32 -14.261 -0.5322 -0.4864 1.53
33 -3.5039 1.2458 -0.761 1.53
34 -14.879 -3.6581 -0.3138 1.53
35 1.3445 3.5515 -4.9202 1.3683

BondBond13 Coeffs

1 0 1.53 1.3683
2 0 1.53 1.202
3 0 1.53 1.3683
4 0 1.53 1.202
5 0 1.5202 1.101
6 0 1.53 1.101
7 0 1.53 1.101
8 0 1.5202 1.101
9 0 1.5202 1.53
10 0 1.53 1.101
11 0 1.53 1.53
12 0 1.5202 1.43
13 0 1.202 1.43
14 0 1.101 1.3683
15 0 1.53 1.101
16 0 1.53 1.53
17 0 1.5202 1.53
18 0 1.53 1.53
19 0 1.53 1.53
20 0 1.3683 1.101
21 0 1.202 1.101
22 0 1.3683 1.53
23 0 1.202 1.53
24 0 1.3683 1.53
25 0 1.202 1.53
26 0 1.101 1.101
27 0 1.53 1.101
28 0 1.101 1.5202
29 0 1.53 1.5202
30 0 1.101 1.53
31 0 1.53 1.53
32 0 1.101 1.101
33 0 1.101 1.5202
34 0 1.101 1.53
35 0 1.5202 1.43

AngleTorsion Coeffs

1 0 0 0 0 0 0 108.53 100.318
2 0.0885 -1.3703 -0.5452 0.675 0.5965 0.6725 108.53 123.145
3 0 0 0 0 0 0 108.53 100.318
4 0.0885 -1.3703 -0.5452 0.675 0.5965 0.6725 108.53 123.145
5 -0.7466 -0.9448 -0.6321 0.0162 1.4211 -1.4092 108.53 110.77
6 -0.2454 0 -0.1136 0.3113 0.4516 -0.1988 112.67 110.77
7 -0.2454 0 -0.1136 0.3113 0.4516 -0.1988 112.67 110.77
8 -0.7466 -0.9448 -0.6321 0.0162 1.4211 -1.4092 108.53 110.77
9 0.0515 -0.0674 -0.0474 -0.2607 0.3203 -0.2283 108.53 112.67
10 -0.2454 0 -0.1136 0.3113 0.4516 -0.1988 112.67 110.77
11 0.3886 -0.3139 0.1389 0.3886 -0.3139 0.1389 112.67 112.67
12 0 0 0 0 0 0 100.318 113.288
13 0 0 0 0 0 0 120.797 113.288
14 0 0 0 0 0 0 107.688 113.288
15 -0.2454 0 -0.1136 0.3113 0.4516 -0.1988 112.67 110.77
16 0.3886 -0.3139 0.1389 0.3886 -0.3139 0.1389 112.67 112.67
17 0.0515 -0.0674 -0.0474 -0.2607 0.3203 -0.2283 108.53 112.67
18 0.3886 -0.3139 0.1389 0.3886 -0.3139 0.1389 112.67 112.67
19 0.3886 -0.3139 0.1389 0.3886 -0.3139 0.1389 112.67 112.67
20 0 0 0 0 0 0 100.318 107.734
21 -1.4946 0.7308 -0.2083 9.1299 -0.4847 0.3582 123.145 107.734
22 0 0 0 0 0 0 100.318 108.53
23 0.675 0.5965 0.6725 0.0885 -1.3703 -0.5452 123.145 108.53
24 0 0 0 0 0 0 100.318 108.53
25 0.675 0.5965 0.6725 0.0885 -1.3703 -0.5452 123.145 108.53
26 -0.8085 0.5569 -0.2466 -0.8085 0.5569 -0.2466 110.77 110.77
27 -0.2454 0 -0.1136 0.3113 0.4516 -0.1988 112.67 110.77
28 0.0162 1.4211 -1.4092 -0.7466 -0.9448 -0.6321 110.77 108.53
29 -0.2607 0.3203 -0.2283 0.0515 -0.0674 -0.0474 112.67 108.53
30 0.3113 0.4516 -0.1988 -0.2454 0 -0.1136 110.77 112.67
31 0.3886 -0.3139 0.1389 0.3886 -0.3139 0.1389 112.67 112.67
32 -0.8085 0.5569 -0.2466 -0.8085 0.5569 -0.2466 110.77 110.77
33 0.0162 1.4211 -1.4092 -0.7466 -0.9448 -0.6321 110.77 108.53
34 0.3113 0.4516 -0.1988 -0.2454 0 -0.1136 110.77 112.67
35 0 0 0 0 0 0 100.318 113.288

Improper Coeffs # class2

1 46.9264 0
2 46.9264 0
3 0 0
4 0 0
5 0 0
6 0 0
7 0 0
8 0 0
9 0 0
10 0 0
11 0 0
12 0 0
13 0 0
14 0 0
15 0 0
16 0 0
17 0 0
18 0 0
19 0 0

AngleAngle Coeffs

1 0 0 0 100.318 120.797 123.145
2 0 0 0 120.797 123.145 100.318
3 0 0 0 112.67 108.53 108.53
4 0 0 0 108.53 108.53 112.67
5 -0.1729 -0.1729 -0.1729 112.67 112.67 112.67
6 -0.3157 -0.3157 -0.3157 107.66 107.66 107.66
7 0.2738 -0.4825 0.2738 110.77 107.66 110.77
8 0 0 0 107.688 107.66 107.688
9 0 0 0 108.53 112.67 108.53
10 -0.1729 -0.1729 -0.1729 112.67 112.67 112.67
11 0.2738 -0.4825 0.2738 110.77 107.66 110.77
12 -1.3199 -1.3199 0.1184 112.67 110.77 110.77
13 1.0827 2.0403 -1.8202 107.734 110.77 108.53
14 2.0403 -1.8202 1.0827 108.53 107.734 110.77
15 0.1184 -1.3199 -1.3199 110.77 110.77 112.67
16 0 0 0 108.53 108.53 112.67
17 0.2738 0.2738 -0.4825 107.66 110.77 110.77
18 0.1184 -1.3199 -1.3199 110.77 110.77 112.67
19 0.2738 0.2738 -0.4825 107.66 110.77 110.77

Atoms # full

86 6 5 5.2999999999999999e-02 3.9902220372093988e+00 -8.9828006041352602e+00 -3.7874107590467911e+00 0 0 0
107 8 1 0.0000000000000000e+00 8.2633282363978804e+00 -8.5648528116481373e+00 -6.7699466004144258e+00 0 0 0
109 8 3 2.6600000000000001e-01 8.4569207335879391e+00 -7.8711051275377768e+00 -8.1037872679957967e+00 0 0 0
110 8 4 -2.6600000000000001e-01 7.2671361241254901e+00 -7.8357751479238393e+00 -8.7377589011371857e+00 0 0 0
113 8 5 5.2999999999999999e-02 7.9768069272106379e+00 -7.7240509881408999e+00 -1.0675250604051049e+01 0 0 0
114 8 5 5.2999999999999999e-02 7.1543125419736677e+00 -8.1424161271508630e+00 -4.9915385388336446e+00 0 0 0
117 8 2 -1.5900000000000000e-01 7.1677351877642206e+00 -9.6261265060448462e+00 -6.9601981639404666e+00 0 0 0
118 8 5 5.2999999999999999e-02 7.0990161689369620e+00 -1.0242592415438528e+01 -6.0502226573680487e+00 0 0 0
119 8 5 5.2999999999999999e-02 7.3462821036928450e+00 -1.0295247417834481e+01 -7.8140393191832400e+00 0 0 0
120 8 5 5.2999999999999999e-02 6.1788346933739380e+00 -9.1608384779998211e+00 -7.0984245834741921e+00 0 0 0
123 9 7 -1.0600000000000000e-01 9.5869331314513104e+00 -9.0798030281090547e+00 -6.1575132022082562e+00 0 0 0
124 9 3 2.6600000000000001e-01 9.6946139186144809e+00 -1.1386423162944650e+01 -7.0591337742242013e+00 0 0 0
125 9 4 -2.6600000000000001e-01 9.2234949595202327e+00 -1.1935996050982855e+01 -5.9223131448028390e+00 0 0 0
126 9 2 -2.5999999999999999e-02 8.4427704390964564e+00 -1.3112786624031001e+01 -6.1055443076468494e+00 0 0 0
127 9 5 5.2999999999999999e-02 8.1103727141932538e+00 -1.3475292379338027e+01 -5.1232327535360200e+00 0 0 0
128 9 5 5.2999999999999999e-02 9.0560702779960440e+00 -1.3882624854491683e+01 -6.5941721784825553e+00 0 0 0
130 9 5 5.2999999999999999e-02 9.2844743027100733e+00 -9.4659743568253116e+00 -5.1691010568738376e+00 0 0 0
131 9 5 5.2999999999999999e-02 7.5672635432483881e+00 -1.2876768612875996e+01 -6.7262153623659051e+00 0 0 0
136 9 6 -1.3300000000000001e-01 9.4663588995793138e+00 -1.1823913919909026e+01 -8.1532910848118618e+00 0 0 0
122 9 1 0.0000000000000000e+00 1.0529280374781957e+01 -1.0165592322483350e+01 -6.7276792175796416e+00 0 0 0
129 9 5 5.2999999999999999e-02 1.0218852454041704e+01 -8.2012977690972750e+00 -5.9581146302643573e+00 0 0 0
132 9 2 -1.5900000000000000e-01 1.1398625354585612e+01 -1.0560520118533523e+01 -5.5215496579237149e+00 0 0 0
133 9 5 5.2999999999999999e-02 1.2055607178228499e+01 -9.7209111001256385e+00 -5.2504565548414730e+00 0 0 0
134 9 5 5.2999999999999999e-02 1.2029082605788490e+01 -1.1436232924980825e+01 -5.7372981823494191e+00 0 0 0
135 9 5 5.2999999999999999e-02 1.0803846101807263e+01 -1.0789823496034620e+01 -4.6239136577543345e+00 0 0 0
137 10 5 5.2999999999999999e-02 1.2890859521823060e+01 -8.8101946147992045e+00 -9.0088271245901073e+00 0 0 0
138 10 8 -5.2999999999999999e-02 1.2618538626289070e+01 -8.9543838459654683e+00 -7.9472173948065805e+00 0 0 0
139 10 7 -1.0600000000000000e-01 1.1359524709470909e+01 -9.8629022231599333e+00 -7.9925810083300579e+00 0 0 0
140 10 3 2.6600000000000001e-01 1.3814468845214556e+01 -9.6513683515034021e+00 -7.3098551412059507e+00 0 0 0
141 10 4 -2.6600000000000001e-01 1.3878806669288046e+01 -1.0934645534670711e+01 -7.7149785818661840e+00 0 0 0
142 10 2 -2.5999999999999999e-02 1.4959085544276796e+01 -1.1683383675003901e+01 -7.1677808822414866e+00 0 0 0
143 10 5 5.2999999999999999e-02 1.4917147767508867e+01 -1.2707957063302977e+01 -7.5621979846458469e+00 0 0 0
144 10 5 5.2999999999999999e-02 1.4867367968251058e+01 -1.1706646527099769e+01 -6.0729593203923109e+00 0 0 0
145 10 5 5.2999999999999999e-02 1.1682556358457488e+01 -1.0835936408980064e+01 -8.4017090832845867e+00 0 0 0
146 10 5 5.2999999999999999e-02 1.0694703435270332e+01 -9.4590697257622427e+00 -8.7718558391085999e+00 0 0 0
147 10 5 5.2999999999999999e-02 1.5910092315653802e+01 -1.1215733155291305e+01 -7.4582688828252479e+00 0 0 0
148 10 2 -1.5900000000000000e-01 1.2528563924906949e+01 -7.5681199173505895e+00 -7.3157403048828904e+00 0 0 0
151 10 5 5.2999999999999999e-02 1.2349336006395569e+01 -7.6159721080943257e+00 -6.2326051514605592e+00 0 0 0
152 10 6 -1.3300000000000001e-01 1.4598767304333006e+01 -9.1521758083925260e+00 -6.5511000799551509e+00 0 0 0
37 3 5 5.2999999999999999e-02 -1.5103549036479871e+00 -1.5275117880083993e+00 -4.3571978835773733e+00 0 0 0
41 3 5 5.2999999999999999e-02 -5.9575075038510228e-01 -3.0638604226540789e+00 -4.1299108674727298e+00 0 0 0
46 3 6 -1.3300000000000001e-01 1.0270157907970527e+00 -1.0276540686350590e+00 -4.1689262591014291e+00 0 0 0
70 5 5 5.2999999999999999e-02 3.3515958718305101e+00 -1.6382443977706445e+00 -4.2059949862762895e+00 0 0 0
73 5 5 5.2999999999999999e-02 3.0311425076247955e+00 -4.6791602588217867e+00 -4.6824943589947452e+00 0 0 0
75 5 5 5.2999999999999999e-02 3.0678151900082908e+00 -3.2010843720187960e+00 -5.6504683374532014e+00 0 0 0
62 5 1 0.0000000000000000e+00 4.6203533356123039e+00 -3.3262980497687491e+00 -4.1103242262989896e+00 0 0 0
64 5 3 2.6600000000000001e-01 5.6531331609336881e+00 -2.4727189518671193e+00 -4.8328653810657185e+00 0 0 0
65 5 4 -2.6600000000000001e-01 5.1105279741705489e+00 -2.0222890956873458e+00 -5.9813232973565809e+00 0 0 0
66 5 2 -2.5999999999999999e-02 5.9707299282388000e+00 -1.2036495263308828e+00 -6.7666373050847621e+00 0 0 0
68 5 5 5.2999999999999999e-02 5.4347414982701920e+00 -8.9255480721442959e-01 -7.6737592310829355e+00 0 0 0
71 5 5 5.2999999999999999e-02 6.8645144384547425e+00 -1.7788722222601550e+00 -7.0459298332663503e+00 0 0 0
72 5 2 -1.5900000000000000e-01 3.7070045194809600e+00 -3.9591038390551567e+00 -5.1705374411137193e+00 0 0 0
74 5 5 5.2999999999999999e-02 4.2553710602335828e+00 -4.4887663093042365e+00 -5.9631646620213861e+00 0 0 0
76 5 6 -1.3300000000000001e-01 6.7682921762358523e+00 -2.2057115890479859e+00 -4.4819935372282664e+00 0 0 0
79 6 3 2.6600000000000001e-01 5.0491547367775977e+00 -6.6028584004712254e+00 -4.0040863408708089e+00 0 0 0
91 6 6 -1.3300000000000001e-01 4.6804090312929052e+00 -6.8607530002422417e+00 -5.1150727810652956e+00 0 0 0
92 7 1 0.0000000000000000e+00 8.1915130616879690e+00 -6.2762007497572290e+00 -5.2274591375141775e+00 0 0 0
93 7 7 -1.0600000000000000e-01 7.1246914825870453e+00 -5.2984984879168460e+00 -4.6729809436919965e+00 0 0 0
94 7 3 2.6600000000000001e-01 9.1352405775114942e+00 -6.6173289102723318e+00 -4.0930394577756548e+00 0 0 0
99 7 5 5.2999999999999999e-02 6.5676368474596183e+00 -4.9473161047412706e+00 -5.5583393820157605e+00 0 0 0
100 7 5 5.2999999999999999e-02 7.6959144983464816e+00 -4.4333002923523086e+00 -4.2987732374633021e+00 0 0 0
102 7 2 -1.5900000000000000e-01 8.9565751139108070e+00 -5.3909224092396153e+00 -6.2221291239070338e+00 0 0 0
103 7 5 5.2999999999999999e-02 8.3312550805224692e+00 -5.2259974474205366e+00 -7.1136855611413639e+00 0 0 0
104 7 5 5.2999999999999999e-02 9.9091341985993626e+00 -5.8329389205141204e+00 -6.5472472902655960e+00 0 0 0
105 7 5 5.2999999999999999e-02 9.1755771822428454e+00 -4.3975743089236419e+00 -5.8001893287162414e+00 0 0 0
108 8 7 -1.0600000000000000e-01 7.5566510800420783e+00 -7.5487313159389586e+00 -5.8309640690227962e+00 0 0 0
111 8 2 -2.5999999999999999e-02 7.2838846544035754e+00 -7.1930304939428380e+00 -1.0007852478505272e+01 0 0 0
112 8 5 5.2999999999999999e-02 6.2710615343372842e+00 -7.2195313560877397e+00 -1.0432786029146078e+01 0 0 0
115 8 5 5.2999999999999999e-02 6.6857055447016158e+00 -7.1900642060013533e+00 -6.4034901318327986e+00 0 0 0
116 8 5 5.2999999999999999e-02 7.6028363426666896e+00 -6.1488980542603073e+00 -9.8828717649474314e+00 0 0 0
121 8 6 -1.3300000000000001e-01 9.4577243013932204e+00 -7.4016997612928925e+00 -8.5643610923878395e+00 0 0 0
95 7 4 -2.6600000000000001e-01 9.9354811976634689e+00 -5.5572043262084767e+00 -3.8661503019766372e+00 0 0 0
149 10 5 5.2999999999999999e-02 1.1733926311800024e+01 -6.9711242142093326e+00 -7.7811512729399874e+00 0 0 0
150 10 5 5.2999999999999999e-02 1.3479173539642288e+01 -7.0360198496004180e+00 -7.4794973443300199e+00 0 0 0
27 2 2 -1.5900000000000000e-01 6.1179491039827671e-01 1.9926048560334255e+00 -3.8510343957265722e+00 0 0 0
28 2 5 5.2999999999999999e-02 -2.8908988308960132e-01 1.3890151601783345e+00 -4.0439752535042626e+00 0 0 0
29 2 5 5.2999999999999999e-02 1.4631907611756072e+00 1.5070638437236141e+00 -4.3503714533012925e+00 0 0 0
30 2 5 5.2999999999999999e-02 4.4759045167320122e-01 2.9693592145194727e+00 -4.3327187917888788e+00 0 0 0
23 2 5 5.2999999999999999e-02 3.6964181288556932e+00 5.0315017379470275e+00 -3.9357057569591816e+00 0 0 0
67 5 5 5.2999999999999999e-02 6.2575163980225170e+00 -3.1573816387448106e-01 -6.1861313621512695e+00 0 0 0
82 6 5 5.2999999999999999e-02 2.7044538657773254e+00 -7.7256789320914896e+00 -3.6642443876781030e+00 0 0 0
83 6 5 5.2999999999999999e-02 3.2337316587421610e+00 -8.6200352425176145e+00 -2.2002520846381994e+00 0 0 0
81 6 2 -2.5999999999999999e-02 3.5610659280494961e+00 -8.1912316937263512e+00 -3.1573199589617333e+00 0 0 0
106 7 6 -1.3300000000000001e-01 9.1971358685458284e+00 -7.6392880533611720e+00 -3.4682455308757629e+00 0 0 0
34 3 3 2.6600000000000001e-01 6.9532481614926422e-01 -1.0779581369332500e+00 -3.0181555190563256e+00 0 0 0
35 3 4 -2.6600000000000001e-01 -4.3352512623237294e-01 -1.6845270457082107e+00 -2.6003462986240966e+00 0 0 0
36 3 2 -2.5999999999999999e-02 -1.2017740690629182e+00 -2.2937281424144094e+00 -3.6325092128587841e+00 0 0 0
38 3 5 5.2999999999999999e-02 -2.0920086478950877e+00 -2.7577002338317986e+00 -3.1861776383703027e+00 0 0 0
42 3 2 -1.5900000000000000e-01 1.0174861707131899e+00 -1.3519627304505786e+00 -5.8308180200153881e-01 0 0 0
43 3 5 5.2999999999999999e-02 1.6251994224424540e+00 -1.0405357431749069e+00 2.8128430602870119e-01 0 0 0
44 3 5 5.2999999999999999e-02 1.1746361390107580e+00 -2.4290346371354121e+00 -7.3902499676230704e-01 0 0 0
45 3 5 5.2999999999999999e-02 -3.6418640693223731e-02 -1.1998800214602452e+00 -3.0108048755022587e-01 0 0 0
69 5 5 5.2999999999999999e-02 2.7534828020157276e+00 -2.9249797865426528e+00 -3.1516296309472760e+00 0 0 0
47 4 1 0.0000000000000000e+00 3.9670095039410582e+00 -1.4391826220942840e+00 -2.1915624079179121e+00 0 0 0
49 4 3 2.6600000000000001e-01 3.9900296529496906e+00 -2.2401226090088739e+00 -9.0791636752877913e-01 0 0 0
50 4 4 -2.6600000000000001e-01 4.5994579264259956e+00 -1.5080856324525853e+00 4.5387879330358968e-02 0 0 0
51 4 2 -2.5999999999999999e-02 4.6872746646272514e+00 -2.1395255233944610e+00 1.3184715851285687e+00 0 0 0
52 4 5 5.2999999999999999e-02 3.6749704931074580e+00 -2.3514321906752302e+00 1.6898664578996707e+00 0 0 0
53 4 5 5.2999999999999999e-02 5.2007438210292918e+00 -1.4635333107619137e+00 2.0158409832676640e+00 0 0 0
56 4 5 5.2999999999999999e-02 5.2586584680163835e+00 -3.0732976549275173e+00 1.2226065778872983e+00 0 0 0
59 4 5 5.2999999999999999e-02 6.1720611859840515e+00 -1.2878029110558318e+00 -2.1516214885543081e+00 0 0 0
61 4 6 -1.3300000000000001e-01 3.5466829434504046e+00 -3.3378716142720775e+00 -7.1630838699775634e-01 0 0 0
63 5 7 -1.0600000000000000e-01 3.6521685580297953e+00 -2.3373102103787367e+00 -3.4080901856004626e+00 0 0 0
77 6 1 0.0000000000000000e+00 6.0929997728826359e+00 -5.5877938642785354e+00 -3.5611240446201062e+00 0 0 0
78 6 7 -1.0600000000000000e-01 5.3086256095581437e+00 -4.3123875902505739e+00 -3.1389392859975378e+00 0 0 0
80 6 4 -2.6600000000000001e-01 4.5528412731043897e+00 -7.2020023306905339e+00 -2.9033991932977670e+00 0 0 0
84 6 5 5.2999999999999999e-02 5.9952594719574508e+00 -3.7225235298446351e+00 -2.5072320331123525e+00 0 0 0
85 6 5 5.2999999999999999e-02 4.5145586769652946e+00 -4.6792839662559080e+00 -2.4685083177103677e+00 0 0 0
87 6 2 -1.5900000000000000e-01 6.6837676314242209e+00 -6.0726399404922189e+00 -2.2292264449530066e+00 0 0 0
88 6 5 5.2999999999999999e-02 7.5447277916766122e+00 -5.4392519408218654e+00 -1.9628311576868951e+00 0 0 0
89 6 5 5.2999999999999999e-02 7.0265984309396909e+00 -7.1171303299539046e+00 -2.2572547601085389e+00 0 0 0
90 6 5 5.2999999999999999e-02 5.9523838690030999e+00 -5.9757580088599243e+00 -1.4110631651176633e+00 0 0 0
96 7 2 -2.5999999999999999e-02 1.0892056369390902e+01 -5.7424833641753095e+00 -2.8281341789504535e+00 0 0 0
97 7 5 5.2999999999999999e-02 1.1552036334233501e+01 -6.5818264926789061e+00 -3.0882557681933243e+00 0 0 0
98 7 5 5.2999999999999999e-02 1.0369305279174972e+01 -5.9500586478103390e+00 -1.8841094177248696e+00 0 0 0
101 7 5 5.2999999999999999e-02 1.1486943700241840e+01 -4.8246421760037643e+00 -2.7250193588640670e+00 0 0 0
1 1 1 0.0000000000000000e+00 -6.3317681994073616e-01 3.6339854834621317e+00 -5.1956496762028048e-01 0 0 0
2 1 2 -1.5900000000000000e-01 -1.6806990209283306e+00 4.7376228077208866e+00 -6.7446006433153094e-01 0 0 0
3 1 3 2.6600000000000001e-01 -1.3874607903420040e+00 2.5108516079766123e+00 2.0256336220388116e-01 0 0 0
4 1 4 -2.6600000000000001e-01 -8.3325131202230474e-01 2.3328885429893598e+00 1.4163825394336609e+00 0 0 0
5 1 2 -2.5999999999999999e-02 -1.4174840484640518e+00 1.2936324082727060e+00 2.1946645611116242e+00 0 0 0
6 1 5 5.2999999999999999e-02 -2.4764776900748280e+00 1.5251404168519431e+00 2.3744846267978645e+00 0 0 0
7 1 5 5.2999999999999999e-02 -2.5306891362912820e+00 4.3916337115827311e+00 -1.2824244429574714e+00 0 0 0
8 1 5 5.2999999999999999e-02 -8.8679444508441951e-01 1.2270400403697985e+00 3.1543045597020787e+00 0 0 0
9 1 5 5.2999999999999999e-02 -1.2284748585938523e+00 5.6094949040682911e+00 -1.1718614776197103e+00 0 0 0
10 1 5 5.2999999999999999e-02 -2.0700974523222242e+00 5.0612099365731975e+00 3.0305385297949289e-01 0 0 0
11 1 5 5.2999999999999999e-02 -1.3243152083177734e+00 3.4040899187543633e-01 1.6558129898934559e+00 0 0 0
12 1 2 -1.5900000000000000e-01 5.1277407515114271e-01 4.1497438340348021e+00 3.5263000127670785e-01 0 0 0
13 1 5 5.2999999999999999e-02 1.0559239007071495e+00 4.9397931035156804e+00 -1.8981686827702954e-01 0 0 0
14 1 5 5.2999999999999999e-02 1.2392287678287268e+00 3.3713577647593600e+00 6.2871306746891575e-01 0 0 0
15 1 5 5.2999999999999999e-02 1.1752356456927671e-01 4.5985050338081246e+00 1.2781133703463374e+00 0 0 0
16 1 6 -1.3300000000000001e-01 -2.3226976339700274e+00 1.8803316047459502e+00 -2.0358328849276122e-01 0 0 0
17 2 1 0.0000000000000000e+00 8.0476233742571179e-01 2.1462014311789588e+00 -2.3362385842719919e+00 0 0 0
18 2 7 -1.0600000000000000e-01 -2.9430197234065564e-01 3.1708427815979188e+00 -1.9528803198103732e+00 0 0 0
19 2 3 2.6600000000000001e-01 2.1386907463574030e+00 2.8334814363066818e+00 -2.1028476298665413e+00 0 0 0
20 2 4 -2.6600000000000001e-01 2.3728369507173603e+00 3.6722062886711586e+00 -3.1314615924061813e+00 0 0 0
24 2 5 5.2999999999999999e-02 -1.2359567006001086e+00 2.7743819478511509e+00 -2.3739128005661945e+00 0 0 0
25 2 5 5.2999999999999999e-02 -8.0224204496077034e-02 4.0915915990617844e+00 -2.5241861410658903e+00 0 0 0
31 2 6 -1.3300000000000001e-01 2.8903336445784484e+00 2.6971927655338814e+00 -1.1785176144482163e+00 0 0 0
32 3 1 0.0000000000000000e+00 1.3971440656156973e+00 -4.9643277226313820e-01 -1.8007235433008550e+00 0 0 0
33 3 7 -1.0600000000000000e-01 6.9166490125953228e-01 8.5309801832292009e-01 -1.4945588149290958e+00 0 0 0
39 3 5 5.2999999999999999e-02 9.8092607864122361e-01 1.1158022830233183e+00 -4.6198636349922034e-01 0 0 0
40 3 5 5.2999999999999999e-02 -3.8492835242245782e-01 6.1478299152813720e-01 -1.4580529327224727e+00 0 0 0
48 4 7 -1.0600000000000000e-01 2.9134291335965270e+00 -3.1319686991835666e-01 -2.0297760228535973e+00 0 0 0
54 4 5 5.2999999999999999e-02 3.0381449259019440e+00 3.3162114330050130e-01 -2.9167677866535326e+00 0 0 0
55 4 5 5.2999999999999999e-02 3.2514328565821793e+00 2.8090959303395657e-01 -1.1646139763336827e+00 0 0 0
21 2 2 -2.5999999999999999e-02 3.6034831598907493e+00 4.3838688893812643e+00 -3.0531452828179995e+00 0 0 0
22 2 5 5.2999999999999999e-02 3.6105936908462835e+00 4.9991191722280313e+00 -2.1426571611089851e+00 0 0 0
26 2 5 5.2999999999999999e-02 4.4366624295197656e+00 3.6675254423361245e+00 -3.0329261630118207e+00 0 0 0
57 4 2 -1.5900000000000000e-01 5.2827157776945590e+00 -6.5165278302143659e-01 -2.2704093452638463e+00 0 0 0
58 4 5 5.2999999999999999e-02 5.3455504621319054e+00 -1.4861286579121391e-01 -3.2481650941479265e+00 0 0 0
60 4 5 5.2999999999999999e-02 5.3316836719804970e+00 1.3808113882220788e-01 -1.5044373000705702e+00 0 0 0

Velocities

86 0.0000000000000000e+00 0.0000000000000000e+00 0.0000000000000000e+00
107 0.0000000000000000e+00 0.0000000000000000e+00 0.0000000000000000e+00
109 0.0000000000000000e+00 0.0000000000000000e+00 0.0000000000000000e+00
110 0.0000000000000000e+00 0.0000000000000000e+00 0.0000000000000000e+00
113 0.0000000000000000e+00 0.0000000000000000e+00 0.0000000000000000e+00
114 0.0000000000000000e+00 0.0000000000000000e+00 0.0000000000000000e+00
117 0.0000000000000000e+00 0.0000000000000000e+00 0.0000000000000000e+00
118 0.0000000000000000e+00 0.0000000000000000e+00 0.0000000000000000e+00
119 0.0000000000000000e+00 0.0000000000000000e+00 0.0000000000000000e+00
120 0.0000000000000000e+00 0.0000000000000000e+00 0.0000000000000000e+00
123 0.0000000000000000e+00 0.0000000000000000e+00 0.0000000000000000e+00
124 0.0000000000000000e+00 0.0000000000000000e+00 0.0000000000000000e+00
125 0.0000000000000000e+00 0.0000000000000000e+00 0.0000000000000000e+00
126 0.0000000000000000e+00 0.0000000000000000e+00 0.0000000000000000e+00
127 0.0000000000000000e+00 0.0000000000000000e+00 0.0000000000000000e+00
128 0.0000000000000000e+00 0.0000000000000000e+00 0.0000000000000000e+00
130 0.0000000000000000e+00 0.0000000000000000e+00 0.0000000000000000e+00
131 0.0000000000000000e+00 0.0000000000000000e+00 0.0000000000000000e+00
136 0.0000000000000000e+00 0.0000000000000000e+00 0.0000000000000000e+00
122 0.0000000000000000e+00 0.0000000000000000e+00 0.0000000000000000e+00
129 0.0000000000000000e+00 0.0000000000000000e+00 0.0000000000000000e+00
132 0.0000000000000000e+00 0.0000000000000000e+00 0.0000000000000000e+00
133 0.0000000000000000e+00 0.0000000000000000e+00 0.0000000000000000e+00
134 0.0000000000000000e+00 0.0000000000000000e+00 0.0000000000000000e+00
135 0.0000000000000000e+00 0.0000000000000000e+00 0.0000000000000000e+00
137 0.0000000000000000e+00 0.0000000000000000e+00 0.0000000000000000e+00
138 0.0000000000000000e+00 0.0000000000000000e+00 0.0000000000000000e+00
139 0.0000000000000000e+00 0.0000000000000000e+00 0.0000000000000000e+00
140 0.0000000000000000e+00 0.0000000000000000e+00 0.0000000000000000e+00
141 0.0000000000000000e+00 0.0000000000000000e+00 0.0000000000000000e+00
142 0.0000000000000000e+00 0.0000000000000000e+00 0.0000000000000000e+00
143 0.0000000000000000e+00 0.0000000000000000e+00 0.0000000000000000e+00
144 0.0000000000000000e+00 0.0000000000000000e+00 0.0000000000000000e+00