LAMMPS data file via write_data, version 24 Oct 2015-ICMS, timestep = 97

1280 atoms
5 atom types
128 bonds
1 bond types

-1.0320000000000000e+01 1.0320000000000000e+01 xlo xhi
-1.7931646038000000e+01 1.7931646038000000e+01 ylo yhi
-9.1966146809999998e+00 9.1966146809999998e+00 zlo zhi
2.2533867499999999e-01 -3.3938777480000000e+00 -3.6365652300000001e-01 xy xz yz

Masses

1 26.9815
2 28.0855
3 15.9994
4 15.9994
5 1.00797

Pair Coeffs # lj/cut/coul/long

1 1.3297e-06 4.27132
2 1.8402e-06 3.30196
3 0.155416 3.16552
4 0.155416 3.16552
5 0 0

Bond Coeffs # harmonic

1 553.935 1

Atoms # full

1 1 1 1.5750000000000000e+00 2.6000714789593751e+00 1.4894792160606976e+00 -3.2724341643746158e-03 0 0 0
2 1 2 2.1000000000000001e+00 3.3888512764168830e+00 8.8633039168875207e+00 2.7538958890238696e+00 0 0 0
3 1 2 2.1000000000000001e+00 3.4122036402903841e+00 2.8524887294223298e+00 2.7617665793809874e+00 0 0 0
4 1 3 -1.0500000000000000e+00 3.1915227275702804e+00 -3.1324495771823280e-02 1.1357360737372577e+00 0 0 0
5 1 3 -1.0500000000000000e+00 3.5470332310491468e+00 2.7594471461919454e+00 1.1370452762630130e+00 0 0 0
6 1 4 -9.4999999999999996e-01 9.0639639057410193e-01 1.5632155125620351e+00 1.0068888079392266e+00 0 0 0
7 1 3 -1.0500000000000000e+00 -4.4300615993295267e-01 3.5553766737673556e+00 3.2357435343452252e+00 0 0 0
8 1 3 -1.0500000000000000e+00 3.2999227287331738e+00 1.3781331597446389e+00 3.2376888080414368e+00 0 0 0
9 1 3 -1.0500000000000000e+00 2.1466799995253449e+00 3.7042086116993893e+00 3.0458513707542529e+00 0 0 0
10 1 5 4.2499999999999999e-01 3.9947470817457997e-01 6.8417215087817951e-01 1.1506443642559319e+00 0 0 0
11 1 1 1.5750000000000000e+00 5.2082449841408476e+00 5.9724138174009802e+00 -3.2727950796616057e-03 0 0 0
12 1 2 2.1000000000000001e+00 7.8065894330936025e-01 4.3803928207698632e+00 2.7538963739148841e+00 0 0 0
13 1 2 2.1000000000000001e+00 8.6037969207801268e-01 7.3353752959374141e+00 2.7617620870872734e+00 0 0 0
14 1 3 -1.0500000000000000e+00 6.3966639689459548e-01 4.4515687682101515e+00 1.1357627423737586e+00 0 0 0
15 1 3 -1.0500000000000000e+00 9.9522811059404503e-01 7.2423309133503437e+00 1.1370279152922151e+00 0 0 0
16 1 4 -9.4999999999999996e-01 3.5145746331402776e+00 6.0461056209184996e+00 1.0068980245516883e+00 0 0 0
17 1 3 -1.0500000000000000e+00 2.1651871307123436e+00 8.0382769067536834e+00 3.2357639695907174e+00 0 0 0
18 1 3 -1.0500000000000000e+00 7.4808571963755277e-01 5.8610699261249799e+00 3.2376852068400783e+00 0 0 0
19 1 3 -1.0500000000000000e+00 -4.0513200105762692e-01 8.1871458861348252e+00 3.0458340831318527e+00 0 0 0
20 1 5 4.2499999999999999e-01 3.0076408529876133e+00 5.1671352838070419e+00 1.1506727018101763e+00 0 0 0
21 1 1 1.5750000000000000e+00 2.6160337242627385e+00 7.4762121163480835e+00 -3.7679339507690202e-03 0 0 0
22 1 2 2.1000000000000001e+00 1.8272442423721067e+00 1.0235452397406419e-01 -2.7608951598863420e+00 0 0 0
23 1 2 2.1000000000000001e+00 1.8039149824855656e+00 6.1131988863851205e+00 -2.7688143987069944e+00 0 0 0
24 1 3 -1.0500000000000000e+00 2.0247359072770106e+00 8.9971166431897238e+00 -1.1428135308481817e+00 0 0 0
25 1 3 -1.0500000000000000e+00 1.6690396934061837e+00 6.2060610243661216e+00 -1.1440123480308522e+00 0 0 0
26 1 4 -9.4999999999999996e-01 4.3098171216561010e+00 7.4025604980703399e+00 -1.0139209840264627e+00 0 0 0
27 1 3 -1.0500000000000000e+00 5.6591538061328155e+00 5.4102822214207755e+00 -3.2426109985712959e+00 0 0 0
28 1 3 -1.0500000000000000e+00 1.9163543145814046e+00 7.5875429044875240e+00 -3.2448378878070452e+00 0 0 0
29 1 3 -1.0500000000000000e+00 3.0694016918821738e+00 5.2613972898578716e+00 -3.0528608543594498e+00 0 0 0
30 1 5 4.2499999999999999e-01 4.8166238332644706e+00 8.2814552559221255e+00 -1.1575484564914529e+00 0 0 0
31 1 1 1.5750000000000000e+00 7.8721152905387726e-03 2.9932710911072924e+00 -3.7631068242820476e-03 0 0 0
32 1 2 2.1000000000000001e+00 4.4354124124076613e+00 4.5852699365916116e+00 -2.7608937131000477e+00 0 0 0
33 1 2 2.1000000000000001e+00 4.3557271097076509e+00 1.6303240475520013e+00 -2.7688126814472618e+00 0 0 0
34 1 3 -1.0500000000000000e+00 4.5765848686916186e+00 4.5142288488406983e+00 -1.1428174767092045e+00 0 0 0
35 1 3 -1.0500000000000000e+00 4.2208490378864258e+00 1.7231665684011759e+00 -1.1440027470792096e+00 0 0 0
36 1 4 -9.4999999999999996e-01 1.7016187601541688e+00 2.9196493272429898e+00 -1.0139413773039561e+00 0 0 0
37 1 3 -1.0500000000000000e+00 3.0509330899831255e+00 9.2736403559655045e-01 -3.2426261785942208e+00 0 0 0
38 1 3 -1.0500000000000000e+00 4.4681918905758522e+00 3.1045919000279127e+00 -3.2448481471079784e+00 0 0 0
39 1 3 -1.0500000000000000e+00 5.6212256650052446e+00 7.7845330241011723e-01 -3.0528452687877392e+00 0 0 0
40 1 5 4.2499999999999999e-01 2.2084407067451135e+00 3.7984879157614522e+00 -1.1576655468405033e+00 0 0 0
41 1 1 1.5750000000000000e+00 7.7600845308154121e+00 1.4894705806920072e+00 -3.2671351978219576e-03 0 0 0
42 1 2 2.1000000000000001e+00 -1.2091142634891035e+01 8.8633145054206288e+00 2.7538808736094804e+00 1 0 0
43 1 2 2.1000000000000001e+00 -1.2067805176309086e+01 2.8524796084808841e+00 2.7617740243776367e+00 1 0 0
44 1 3 -1.0500000000000000e+00 8.3515069292543487e+00 -3.1325720205767738e-02 1.1357488996139420e+00 0 0 0
45 1 3 -1.0500000000000000e+00 -1.1932961924224253e+01 2.7594497009075667e+00 1.1370388175604429e+00 1 0 0
46 1 4 -9.4999999999999996e-01 6.0663707264653013e+00 1.5631845173515728e+00 1.0068709132216025e+00 0 0 0
47 1 3 -1.0500000000000000e+00 4.7169659967870281e+00 3.5553592839706596e+00 3.2357488556419618e+00 0 0 0
48 1 3 -1.0500000000000000e+00 -1.2180080803394853e+01 1.3781323790369449e+00 3.2377056231325412e+00 1 0 0
49 1 3 -1.0500000000000000e+00 7.3066640290441995e+00 3.7042200322170231e+00 3.0458484110925532e+00 0 0 0
50 1 5 4.2499999999999999e-01 5.5594541328557323e+00 6.8415109182854295e-01 1.1505002465261160e+00 0 0 0
51 1 1 1.5750000000000000e+00 -1.0271746834233385e+01 5.9724140268693553e+00 -3.2716143612443460e-03 1 0 0
52 1 2 2.1000000000000001e+00 5.9406816112148135e+00 4.3803846602753786e+00 2.7538960010783704e+00 0 0 0
53 1 2 2.1000000000000001e+00 6.0203901170690983e+00 7.3353651695314888e+00 2.7617667261366279e+00 0 0 0
54 1 3 -1.0500000000000000e+00 5.7996709988339532e+00 4.4515666071358559e+00 1.1357461524365906e+00 0 0 0
55 1 3 -1.0500000000000000e+00 6.1552236861599425e+00 7.2423398264353658e+00 1.1370349087014215e+00 0 0 0
56 1 4 -9.4999999999999996e-01 -1.1965418454563789e+01 6.0461212882123156e+00 1.0069140277775315e+00 1 0 0
57 1 3 -1.0500000000000000e+00 7.3251652456970113e+00 8.0382592725304569e+00 3.2357579104016239e+00 0 0 0
58 1 3 -1.0500000000000000e+00 5.9080869344973941e+00 5.8610858948570197e+00 3.2376917279590067e+00 0 0 0
59 1 3 -1.0500000000000000e+00 4.7548544779284576e+00 8.1871510262123515e+00 3.0458361561728324e+00 0 0 0
60 1 5 4.2499999999999999e-01 8.1676630487137487e+00 5.1671484741634544e+00 1.1507863408329566e+00 0 0 0
61 1 1 1.5750000000000000e+00 7.7760430938164511e+00 7.4762112686089210e+00 -3.7661045029810936e-03 0 0 0
62 1 2 2.1000000000000001e+00 6.9872221277103073e+00 1.0236400622085640e-01 -2.7608956869542940e+00 0 0 0
63 1 2 2.1000000000000001e+00 6.9639024613826237e+00 6.1132078591126024e+00 -2.7688180306859120e+00 0 0 0
64 1 3 -1.0500000000000000e+00 7.1847299693423636e+00 8.9971189235017555e+00 -1.1427954761034602e+00 0 0 0
65 1 3 -1.0500000000000000e+00 6.8290445485187838e+00 6.2060511003421475e+00 -1.1440201411436348e+00 0 0 0
66 1 4 -9.4999999999999996e-01 -1.1170179401349104e+01 7.4025715318519616e+00 -1.0139079045151256e+00 1 0 0
67 1 3 -1.0500000000000000e+00 -9.8208722096162422e+00 5.4102617645258597e+00 -3.2426169389587720e+00 1 0 0
68 1 3 -1.0500000000000000e+00 7.0763533880459448e+00 7.5875269446494933e+00 -3.2448428093510815e+00 0 0 0
69 1 3 -1.0500000000000000e+00 8.2294134599018207e+00 5.2613928775960481e+00 -3.0528635113467359e+00 0 0 0
70 1 5 4.2499999999999999e-01 -1.0663356752324118e+01 8.2814647238737038e+00 -1.1574570360611904e+00 1 0 0
71 1 1 1.5750000000000000e+00 5.1678595511383953e+00 2.9932794956743400e+00 -3.7682495154793827e-03 0 0 0
72 1 2 2.1000000000000001e+00 -1.1044578735544359e+01 4.5852804510839995e+00 -2.7609085188696003e+00 1 0 0
73 1 2 2.1000000000000001e+00 -1.1124280120471164e+01 1.6303130160621073e+00 -2.7688050243051654e+00 1 0 0
74 1 3 -1.0500000000000000e+00 -1.0903430837138755e+01 4.5142265182170114e+00 -1.1428067019922281e+00 1 0 0
75 1 3 -1.0500000000000000e+00 -1.1259146460802429e+01 1.7231701588295429e+00 -1.1440089039848367e+00 1 0 0
76 1 4 -9.4999999999999996e-01 6.8616453016252521e+00 2.9196822038068042e+00 -1.0139216128372404e+00 0 0 0
77 1 3 -1.0500000000000000e+00 8.2109571487609827e+00 9.2737859539361978e-01 -3.2426323082758728e+00 0 0 0
78 1 3 -1.0500000000000000e+00 -1.1011811761974229e+01 3.1045930104483759e+00 -3.2448303264821794e+00 1 0 0
79 1 3 -1.0500000000000000e+00 -9.8587920774733693e+00 7.7846554865378792e-01 -3.0528473884375895e+00 1 0 0
80 1 5 4.2499999999999999e-01 7.3684626875205588e+00 3.7985101846869256e+00 -1.1575103660650452e+00 0 0 0
81 1 1 1.5750000000000000e+00 -7.7199281726379851e+00 1.4894790776152078e+00 -3.2724555993777216e-03 1 0 0
82 1 2 2.1000000000000001e+00 -6.9311483564799579e+00 8.8633038807281785e+00 2.7538960009466376e+00 1 0 0
83 1 2 2.1000000000000001e+00 -6.9077956621698489e+00 2.8524895765317808e+00 2.7617665991751519e+00 1 0 0
84 1 3 -1.0500000000000000e+00 -7.1284775002355394e+00 -3.1324481964453810e-02 1.1357365527598446e+00 1 0 0
85 1 3 -1.0500000000000000e+00 -6.7729673531069245e+00 2.7594471850213687e+00 1.1370450097681122e+00 1 0 0
86 1 4 -9.4999999999999996e-01 -9.4136030086299414e+00 1.5632161786690695e+00 1.0068890206431487e+00 1 0 0
87 1 3 -1.0500000000000000e+00 -1.0763007134831607e+01 3.5553762279049508e+00 3.2357432836676043e+00 1 0 0
88 1 3 -1.0500000000000000e+00 -7.0200779492618830e+00 1.3781321729757572e+00 3.2376887121993452e+00 1 0 0
89 1 3 -1.0500000000000000e+00 -8.1733196741368719e+00 3.7042082476166307e+00 3.0458512074393269e+00 1 0 0
90 1 5 4.2499999999999999e-01 -9.9205252798252292e+00 6.8417198273265356e-01 1.1506460579325335e+00 1 0 0
91 1 1 1.5750000000000000e+00 -5.1117549333116692e+00 5.9724138904908486e+00 -3.2727103645768807e-03 1 0 0
92 1 2 2.1000000000000001e+00 -9.5393407151183922e+00 4.3803927214282616e+00 2.7538964523725067e+00 1 0 0
93 1 2 2.1000000000000001e+00 -9.4596208013141094e+00 7.3353758537792650e+00 2.7617621570838597e+00 1 0 0
94 1 3 -1.0500000000000000e+00 -9.6803336059686469e+00 4.4515688238064364e+00 1.1357629650983831e+00 1 0 0
95 1 3 -1.0500000000000000e+00 -9.3247719839755963e+00 7.2423306831909962e+00 1.1370278292451879e+00 1 0 0
96 1 4 -9.4999999999999996e-01 -6.8054254594612225e+00 6.0461058148285396e+00 1.0068978172920957e+00 1 0 0
97 1 3 -1.0500000000000000e+00 -8.1548120968869000e+00 8.0382775480633875e+00 3.2357637642174133e+00 1 0 0
98 1 3 -1.0500000000000000e+00 -9.5719143673187084e+00 5.8610700576774661e+00 3.2376852155298828e+00 1 0 0
99 1 3 -1.0500000000000000e+00 -1.0725132281094336e+01 8.1871457107003032e+00 3.0458339522302751e+00 1 0 0
100 1 5 4.2499999999999999e-01 -7.3123591493045659e+00 5.1671352420150960e+00 1.1506725160907028e+00 1 0 0
101 1 1 1.5750000000000000e+00 -7.7039661392078020e+00 7.4762121719255390e+00 -3.7682078301308763e-03 1 0 0
102 1 2 2.1000000000000001e+00 -8.4927550473127180e+00 1.0235486645645508e-01 -2.7608951403105042e+00 1 0 0
103 1 2 2.1000000000000001e+00 -8.5160852926969905e+00 6.1131990991198997e+00 -2.7688142320374940e+00 1 0 0
104 1 3 -1.0500000000000000e+00 -8.2952641286984203e+00 8.9971169044920778e+00 -1.1428134840038755e+00 1 0 0
105 1 3 -1.0500000000000000e+00 -8.6509603566434361e+00 6.2060607665068055e+00 -1.1440124271361789e+00 1 0 0
106 1 4 -9.4999999999999996e-01 -6.0101827955527565e+00 7.4025603031072329e+00 -1.0139213710091308e+00 1 0 0
107 1 3 -1.0500000000000000e+00 -4.6608455934220148e+00 5.4102827452969429e+00 -3.2426107408542437e+00 1 0 0
108 1 3 -1.0500000000000000e+00 -8.4036457935644169e+00 7.5875425899482565e+00 -3.2448384441709388e+00 1 0 0
109 1 3 -1.0500000000000000e+00 -7.2505982941478297e+00 5.2613968699746003e+00 -3.0528607675410457e+00 1 0 0
110 1 5 4.2499999999999999e-01 -5.5033762395629582e+00 8.2814550493740740e+00 -1.1575499564338703e+00 1 0 0
111 1 1 1.5750000000000000e+00 -1.0312127848754963e+01 2.9932710802095919e+00 -3.7629014077342759e-03 1 0 0
112 1 2 2.1000000000000001e+00 -5.8845878185650982e+00 4.5852698968409165e+00 -2.7608938634931910e+00 1 0 0
113 1 2 2.1000000000000001e+00 -5.9642725250308875e+00 1.6303233843688680e+00 -2.7688124598580766e+00 1 0 0
114 1 3 -1.0500000000000000e+00 -5.7434150738103007e+00 4.5142286422205764e+00 -1.1428184018271512e+00 1 0 0
115 1 3 -1.0500000000000000e+00 -6.0991511904217299e+00 1.7231673138735495e+00 -1.1440030942049173e+00 1 0 0
116 1 4 -9.4999999999999996e-01 -8.6183814565733705e+00 2.9196490081391033e+00 -1.0139414870485535e+00 1 0 0
117 1 3 -1.0500000000000000e+00 -7.2690682215044822e+00 9.2736362008184159e-01 -3.2426264066786432e+00 1 0 0
118 1 3 -1.0500000000000000e+00 -5.8518082502983955e+00 3.1045928031364411e+00 -3.2448477388756478e+00 1 0 0
119 1 3 -1.0500000000000000e+00 -4.6987742978898988e+00 7.7845301166729186e-01 -3.0528450718806761e+00 1 0 0
120 1 5 4.2499999999999999e-01 -8.1115594830260207e+00 3.7984876081206806e+00 -1.1576664325795285e+00 1 0 0
121 1 1 1.5750000000000000e+00 -2.5599150854889094e+00 1.4894706170264342e+00 -3.2674360429911786e-03 1 0 0
122 1 2 2.1000000000000001e+00 -1.7711425777258931e+00 8.8633146161589806e+00 2.7538807796770186e+00 1 0 0
123 1 2 2.1000000000000001e+00 -1.7478054130511396e+00 2.8524797344303252e+00 2.7617739588054651e+00 1 0 0
124 1 3 -1.0500000000000000e+00 -1.9684931255098146e+00 -3.1325651116073772e-02 1.1357490996153903e+00 1 0 0
125 1 3 -1.0500000000000000e+00 -1.6129621986767120e+00 2.7594493305451913e+00 1.1370386304640405e+00 1 0 0
126 1 4 -9.4999999999999996e-01 -4.2536299560830892e+00 1.5631828595113966e+00 1.0068699983288631e+00 1 0 0
127 1 3 -1.0500000000000000e+00 -5.6030339285886290e+00 3.5553594737746543e+00 3.2357491377820011e+00 1 0 0
128 1 3 -1.0500000000000000e+00 -1.8600810558661927e+00 1.3781316682245190e+00 3.2377051692239878e+00 1 0 0
129 1 3 -1.0500000000000000e+00 -3.0133359720352626e+00 3.7042198037561391e+00 3.0458483427178091e+00 1 0 0
130 1 5 4.2499999999999999e-01 -4.7605464608785963e+00 6.8414990826685695e-01 1.1504933665649624e+00 1 0 0
131 1 1 1.5750000000000000e+00 4.8252971132846767e-02 5.9724140153684573e+00 -3.2715658741668818e-03 1 0 0
132 1 2 2.1000000000000001e+00 -4.3793184632079472e+00 4.3803847290240121e+00 2.7538960659004399e+00 1 0 0
133 1 2 2.1000000000000001e+00 -4.2996100770438455e+00 7.3353642603157603e+00 2.7617667119934151e+00 1 0 0
134 1 3 -1.0500000000000000e+00 -4.5203291270400356e+00 4.4515663398601113e+00 1.1357454518209789e+00 1 0 0
135 1 3 -1.0500000000000000e+00 -4.1647764890169432e+00 7.2423401299927299e+00 1.1370344961840431e+00 1 0 0
136 1 4 -9.4999999999999996e-01 -1.6454185074090386e+00 6.0461211420920371e+00 1.0069142678365317e+00 1 0 0
137 1 3 -1.0500000000000000e+00 -2.9948349753606820e+00 8.0382595250699929e+00 3.2357578355633851e+00 1 0 0
138 1 3 -1.0500000000000000e+00 -4.4119132227444346e+00 5.8610867870033019e+00 3.2376918486063424e+00 1 0 0
139 1 3 -1.0500000000000000e+00 -5.5651452482014427e+00 8.1871507623420428e+00 3.0458360372166311e+00 1 0 0
140 1 5 4.2499999999999999e-01 -2.1523364466372712e+00 5.1671496373027175e+00 1.1507886916566683e+00 1 0 0
141 1 1 1.5750000000000000e+00 -2.5439566444245010e+00 7.4762112209052383e+00 -3.7662775479017085e-03 1 0 0
142 1 2 2.1000000000000001e+00 -3.3327770319686962e+00 1.0236445803406014e-01 -2.7608954657080140e+00 1 0 0
143 1 2 2.1000000000000001e+00 -3.3560968225599401e+00 6.1132081297483190e+00 -2.7688181718580109e+00 1 0 0
144 1 3 -1.0500000000000000e+00 -3.1352704458339078e+00 8.9971190839726631e+00 -1.1427951007065573e+00 1 0 0
145 1 3 -1.0500000000000000e+00 -3.4909559457041324e+00 6.2060507675043333e+00 -1.1440204115643127e+00 1 0 0
146 1 4 -9.4999999999999996e-01 -8.5017933782899036e-01 7.4025711769369202e+00 -1.0139080031312293e+00 1 0 0
147 1 3 -1.0500000000000000e+00 4.9912708373973835e-01 5.4102616063578708e+00 -3.2426169490766288e+00 1 0 0
148 1 3 -1.0500000000000000e+00 -3.2436472194278476e+00 7.5875263788260945e+00 -3.2448433115530761e+00 1 0 0
149 1 3 -1.0500000000000000e+00 -2.0905863460581759e+00 5.2613927792139954e+00 -3.0528639226122767e+00 1 0 0
150 1 5 4.2499999999999999e-01 -3.4335653949917244e-01 8.2814649799908011e+00 -1.1574574055638855e+00 1 0 0
151 1 1 1.5750000000000000e+00 -5.1521404274402407e+00 2.9932795557898082e+00 -3.7680306824974252e-03 1 0 0
152 1 2 2.1000000000000001e+00 -7.2457871207509861e-01 4.5852797211023919e+00 -2.7609088010670852e+00 1 0 0
153 1 2 2.1000000000000001e+00 -8.0428086665862075e-01 1.6303133125527722e+00 -2.7688049343933923e+00 1 0 0
154 1 3 -1.0500000000000000e+00 -5.8343093933598666e-01 4.5142267968591376e+00 -1.1428066085208357e+00 1 0 0
155 1 3 -1.0500000000000000e+00 -9.3914622858366670e-01 1.7231700956648055e+00 -1.1440088196464711e+00 1 0 0
156 1 4 -9.4999999999999996e-01 -3.4583543601678235e+00 2.9196834237039830e+00 -1.0139212715896715e+00 1 0 0
157 1 3 -1.0500000000000000e+00 -2.1090423826736071e+00 9.2737904555706407e-01 -3.2426328776455264e+00 1 0 0
158 1 3 -1.0500000000000000e+00 -6.9181166114669601e-01 3.1045939749993074e+00 -3.2448305477291193e+00 1 0 0
159 1 3 -1.0500000000000000e+00 4.6120793659927273e-01 7.7846512670406298e-01 -3.0528475173831282e+00 1 0 0
160 1 5 4.2499999999999999e-01 -2.9515369386160293e+00 3.7985107923601902e+00 -1.1575067719378200e+00 1 0 0
161 1 1 1.5750000000000000e+00 2.6563989185621697e+00 1.0455321895488769e+01 -3.2762588329369180e-03 0 0 0
162 1 2 2.1000000000000001e+00 3.2198338942299962e+00 -1.8034180438769312e+01 2.7539045325154952e+00 0 1 0
163 1 2 2.1000000000000001e+00 3.4685420976023327e+00 1.1818309915154089e+01 2.7617701798617826e+00 0 0 0
164 1 3 -1.0500000000000000e+00 3.2478451452900838e+00 8.9345035359001521e+00 1.1357517024424695e+00 0 0 0
165 1 3 -1.0500000000000000e+00 3.6033716610399829e+00 1.1725263629349289e+01 1.1370436349851865e+00 0 0 0
166 1 4 -9.4999999999999996e-01 9.6276915931304607e-01 1.0529096885950434e+01 1.0069347805155928e+00 0 0 0
167 1 3 -1.0500000000000000e+00 -3.8666356265307122e-01 1.2521194387407096e+01 3.2357442840378923e+00 0 0 0
168 1 3 -1.0500000000000000e+00 3.3562645144848258e+00 1.0343984632188544e+01 3.2376585390762695e+00 0 0 0
169 1 3 -1.0500000000000000e+00 2.2030139553919152e+00 1.2670029659309332e+01 3.0458538764694207e+00 0 0 0
170 1 5 4.2499999999999999e-01 4.5583534879090593e-01 9.6500966233062790e+00 1.1509976244895963e+00 0 0 0
171 1 1 1.5750000000000000e+00 5.2645804008917914e+00 1.4938212777711680e+01 -3.2699391108348408e-03 0 0 0
172 1 2 2.1000000000000001e+00 8.3700178762454414e-01 1.3346240941494244e+01 2.7538856869733728e+00 0 0 0
173 1 2 2.1000000000000001e+00 9.1670173505335306e-01 1.6301214338866860e+01 2.7617644421088432e+00 0 0 0
174 1 3 -1.0500000000000000e+00 6.9601370418275010e-01 1.3417400877129523e+01 1.1357494354954341e+00 0 0 0
175 1 3 -1.0500000000000000e+00 1.0515475883742784e+00 1.6208170709964772e+01 1.1370347918279791e+00 0 0 0
176 1 4 -9.4999999999999996e-01 3.5708778167504427e+00 1.5011903925901866e+01 1.0068638471664286e+00 0 0 0
177 1 3 -1.0500000000000000e+00 2.2215014317380977e+00 1.7004108589789258e+01 3.2357547344228585e+00 0 0 0
178 1 3 -1.0500000000000000e+00 8.0441865697185477e-01 1.4826861212618862e+01 3.2377028072007512e+00 0 0 0
179 1 3 -1.0500000000000000e+00 -3.4880995646462942e-01 1.7152956450342980e+01 3.0458414005831536e+00 0 0 0
180 1 5 4.2499999999999999e-01 3.0639529840814195e+00 1.4132875829311541e+01 1.1504351342271377e+00 0 0 0
181 1 1 1.5750000000000000e+00 2.6723615194140677e+00 1.6442023399895145e+01 -3.7682517850203823e-03 0 0 0
182 1 2 2.1000000000000001e+00 1.8835787239124393e+00 9.0681552640911072e+00 -2.7608879508938262e+00 0 0 0
183 1 2 2.1000000000000001e+00 1.8602366759051847e+00 1.5079041458825895e+01 -2.7688068742259579e+00 0 0 0
184 1 3 -1.0500000000000000e+00 1.8557359902853232e+00 -1.7900333969854724e+01 -1.1428135029016779e+00 0 1 0
185 1 3 -1.0500000000000000e+00 1.7253575492439523e+00 1.5171900079888406e+01 -1.1440049164116175e+00 0 0 0
186 1 4 -9.4999999999999996e-01 4.3661514573287654e+00 1.6368415136999023e+01 -1.0139166296354674e+00 0 0 0
187 1 3 -1.0500000000000000e+00 5.7154690322009074e+00 1.4376111304605590e+01 -3.2426223925272826e+00 0 0 0
188 1 3 -1.0500000000000000e+00 1.9726946608641462e+00 1.6553353247753808e+01 -3.2448482730141261e+00 0 0 0
189 1 3 -1.0500000000000000e+00 3.1257184502843245e+00 1.4227200410253584e+01 -3.0528478566956565e+00 0 0 0
190 1 5 4.2499999999999999e-01 4.8729566638827162e+00 1.7247278927055046e+01 -1.1574780666926721e+00 0 0 0
191 1 1 1.5750000000000000e+00 6.4216158852561378e-02 1.1959087051646971e+01 -3.7600341225090261e-03 0 0 0
192 1 2 2.1000000000000001e+00 4.4917376476188586e+00 1.3551099659023443e+01 -2.7608932003969073e+00 0 0 0
193 1 2 2.1000000000000001e+00 4.4120660877589497e+00 1.0596136461956402e+01 -2.7688197432703880e+00 0 0 0
194 1 3 -1.0500000000000000e+00 4.6329255251992549e+00 1.3480037101567749e+01 -1.1428288328770435e+00 0 0 0
195 1 3 -1.0500000000000000e+00 4.2771911872604029e+00 1.0688984410239879e+01 -1.1440062182642876e+00 0 0 0
196 1 4 -9.4999999999999996e-01 1.7579262759916023e+00 1.1885411942310235e+01 -1.0139768699759095e+00 0 0 0
197 1 3 -1.0500000000000000e+00 3.1072726976913465e+00 9.8931866067750391e+00 -3.2426197851717671e+00 0 0 0
198 1 3 -1.0500000000000000e+00 4.5245182257238810e+00 1.2070401768702606e+01 -3.2448203553152579e+00 0 0 0
199 1 3 -1.0500000000000000e+00 5.6775707113324163e+00 9.7442894482667093e+00 -3.0528548068449783e+00 0 0 0
200 1 5 4.2499999999999999e-01 2.2647577755846964e+00 1.2764238323389506e+01 -1.1579590097052694e+00 0 0 0
201 1 1 1.5750000000000000e+00 7.8164117287632848e+00 1.0455313418416040e+01 -3.2710202176904346e-03 0 0 0
202 1 2 2.1000000000000001e+00 -1.2260159433678718e+01 -1.8034169647358517e+01 2.7538897492176346e+00 1 1 0
203 1 2 2.1000000000000001e+00 -1.2011466253318112e+01 1.1818300832633188e+01 2.7617775417844861e+00 1 0 0
204 1 3 -1.0500000000000000e+00 8.4078297514478351e+00 8.9345021777364160e+00 1.1357646883988455e+00 0 0 0
205 1 3 -1.0500000000000000e+00 -1.1876624030225933e+01 1.1725266199229221e+01 1.1370373498931343e+00 1 0 0
206 1 4 -9.4999999999999996e-01 6.1227442368102558e+00 1.0529066727945761e+01 1.0069175335604896e+00 0 0 0
207 1 3 -1.0500000000000000e+00 4.7733106561845826e+00 1.2521178410831844e+01 3.2357495358217694e+00 0 0 0
208 1 3 -1.0500000000000000e+00 -1.2123739199923346e+01 1.0343983924515531e+01 3.2376750805178460e+00 1 0 0
209 1 3 -1.0500000000000000e+00 7.3629980319339339e+00 1.2670040945865967e+01 3.0458509877817406e+00 0 0 0
210 1 5 4.2499999999999999e-01 5.6158158152958784e+00 9.6500772916969204e+00 1.1508595237001344e+00 0 0 0
211 1 1 1.5750000000000000e+00 -1.0215411238357737e+01 1.4938212754513795e+01 -3.2687505359643154e-03 1 0 0
212 1 2 2.1000000000000001e+00 5.9970233475307388e+00 1.3346232178649366e+01 2.7538855730068423e+00 0 0 0
213 1 2 2.1000000000000001e+00 6.0767126747095546e+00 1.6301204585436718e+01 2.7617687594200788e+00 0 0 0
214 1 3 -1.0500000000000000e+00 5.8560186155367475e+00 1.3417398798963887e+01 1.1357327828274588e+00 0 0 0
215 1 3 -1.0500000000000000e+00 6.2115434941113854e+00 1.6208179920458090e+01 1.1370418249592653e+00 0 0 0
216 1 4 -9.4999999999999996e-01 -1.1909115839139879e+01 1.5011918778012269e+01 1.0068791242057937e+00 1 0 0
217 1 3 -1.0500000000000000e+00 7.3814787112119937e+00 1.7004090310444280e+01 3.2357485436885103e+00 0 0 0
218 1 3 -1.0500000000000000e+00 5.9644198302019831e+00 1.4826876996357161e+01 3.2377087426592492e+00 0 0 0
219 1 3 -1.0500000000000000e+00 4.8111764532162535e+00 1.7152961397442720e+01 3.0458439196033620e+00 0 0 0
220 1 5 4.2499999999999999e-01 8.2239745440285787e+00 1.4132887903922470e+01 1.1505437168075829e+00 0 0 0
221 1 1 1.5750000000000000e+00 7.8323706771304558e+00 1.6442022820550246e+01 -3.7665242395927834e-03 0 0 0
222 1 2 2.1000000000000001e+00 7.0435574833984198e+00 9.0681651728979631e+00 -2.7608886881351333e+00 0 0 0
223 1 2 2.1000000000000001e+00 7.0202249181798919e+00 1.5079050811449275e+01 -2.7688110905744079e+00 0 0 0
224 1 3 -1.0500000000000000e+00 7.0157303511476421e+00 -1.7900331966671079e+01 -1.1427956373922825e+00 0 1 0
225 1 3 -1.0500000000000000e+00 6.8853621549262058e+00 1.5171890452553551e+01 -1.1440125090426640e+00 0 0 0
226 1 4 -9.4999999999999996e-01 -1.1113844930760134e+01 1.6368426269497132e+01 -1.0139030599392669e+00 1 0 0
227 1 3 -1.0500000000000000e+00 -9.7645556324506551e+00 1.4376091960320959e+01 -3.2426286772008348e+00 1 0 0
228 1 3 -1.0500000000000000e+00 7.1326934249216940e+00 1.6553337457108437e+01 -3.2448533925876024e+00 0 0 0
229 1 3 -1.0500000000000000e+00 8.2857297888025840e+00 1.4227196090097426e+01 -3.0528499396628153e+00 0 0 0
230 1 5 4.2499999999999999e-01 -1.0607023231214001e+01 1.7247289041351092e+01 -1.1573840935904762e+00 1 0 0
231 1 1 1.5750000000000000e+00 5.2242038308482766e+00 1.1959095287538190e+01 -3.7653283250147496e-03 0 0 0
232 1 2 2.1000000000000001e+00 -1.0988253694542321e+01 1.3551109824974606e+01 -2.7609081895324890e+00 1 0 0
233 1 2 2.1000000000000001e+00 -1.1067941150601820e+01 1.0596125949081394e+01 -2.7688120214376628e+00 1 0 0
234 1 3 -1.0500000000000000e+00 -1.0847089918133126e+01 1.3480035044199898e+01 -1.1428177120780383e+00 1 0 0
235 1 3 -1.0500000000000000e+00 -1.1202804668208714e+01 1.0688988083255079e+01 -1.1440123111676286e+00 1 0 0
236 1 4 -9.4999999999999996e-01 6.9179518926221384e+00 1.1885443786471409e+01 -1.0139581045576271e+00 0 0 0
237 1 3 -1.0500000000000000e+00 8.2672954375049912e+00 9.8932003039765952e+00 -3.2426259216543594e+00 0 0 0
238 1 3 -1.0500000000000000e+00 -1.0955485470410157e+01 1.2070403361540542e+01 -3.2448030648081110e+00 1 0 0
239 1 3 -1.0500000000000000e+00 -9.8024465472705913e+00 9.7443011929395063e+00 -3.0528568566460059e+00 1 0 0
240 1 5 4.2499999999999999e-01 7.4247786536253990e+00 1.2764258784769812e+01 -1.1578112291313278e+00 0 0 0
241 1 1 1.5750000000000000e+00 -7.6636008658381130e+00 1.0455321835738001e+01 -3.2764761174721713e-03 1 0 0
242 1 2 2.1000000000000001e+00 -7.1001654469134188e+00 -1.8034180376500476e+01 2.7539046011956927e+00 1 1 0
243 1 2 2.1000000000000001e+00 -6.8514574784571227e+00 1.1818310242478901e+01 2.7617701816715385e+00 1 0 0
244 1 3 -1.0500000000000000e+00 -7.0721551451225491e+00 8.9345037013666655e+00 1.1357518502984245e+00 1 0 0
245 1 3 -1.0500000000000000e+00 -6.7166288540019190e+00 1.1725263569422886e+01 1.1370434222933952e+00 1 0 0
246 1 4 -9.4999999999999996e-01 -9.3572304445276497e+00 1.0529097191669276e+01 1.0069347850610182e+00 1 0 0
247 1 3 -1.0500000000000000e+00 -1.0706664101499596e+01 1.2521194361088551e+01 3.2357439254670783e+00 1 0 0
248 1 3 -1.0500000000000000e+00 -6.9637360287682002e+00 1.0343984238065591e+01 3.2376581390482588e+00 1 0 0
249 1 3 -1.0500000000000000e+00 -8.1169857028361836e+00 1.2670029287478943e+01 3.0458536357709072e+00 1 0 0
250 1 5 4.2499999999999999e-01 -9.8641646031541530e+00 9.6500965949313660e+00 1.1509981946332442e+00 1 0 0
251 1 1 1.5750000000000000e+00 -5.0554195176290548e+00 1.4938212967058394e+01 -3.2697777500576564e-03 1 0 0
252 1 2 2.1000000000000001e+00 -9.4829984656337594e+00 1.3346240650458814e+01 2.7538856400619860e+00 1 0 0
253 1 2 2.1000000000000001e+00 -9.4032984378370177e+00 1.6301214599327221e+01 2.7617642997979068e+00 1 0 0
254 1 3 -1.0500000000000000e+00 -9.6239862728068335e+00 1.3417400991384010e+01 1.1357495594830080e+00 1 0 0
255 1 3 -1.0500000000000000e+00 -9.2684523756676356e+00 1.6208170487547630e+01 1.1370348465046902e+00 1 0 0
256 1 4 -9.4999999999999996e-01 -6.7491223170950736e+00 1.5011904066194635e+01 1.0068636794011177e+00 1 0 0
257 1 3 -1.0500000000000000e+00 -8.0984979601998077e+00 1.7004109138008342e+01 3.2357545474688134e+00 1 0 0
258 1 3 -1.0500000000000000e+00 -9.5155814568970030e+00 1.4826861602240196e+01 3.2377025933365946e+00 1 0 0
259 1 3 -1.0500000000000000e+00 -1.0668810401502405e+01 1.7152956142283916e+01 3.0458415506199348e+00 1 0 0
260 1 5 4.2499999999999999e-01 -7.2560469500703286e+00 1.4132875650393093e+01 1.1504350015414087e+00 1 0 0
261 1 1 1.5750000000000000e+00 -7.6476382605535251e+00 1.6442023572464432e+01 -3.7685047931237392e-03 1 0 0
262 1 2 2.1000000000000001e+00 -8.4364212215203960e+00 9.0681553218020703e+00 -2.7608877807018164e+00 1 0 0
263 1 2 2.1000000000000001e+00 -8.4597634672522837e+00 1.5079041833261041e+01 -2.7688070745421216e+00 1 0 0
264 1 3 -1.0500000000000000e+00 -8.4642639727977436e+00 -1.7900333542265852e+01 -1.1428133923223545e+00 1 1 0
265 1 3 -1.0500000000000000e+00 -8.5946426769864424e+00 1.5171899606907981e+01 -1.1440046137962465e+00 1 0 0
266 1 4 -9.4999999999999996e-01 -5.9538485120758615e+00 1.6368414843436707e+01 -1.0139169448439258e+00 1 0 0
267 1 3 -1.0500000000000000e+00 -4.6045307535975972e+00 1.4376111355998557e+01 -3.2426221919976284e+00 1 0 0
268 1 3 -1.0500000000000000e+00 -8.3473055037395962e+00 1.6553353037744937e+01 -3.2448489745001829e+00 1 0 0
269 1 3 -1.0500000000000000e+00 -7.1942820610090816e+00 1.4227200247521328e+01 -3.0528477760774004e+00 1 0 0
270 1 5 4.2499999999999999e-01 -5.4470436023502824e+00 1.7247278596321525e+01 -1.1574797469732854e+00 1 0 0
271 1 1 1.5750000000000000e+00 -1.0255783910077239e+01 1.1959086991585444e+01 -3.7600807372335510e-03 1 0 0
272 1 2 2.1000000000000001e+00 -5.8282621980854525e+00 1.3551099962667056e+01 -2.7608931703077699e+00 1 0 0
273 1 2 2.1000000000000001e+00 -5.9079338844753870e+00 1.0596135943862595e+01 -2.7688196418920841e+00 1 0 0
274 1 3 -1.0500000000000000e+00 -5.6870744047512298e+00 1.3480036754658695e+01 -1.1428296840253562e+00 1 0 0