LAMMPS data file via write_data, version 8 Jul 2013-ICMS, timestep = 100

1280 atoms
5 atom types
128 bonds
1 bond types

-1.0320000000000000e+01 1.0320000000000000e+01 xlo xhi
-1.7931646038000000e+01 1.7931646038000000e+01 ylo yhi
-9.1966146809999998e+00 9.1966146809999998e+00 zlo zhi
2.2533867499999999e-01 -3.3938777480000000e+00 -3.6365652300000001e-01 xy xz yz

Masses

1 26.9815
2 28.0855
3 15.9994
4 15.9994
5 1.00797

Pair Coeffs

1 1.3297e-06 4.27132
2 1.8402e-06 3.30196
3 0.155416 3.16552
4 0.155416 3.16552
5 0 0

Bond Coeffs

1 553.935 1

Atoms

1 1 1 1.5750000000000000e+00 2.9181843045640097e+00 1.3940498960847059e+00 9.2340967653878891e-03 0 0 0
2 1 2 2.1000000000000001e+00 3.7073513941069294e+00 8.7577386345739576e+00 2.7737258238835487e+00 0 0 0
3 1 2 2.1000000000000001e+00 3.7295387542643610e+00 2.7514817922552126e+00 2.7754883709415132e+00 0 0 0
4 1 3 -1.0500000000000000e+00 3.5099247198465129e+00 -1.2549820598252026e-01 1.1455245288613796e+00 0 0 0
5 1 3 -1.0500000000000000e+00 3.8641459288626336e+00 2.6606338286250626e+00 1.1515490570111524e+00 0 0 0
6 1 4 -9.4999999999999996e-01 1.2257831605194038e+00 1.4682034965493607e+00 1.0173047259698347e+00 0 0 0
7 1 3 -1.0500000000000000e+00 -1.2371834622510569e-01 3.4500622213920131e+00 3.2505942162571255e+00 0 0 0
8 1 3 -1.0500000000000000e+00 3.6134514555627302e+00 1.2774235654227972e+00 3.2503790568677005e+00 0 0 0
9 1 3 -1.0500000000000000e+00 2.4668324640692454e+00 3.6068322258659897e+00 3.0625972692880978e+00 0 0 0
10 1 5 4.2499999999999999e-01 7.1502360807393472e-01 5.9168397672752704e-01 1.1550714134040199e+00 0 0 0
11 1 1 1.5750000000000000e+00 5.5287803573232814e+00 5.8777628276084535e+00 1.5818558759413293e-02 0 0 0
12 1 2 2.1000000000000001e+00 1.0982632776410952e+00 4.2776698897313032e+00 2.7687836138940334e+00 0 0 0
13 1 2 2.1000000000000001e+00 1.1793807246604047e+00 7.2313579056133115e+00 2.7814240681785058e+00 0 0 0
14 1 3 -1.0500000000000000e+00 9.5858684032157804e-01 4.3507830467182309e+00 1.1529783450605535e+00 0 0 0
15 1 3 -1.0500000000000000e+00 1.3151092622291145e+00 7.1397445667227899e+00 1.1600283120641173e+00 0 0 0
16 1 4 -9.4999999999999996e-01 3.8414815014337531e+00 5.9562970318948807e+00 1.0308706572416639e+00 0 0 0
17 1 3 -1.0500000000000000e+00 2.4870332642081223e+00 7.9282412354621101e+00 3.2591748232874060e+00 0 0 0
18 1 3 -1.0500000000000000e+00 1.0603410295172733e+00 5.7574985699545884e+00 3.2570920262590857e+00 0 0 0
19 1 3 -1.0500000000000000e+00 -8.1286792635351546e-02 8.0923795800776510e+00 3.0683190788551666e+00 0 0 0
20 1 5 4.2499999999999999e-01 3.3348353656920935e+00 5.0822010840192107e+00 1.1943947080225996e+00 0 0 0
21 1 1 1.5750000000000000e+00 2.9393536672515719e+00 7.3804881375233045e+00 1.5838507742252261e-02 0 0 0
22 1 2 2.1000000000000001e+00 2.1496285432378848e+00 8.5746434203954891e-03 -2.7504981414008842e+00 0 0 0
23 1 2 2.1000000000000001e+00 2.1254678497731980e+00 6.0184503373647615e+00 -2.7475528826831859e+00 0 0 0
24 1 3 -1.0500000000000000e+00 2.3580919423094198e+00 8.8949831871341516e+00 -1.1236671837246828e+00 0 0 0
25 1 3 -1.0500000000000000e+00 1.9840721366565788e+00 6.1124703193525001e+00 -1.1260675124463422e+00 0 0 0
26 1 4 -9.4999999999999996e-01 4.6159387449941516e+00 7.2751601759450502e+00 -1.0223401924299189e+00 0 0 0
27 1 3 -1.0500000000000000e+00 5.9794462716790733e+00 5.3164707099933146e+00 -3.2244722322227304e+00 0 0 0
28 1 3 -1.0500000000000000e+00 2.2399583197725050e+00 7.4922069379996366e+00 -3.2264936141302707e+00 0 0 0
29 1 3 -1.0500000000000000e+00 3.3884528032433323e+00 5.1626134100698202e+00 -3.0295950264996439e+00 0 0 0
30 1 5 4.2499999999999999e-01 5.1031273830721577e+00 8.1185536590698604e+00 -1.3314430838681233e+00 0 0 0
31 1 1 1.5750000000000000e+00 3.2846504706283852e-01 2.8988361277322028e+00 8.8183866668440913e-03 0 0 0
32 1 2 2.1000000000000001e+00 4.7576783051225942e+00 4.4895526366419816e+00 -2.7425066314812634e+00 0 0 0
33 1 2 2.1000000000000001e+00 4.6783183817373200e+00 1.5354330327670951e+00 -2.7551492847444621e+00 0 0 0
34 1 3 -1.0500000000000000e+00 4.9013036267823971e+00 4.4108681127969582e+00 -1.1266212975805683e+00 0 0 0
35 1 3 -1.0500000000000000e+00 4.5393998046955915e+00 1.6266484909844152e+00 -1.1320991832911744e+00 0 0 0
36 1 4 -9.4999999999999996e-01 2.0152440438407631e+00 2.8097969815934825e+00 -1.0152029311013973e+00 0 0 0
37 1 3 -1.0500000000000000e+00 3.3736351876767703e+00 8.3256378957671373e-01 -3.2315257474119896e+00 0 0 0
38 1 3 -1.0500000000000000e+00 4.7888478578463296e+00 3.0099718008256282e+00 -3.2317549292159882e+00 0 0 0
39 1 3 -1.0500000000000000e+00 5.9445206570517364e+00 6.8681326575416080e-01 -3.0420279397414287e+00 0 0 0
40 1 5 4.2499999999999999e-01 2.5169698186996960e+00 3.6735773254810269e+00 -1.2354457711152893e+00 0 0 0
41 1 1 1.5750000000000000e+00 8.0781895657408569e+00 1.3940468229074483e+00 9.2361555151203589e-03 0 0 0
42 1 2 2.1000000000000001e+00 -1.1772646971508982e+01 8.7577405536920274e+00 2.7737281083448622e+00 1 0 0
43 1 2 2.1000000000000001e+00 -1.1750460337451164e+01 2.7514815564821156e+00 2.7754884219953055e+00 1 0 0
44 1 3 -1.0500000000000000e+00 -1.1970075430711471e+01 -1.2549763511069756e-01 1.1455243943334121e+00 1 0 0
45 1 3 -1.0500000000000000e+00 -1.1615849369310848e+01 2.6606336128145749e+00 1.1515484018176458e+00 1 0 0
46 1 4 -9.4999999999999996e-01 6.3857830750754125e+00 1.4682093342990079e+00 1.0173137533521235e+00 0 0 0
47 1 3 -1.0500000000000000e+00 5.0362809862511320e+00 3.4500599757949004e+00 3.2505953992179180e+00 0 0 0
48 1 3 -1.0500000000000000e+00 -1.1866548408412738e+01 1.2774249873109973e+00 3.2503792901090698e+00 1 0 0
49 1 3 -1.0500000000000000e+00 7.6268338070717832e+00 3.6068351104669105e+00 3.0625928215330944e+00 0 0 0
50 1 5 4.2499999999999999e-01 5.8750442223033303e+00 5.9168671979982435e-01 1.1551294404129369e+00 0 0 0
51 1 1 1.5750000000000000e+00 -9.9512284322095397e+00 5.8777650953334337e+00 1.5817217107313652e-02 1 0 0
52 1 2 2.1000000000000001e+00 6.2582624746836295e+00 4.2776692843107149e+00 2.7687857006526020e+00 0 0 0
53 1 2 2.1000000000000001e+00 6.3393827858479526e+00 7.2313559094803104e+00 2.7814260197871423e+00 0 0 0
54 1 3 -1.0500000000000000e+00 6.1185815666729972e+00 4.3507849444963291e+00 1.1529802875402311e+00 0 0 0
55 1 3 -1.0500000000000000e+00 6.4751093766765173e+00 7.1397395345991512e+00 1.1600299881376017e+00 0 0 0
56 1 4 -9.4999999999999996e-01 -1.1638509783727779e+01 5.9563055887117642e+00 1.0308802681714724e+00 1 0 0
57 1 3 -1.0500000000000000e+00 7.6470325371171128e+00 7.9282431370321795e+00 3.2591737328207824e+00 0 0 0
58 1 3 -1.0500000000000000e+00 6.2203384582398371e+00 5.7574978624101867e+00 3.2570952709813383e+00 0 0 0
59 1 3 -1.0500000000000000e+00 5.0787139693767251e+00 8.0923800371900967e+00 3.0683158645681008e+00 0 0 0
60 1 5 4.2499999999999999e-01 8.4948503598131495e+00 5.0822210438605957e+00 1.1944782647191694e+00 0 0 0
61 1 1 1.5750000000000000e+00 8.0993576857564378e+00 7.3804875358899587e+00 1.5840494012762107e-02 0 0 0
62 1 2 2.1000000000000001e+00 7.3096283952920835e+00 8.5744292033496095e-03 -2.7504961665351892e+00 0 0 0
63 1 2 2.1000000000000001e+00 7.2854695889394101e+00 6.0184492959381934e+00 -2.7475512604452366e+00 0 0 0
64 1 3 -1.0500000000000000e+00 7.5180889968676183e+00 8.8949859947902752e+00 -1.1236653178517138e+00 0 0 0
65 1 3 -1.0500000000000000e+00 7.1440732178329540e+00 6.1124677551670281e+00 -1.1260659323614917e+00 0 0 0
66 1 4 -9.4999999999999996e-01 -1.0864063656127900e+01 7.2751613852182473e+00 -1.0223394833825719e+00 1 0 0
67 1 3 -1.0500000000000000e+00 -9.5005529248024025e+00 5.3164682422424576e+00 -3.2244718566537820e+00 1 0 0
68 1 3 -1.0500000000000000e+00 7.3999552275758660e+00 7.4922075333439615e+00 -3.2264905770272998e+00 0 0 0
69 1 3 -1.0500000000000000e+00 8.5484538103238989e+00 5.1626159124099331e+00 -3.0295986933437327e+00 0 0 0
70 1 5 4.2499999999999999e-01 -1.0376885999858491e+01 8.1185570528737649e+00 -1.3314536045877965e+00 1 0 0
71 1 1 1.5750000000000000e+00 5.4884728848472744e+00 2.8988335733956632e+00 8.8201821199298536e-03 0 0 0
72 1 2 2.1000000000000001e+00 -1.0722324379445324e+01 4.4895519320603832e+00 -2.7425082732406754e+00 1 0 0
73 1 2 2.1000000000000001e+00 -1.0801683278311836e+01 1.5354328954119474e+00 -2.7551497880755766e+00 1 0 0
74 1 3 -1.0500000000000000e+00 -1.0578698158457764e+01 4.4108681250488111e+00 -1.1266209820685091e+00 1 0 0
75 1 3 -1.0500000000000000e+00 -1.0940602894455520e+01 1.6266467007604959e+00 -1.1320989503609731e+00 1 0 0
76 1 4 -9.4999999999999996e-01 7.1752475064374508e+00 2.8098060229146071e+00 -1.0151906589766995e+00 0 0 0
77 1 3 -1.0500000000000000e+00 8.5336345700919480e+00 8.3256136942025805e-01 -3.2315256914186872e+00 0 0 0
78 1 3 -1.0500000000000000e+00 -1.0691151880887796e+01 3.0099709082197244e+00 -3.2317547822419375e+00 1 0 0
79 1 3 -1.0500000000000000e+00 -9.5354801454304390e+00 6.8681165495986463e-01 -3.0420254175386541e+00 1 0 0
80 1 5 4.2499999999999999e-01 7.6769953270217641e+00 3.6735936136308780e+00 -1.2353597799009401e+00 0 0 0
81 1 1 1.5750000000000000e+00 -7.4018156834157516e+00 1.3940498267845207e+00 9.2341172191829912e-03 1 0 0
82 1 2 2.1000000000000001e+00 -6.6126486139241258e+00 8.7577386564423421e+00 2.7737258262471336e+00 1 0 0
83 1 2 2.1000000000000001e+00 -6.5904613283607496e+00 2.7514816785118619e+00 2.7754883822192458e+00 1 0 0
84 1 3 -1.0500000000000000e+00 -6.8100751799104264e+00 -1.2549822203802918e-01 1.1455245250037489e+00 1 0 0
85 1 3 -1.0500000000000000e+00 -6.4558540038809511e+00 2.6606338686734112e+00 1.1515490428830653e+00 1 0 0
86 1 4 -9.4999999999999996e-01 -9.0942168786093571e+00 1.4682033564725145e+00 1.0173048353315082e+00 1 0 0
87 1 3 -1.0500000000000000e+00 -1.0443718281141235e+01 3.4500623943480377e+00 3.2505941748888905e+00 1 0 0
88 1 3 -1.0500000000000000e+00 -6.7065484694691486e+00 1.2774237217274482e+00 3.2503789830048451e+00 1 0 0
89 1 3 -1.0500000000000000e+00 -7.8531676029576225e+00 3.6068321305210063e+00 3.0625972745673877e+00 1 0 0
90 1 5 4.2499999999999999e-01 -9.6049763952466609e+00 5.9168402807765119e-01 1.1550717463805391e+00 1 0 0
91 1 1 1.5750000000000000e+00 -4.7912196555084909e+00 5.8777628185963628e+00 1.5818637392785106e-02 1 0 0
92 1 2 2.1000000000000001e+00 -9.2217367423489147e+00 4.2776698061977569e+00 2.7687836693612979e+00 1 0 0
93 1 2 2.1000000000000001e+00 -9.1406192690064536e+00 7.2313579369426684e+00 2.7814240346917387e+00 1 0 0
94 1 3 -1.0500000000000000e+00 -9.3614131129886093e+00 4.3507830694144864e+00 1.1529784059432853e+00 1 0 0
95 1 3 -1.0500000000000000e+00 -9.0048906852551376e+00 7.1397446087555245e+00 1.1600283019177606e+00 1 0 0
96 1 4 -9.4999999999999996e-01 -6.4785184509382354e+00 5.9562970434063125e+00 1.0308706332329152e+00 1 0 0
97 1 3 -1.0500000000000000e+00 -7.8329667310252340e+00 7.9282413242120136e+00 3.2591748265528295e+00 1 0 0
98 1 3 -1.0500000000000000e+00 -9.2596588585334061e+00 5.7574987313866437e+00 3.2570919723466822e+00 1 0 0
99 1 3 -1.0500000000000000e+00 -1.0401286862581250e+01 8.0923795374929135e+00 3.0683190457546186e+00 1 0 0
100 1 5 4.2499999999999999e-01 -6.9851646544916939e+00 5.0822011697243248e+00 1.1943944362131411e+00 1 0 0
101 1 1 1.5750000000000000e+00 -7.3806463357299190e+00 7.3804880885211404e+00 1.5838429298753454e-02 1 0 0
102 1 2 2.1000000000000001e+00 -8.1703713310771988e+00 8.5746608785690626e-03 -2.7504980424842866e+00 1 0 0
103 1 2 2.1000000000000001e+00 -8.1945323275444899e+00 6.0184502500917283e+00 -2.7475528837539054e+00 1 0 0
104 1 3 -1.0500000000000000e+00 -7.9619080637885542e+00 8.8949831933859862e+00 -1.1236671500565745e+00 1 0 0
105 1 3 -1.0500000000000000e+00 -8.3359278558246022e+00 6.1124703111367253e+00 -1.1260675054861888e+00 1 0 0
106 1 4 -9.4999999999999996e-01 -5.7040612194432985e+00 7.2751602466710921e+00 -1.0223403226134700e+00 1 0 0
107 1 3 -1.0500000000000000e+00 -4.3405537538255263e+00 5.3164706883910391e+00 -3.2244722490595308e+00 1 0 0
108 1 3 -1.0500000000000000e+00 -8.0800417151952999e+00 7.4922069547101877e+00 -3.2264935905892305e+00 1 0 0
109 1 3 -1.0500000000000000e+00 -6.9315471505023067e+00 5.1626133176122515e+00 -3.0295950390391173e+00 1 0 0
110 1 5 4.2499999999999999e-01 -5.2168726148730524e+00 8.1185535511438154e+00 -1.3314430702931386e+00 1 0 0
111 1 1 1.5750000000000000e+00 -9.9915348614344328e+00 2.8988361677063885e+00 8.8184517237905879e-03 1 0 0
112 1 2 2.1000000000000001e+00 -5.5623217993451153e+00 4.4895527215617719e+00 -2.7425065919058378e+00 1 0 0
113 1 2 2.1000000000000001e+00 -5.6416816379433659e+00 1.5354330960486955e+00 -2.7551492648452243e+00 1 0 0
114 1 3 -1.0500000000000000e+00 -5.4186964164041349e+00 4.4108681390809927e+00 -1.1266212245683622e+00 1 0 0
115 1 3 -1.0500000000000000e+00 -5.7806001318650173e+00 1.6266485007847322e+00 -1.1320991357765973e+00 1 0 0
116 1 4 -9.4999999999999996e-01 -8.3047558725651225e+00 2.8097969608772360e+00 -1.0152028096430641e+00 1 0 0
117 1 3 -1.0500000000000000e+00 -6.9463648941270124e+00 8.3256378373028284e-01 -3.2315257455775122e+00 1 0 0
118 1 3 -1.0500000000000000e+00 -5.5311521520922371e+00 3.0099717297467308e+00 -3.2317549067275442e+00 1 0 0
119 1 3 -1.0500000000000000e+00 -4.3754792787657371e+00 6.8681320804201818e-01 -3.0420279836711339e+00 1 0 0
120 1 5 4.2499999999999999e-01 -7.8030301078286080e+00 3.6735772188252938e+00 -1.2354456232096709e+00 1 0 0
121 1 1 1.5750000000000000e+00 -2.2418105330661700e+00 1.3940467442253244e+00 9.2362127554714846e-03 1 0 0
122 1 2 2.1000000000000001e+00 -1.4526470583814692e+00 8.7577405549317682e+00 2.7737280503457864e+00 1 0 0
123 1 2 2.1000000000000001e+00 -1.4304603016429134e+00 2.7514816082304527e+00 2.7754884447533730e+00 1 0 0
124 1 3 -1.0500000000000000e+00 -1.6500755227706385e+00 -1.2549770273042071e-01 1.1455244330478109e+00 1 0 0
125 1 3 -1.0500000000000000e+00 -1.2958494055542360e+00 2.6606336034784768e+00 1.1515484397802584e+00 1 0 0
126 1 4 -9.4999999999999996e-01 -3.9342168915633415e+00 1.4682094214141266e+00 1.0173138250219012e+00 1 0 0
127 1 3 -1.0500000000000000e+00 -5.2837189522970025e+00 3.4500600861308470e+00 3.2505954302319502e+00 1 0 0
128 1 3 -1.0500000000000000e+00 -1.5465484917570702e+00 1.2774248326576476e+00 3.2503792898076469e+00 1 0 0
129 1 3 -1.0500000000000000e+00 -2.6931660935902819e+00 3.6068350139432646e+00 3.0625928773896689e+00 1 0 0
130 1 5 4.2499999999999999e-01 -4.4449558633498123e+00 5.9168668395037827e-01 1.1551293896194927e+00 1 0 0
131 1 1 1.5750000000000000e+00 3.6877164782193006e-01 5.8777650912165385e+00 1.5817150747189146e-02 1 0 0
132 1 2 2.1000000000000001e+00 -4.0617375772762188e+00 4.2776693106083989e+00 2.7687857850208601e+00 1 0 0
133 1 2 2.1000000000000001e+00 -3.9806172582495076e+00 7.2313558938290434e+00 2.7814259950804896e+00 1 0 0
134 1 3 -1.0500000000000000e+00 -4.2014184402319890e+00 4.3507849103013854e+00 1.1529802947660208e+00 1 0 0
135 1 3 -1.0500000000000000e+00 -3.8448906073918021e+00 7.1397395282490983e+00 1.1600299603315243e+00 1 0 0
136 1 4 -9.4999999999999996e-01 -1.3185098561518060e+00 5.9563056682421198e+00 1.0308802485197628e+00 1 0 0
137 1 3 -1.0500000000000000e+00 -2.6729672971842531e+00 7.9282432283389461e+00 3.2591736523341588e+00 1 0 0
138 1 3 -1.0500000000000000e+00 -4.0996614283272201e+00 5.7574979032638858e+00 3.2570953323553891e+00 1 0 0
139 1 3 -1.0500000000000000e+00 -5.2412859022758642e+00 8.0923799801955703e+00 3.0683158558257126e+00 1 0 0
140 1 5 4.2499999999999999e-01 -1.8251496447516047e+00 5.0822210510157575e+00 1.1944783318261365e+00 1 0 0
141 1 1 1.5750000000000000e+00 -2.2206422623948683e+00 7.3804874661035456e+00 1.5840568424078327e-02 1 0 0
142 1 2 2.1000000000000001e+00 -3.0103717366590503e+00 8.5744582599929231e-03 -2.7504962140350369e+00 1 0 0
143 1 2 2.1000000000000001e+00 -3.0345303616566373e+00 6.0184491524444859e+00 -2.7475512257680279e+00 1 0 0
144 1 3 -1.0500000000000000e+00 -2.8019109978936916e+00 8.8949859869856240e+00 -1.1236652992525631e+00 1 0 0
145 1 3 -1.0500000000000000e+00 -3.1759267152560131e+00 6.1124676460171585e+00 -1.1260659219048126e+00 1 0 0
146 1 4 -9.4999999999999996e-01 -5.4406366880684587e-01 7.2751613330570528e+00 -1.0223395364677970e+00 1 0 0
147 1 3 -1.0500000000000000e+00 8.1944706179112003e-01 5.3164681505885234e+00 -3.2244718846913507e+00 1 0 0
148 1 3 -1.0500000000000000e+00 -2.9200448159008241e+00 7.4922076620364635e+00 -3.2264905243236663e+00 1 0 0
149 1 3 -1.0500000000000000e+00 -1.7715461358892455e+00 5.1626160314823899e+00 -3.0295988156649276e+00 1 0 0
150 1 5 4.2499999999999999e-01 -5.6886054816962073e-02 8.1185569279399452e+00 -1.3314539098197047e+00 1 0 0
151 1 1 1.5750000000000000e+00 -4.8315271785617604e+00 2.8988336154917995e+00 8.8202724600794369e-03 1 0 0
152 1 2 2.1000000000000001e+00 -4.0232442311636873e-01 4.4895519600030376e+00 -2.7425083189174675e+00 1 0 0
153 1 2 2.1000000000000001e+00 -4.8168326179287391e-01 1.5354329215305640e+00 -2.7551498218354213e+00 1 0 0
154 1 3 -1.0500000000000000e+00 -2.5869819069960442e-01 4.4108681978982212e+00 -1.1266210916639228e+00 1 0 0
155 1 3 -1.0500000000000000e+00 -6.2060283466819754e-01 1.6266466941235151e+00 -1.1320990169920631e+00 1 0 0
156 1 4 -9.4999999999999996e-01 -3.1447525156123621e+00 2.8098060903938169e+00 -1.0151905064714946e+00 1 0 0
157 1 3 -1.0500000000000000e+00 -1.7863654685868706e+00 8.3256151520433264e-01 -3.2315256544495776e+00 1 0 0
158 1 3 -1.0500000000000000e+00 -3.7115181573242850e-01 3.0099709263728371e+00 -3.2317547966740801e+00 1 0 0
159 1 3 -1.0500000000000000e+00 7.8451981401563486e-01 6.8681159879902154e-01 -3.0420255052720684e+00 1 0 0
160 1 5 4.2499999999999999e-01 -2.6430045345789743e+00 3.6735938310135730e+00 -1.2353588053241564e+00 1 0 0
161 1 1 1.5750000000000000e+00 2.9783608836912538e+00 1.0361137149912420e+01 1.7818011148255763e-02 0 0 0
162 1 2 2.1000000000000001e+00 3.5360610925203950e+00 -1.8139331519186836e+01 2.7666566992251962e+00 0 1 0
163 1 2 2.1000000000000001e+00 3.7878536835413374e+00 1.1711311679533136e+01 2.7826602133250642e+00 0 0 0
164 1 3 -1.0500000000000000e+00 3.5653428391143507e+00 8.8297483956056233e+00 1.1605414908315286e+00 0 0 0
165 1 3 -1.0500000000000000e+00 3.9263695506288627e+00 1.1616561478078168e+01 1.1647557742292012e+00 0 0 0
166 1 4 -9.4999999999999996e-01 1.2974878727728569e+00 1.0447737594475388e+01 1.0416496805015107e+00 0 0 0
167 1 3 -1.0500000000000000e+00 -6.3021639232545112e-02 1.2409056591381603e+01 3.2633807761805826e+00 0 0 0
168 1 3 -1.0500000000000000e+00 3.6664195690611177e+00 1.0239152625121701e+01 3.2629017848636845e+00 0 0 0
169 1 3 -1.0500000000000000e+00 2.5302999201623724e+00 1.2579024164378968e+01 3.0668956329912849e+00 0 0 0
170 1 5 4.2499999999999999e-01 7.9409053633778370e-01 9.5801425518505248e+00 1.2421975274295267e+00 0 0 0
171 1 1 1.5750000000000000e+00 5.5839590050957000e+00 1.4846810910182977e+01 1.4343205784191682e-02 0 0 0
172 1 2 2.1000000000000001e+00 1.1542891896852669e+00 1.3239508636212776e+01 2.7731733135274830e+00 0 0 0
173 1 2 2.1000000000000001e+00 1.2358945477303358e+00 1.6194044048123825e+01 2.7772564879657722e+00 0 0 0
174 1 3 -1.0500000000000000e+00 1.0083238392628431e+00 1.3310815603498916e+01 1.1627306398612589e+00 0 0 0
175 1 3 -1.0500000000000000e+00 1.3784083725434364e+00 1.6094083912736924e+01 1.1623932033251911e+00 0 0 0
176 1 4 -9.4999999999999996e-01 3.9147696520963926e+00 1.4947007806925168e+01 1.0534403808015398e+00 0 0 0
177 1 3 -1.0500000000000000e+00 2.5450693612275508e+00 1.6892539796118843e+01 3.2594483860460262e+00 0 0 0
178 1 3 -1.0500000000000000e+00 1.1133022063366802e+00 1.4721821021247077e+01 3.2622862006760229e+00 0 0 0
179 1 3 -1.0500000000000000e+00 -1.9530947538630272e-02 1.7067101007112267e+01 3.0570089938348861e+00 0 0 0
180 1 5 4.2499999999999999e-01 3.4193086019084191e+00 1.4098682230405988e+01 1.3335380343095551e+00 0 0 0
181 1 1 1.5750000000000000e+00 2.9944564334951682e+00 1.6348111086997815e+01 1.3243770296220703e-02 0 0 0
182 1 2 2.1000000000000001e+00 2.2089867936558889e+00 8.9733111365550648e+00 -2.7376759799791408e+00 0 0 0
183 1 2 2.1000000000000001e+00 2.1822712630895698e+00 1.4988637755244564e+01 -2.7464837418945329e+00 0 0 0
184 1 3 -1.0500000000000000e+00 2.1917626419814873e+00 -1.7993560546134169e+01 -1.1315987307430788e+00 0 1 0
185 1 3 -1.0500000000000000e+00 2.0372877927078044e+00 1.5089547257540911e+01 -1.1295753873849819e+00 0 0 0
186 1 4 -9.4999999999999996e-01 4.6591257762935818e+00 1.6226168454664073e+01 -1.0381632629831472e+00 0 0 0
187 1 3 -1.0500000000000000e+00 6.0349970632070047e+00 1.4289632110234994e+01 -3.2262701712642237e+00 0 0 0
188 1 3 -1.0500000000000000e+00 2.3012251400693380e+00 1.6462007761365609e+01 -3.2306427498990100e+00 0 0 0
189 1 3 -1.0500000000000000e+00 3.4412176059525983e+00 1.4121357475468901e+01 -3.0230792894126743e+00 0 0 0
190 1 5 4.2499999999999999e-01 5.1287875255231530e+00 1.7040736546186022e+01 -1.4353361578853887e+00 0 0 0
191 1 1 1.5750000000000000e+00 3.8878642736347047e-01 1.1864775961711629e+01 1.6890098528769215e-02 0 0 0
192 1 2 2.1000000000000001e+00 4.8162900109864335e+00 1.3458296905412244e+01 -2.7383273178478280e+00 0 0 0
193 1 2 2.1000000000000001e+00 4.7356045818963715e+00 1.0503926464188318e+01 -2.7445029950718407e+00 0 0 0
194 1 3 -1.0500000000000000e+00 4.9690367294199547e+00 1.3381511896730270e+01 -1.1261950334109994e+00 0 0 0
195 1 3 -1.0500000000000000e+00 4.5917570390922791e+00 1.0602165922805003e+01 -1.1254358992485987e+00 0 0 0
196 1 4 -9.4999999999999996e-01 2.0602496638742895e+00 1.1751304296580837e+01 -1.0268356169791080e+00 0 0 0
197 1 3 -1.0500000000000000e+00 3.4291100571305080e+00 9.8011865768196849e+00 -3.2224222876191853e+00 0 0 0
198 1 3 -1.0500000000000000e+00 4.8519057468596785e+00 1.1976547366140775e+01 -3.2274542143700788e+00 0 0 0
199 1 3 -1.0500000000000000e+00 5.9959651536241303e+00 9.6414241198837090e+00 -3.0221895713126656e+00 0 0 0
200 1 5 4.2499999999999999e-01 2.5405620157524282e+00 1.2583249715526708e+01 -1.3733151940910142e+00 0 0 0
201 1 1 1.5750000000000000e+00 8.1383646073800620e+00 1.0361133237349737e+01 1.7820341906062964e-02 0 0 0
202 1 2 2.1000000000000001e+00 -1.1943935795427686e+01 -1.8139330176232271e+01 2.7666600362438487e+00 1 1 0
203 1 2 2.1000000000000001e+00 -1.1692145556148489e+01 1.1711312097895455e+01 2.7826590535000033e+00 1 0 0
204 1 3 -1.0500000000000000e+00 -1.1914655824563102e+01 8.8297512948342494e+00 1.1605416188708837e+00 1 0 0
205 1 3 -1.0500000000000000e+00 -1.1553624791340591e+01 1.1616561682139807e+01 1.1647545028390489e+00 1 0 0
206 1 4 -9.4999999999999996e-01 6.4574907972067734e+00 1.0447749907864232e+01 1.0416636025249151e+00 0 0 0
207 1 3 -1.0500000000000000e+00 5.0969781928512070e+00 1.2409054402093162e+01 3.2633812888135836e+00 0 0 0
208 1 3 -1.0500000000000000e+00 -1.1813582114821591e+01 1.0239154834512600e+01 3.2629021125861790e+00 1 0 0
209 1 3 -1.0500000000000000e+00 7.6903015872308416e+00 1.2579029120613026e+01 3.0668902965460401e+00 0 0 0
210 1 5 4.2499999999999999e-01 5.9541190163049258e+00 9.5801610836046720e+00 1.2422970363998846e+00 0 0 0
211 1 1 1.5750000000000000e+00 -9.8960492593139016e+00 1.4846815234832970e+01 1.4342402300192347e-02 1 0 0
212 1 2 2.1000000000000001e+00 6.3142883211295739e+00 1.3239509020309772e+01 2.7731744408659829e+00 0 0 0
213 1 2 2.1000000000000001e+00 6.3958956240524572e+00 1.6194042666892908e+01 2.7772537088161755e+00 0 0 0
214 1 3 -1.0500000000000000e+00 6.1683178030456389e+00 1.3310817780517400e+01 1.1627316331062758e+00 0 0 0
215 1 3 -1.0500000000000000e+00 6.5384104922080866e+00 1.6094076947664920e+01 1.1623916653934216e+00 0 0 0
216 1 4 -9.4999999999999996e-01 -1.1565221641268149e+01 1.4947015828332521e+01 1.0534477535062798e+00 1 0 0
217 1 3 -1.0500000000000000e+00 7.7050674326143174e+00 1.6892542633948342e+01 3.2594442131284342e+00 0 0 0
218 1 3 -1.0500000000000000e+00 6.2732982406463762e+00 1.4721821920681034e+01 3.2622872594924104e+00 0 0 0
219 1 3 -1.0500000000000000e+00 5.1404708770320617e+00 1.7067105110981739e+01 3.0570014877775762e+00 0 0 0
220 1 5 4.2499999999999999e-01 8.5793270204319043e+00 1.4098710011064792e+01 1.3336198322446364e+00 0 0 0
221 1 1 1.5750000000000000e+00 8.1544599341941719e+00 1.6348110060895163e+01 1.3244573881346255e-02 0 0 0
222 1 2 2.1000000000000001e+00 7.3689873813956410e+00 8.9733117458578242e+00 -2.7376738266526139e+00 0 0 0
223 1 2 2.1000000000000001e+00 7.3422724488335263e+00 1.4988636115878901e+01 -2.7464857209241362e+00 0 0 0
224 1 3 -1.0500000000000000e+00 7.3517583195579768e+00 -1.7993559185319651e+01 -1.1315966915466529e+00 0 1 0
225 1 3 -1.0500000000000000e+00 7.1972896415131373e+00 1.5089540814203456e+01 -1.1295765246506893e+00 0 0 0
226 1 4 -9.4999999999999996e-01 -1.0820878876636492e+01 1.6226165745145710e+01 -1.0381670693918519e+00 1 0 0
227 1 3 -1.0500000000000000e+00 -9.4450013339900689e+00 1.4289629181644845e+01 -3.2262664911026713e+00 1 0 0
228 1 3 -1.0500000000000000e+00 7.4612223758556979e+00 1.6462008397402204e+01 -3.2306407173588498e+00 0 0 0
229 1 3 -1.0500000000000000e+00 8.6012195616269409e+00 1.4121361092212663e+01 -3.0230862187392962e+00 0 0 0
230 1 5 4.2499999999999999e-01 -1.0351233930438994e+01 1.7040720778333384e+01 -1.4353856967800827e+00 1 0 0
231 1 1 1.5750000000000000e+00 5.5487940997396823e+00 1.1864772524178154e+01 1.6891514908358829e-02 0 0 0
232 1 2 2.1000000000000001e+00 -1.0663713283684089e+01 1.3458295804738260e+01 -2.7383296765061846e+00 1 0 0
233 1 2 2.1000000000000001e+00 -1.0744397339388300e+01 1.0503925770550204e+01 -2.7445039325704652e+00 1 0 0
234 1 3 -1.0500000000000000e+00 -1.0510968018230542e+01 1.3381510416261797e+01 -1.1261944296159641e+00 1 0 0
235 1 3 -1.0500000000000000e+00 -1.0888244637065185e+01 1.0602162516304642e+01 -1.1254361280344156e+00 1 0 0
236 1 4 -9.4999999999999996e-01 7.2202556898806094e+00 1.1751316569368914e+01 -1.0268202541754157e+00 0 0 0
237 1 3 -1.0500000000000000e+00 8.5891098165858928e+00 9.8011848490458569e+00 -3.2224231985062648e+00 0 0 0
238 1 3 -1.0500000000000000e+00 -1.0628092120351399e+01 1.1976546125541244e+01 -3.2274542345776522e+00 1 0 0
239 1 3 -1.0500000000000000e+00 -9.4840346265497324e+00 9.6414229547445096e+00 -3.0221893387967729e+00 1 0 0
240 1 5 4.2499999999999999e-01 7.7006026473903084e+00 1.2583293714327670e+01 -1.3731810034861018e+00 0 0 0
241 1 1 1.5750000000000000e+00 -7.3416390884732872e+00 1.0361137065989368e+01 1.7818044228196328e-02 1 0 0
242 1 2 2.1000000000000001e+00 -6.7839389957330116e+00 -1.8139331612392382e+01 2.7666566472304908e+00 1 1 0
243 1 2 2.1000000000000001e+00 -6.5321463458777478e+00 1.1711311673787431e+01 2.7826601743259527e+00 1 0 0
244 1 3 -1.0500000000000000e+00 -6.7546571183761301e+00 8.8297483950964128e+00 1.1605414494384583e+00 1 0 0
245 1 3 -1.0500000000000000e+00 -6.3936304346746065e+00 1.1616561473590366e+01 1.1647557084996514e+00 1 0 0
246 1 4 -9.4999999999999996e-01 -9.0225120723155499e+00 1.0447737640560419e+01 1.0416496415487835e+00 1 0 0
247 1 3 -1.0500000000000000e+00 -1.0383021731794118e+01 1.2409056546665678e+01 3.2633806080194816e+00 1 0 0
248 1 3 -1.0500000000000000e+00 -6.6535803904754705e+00 1.0239152753178164e+01 3.2629017007907830e+00 1 0 0
249 1 3 -1.0500000000000000e+00 -7.7897001346039225e+00 1.2579024161975589e+01 3.0668955391428803e+00 1 0 0
250 1 5 4.2499999999999999e-01 -9.5259095312066897e+00 9.5801425441314869e+00 1.2421975380421504e+00 1 0 0
251 1 1 1.5750000000000000e+00 -4.7360410604967615e+00 1.4846810946995458e+01 1.4343197521535345e-02 1 0 0
252 1 2 2.1000000000000001e+00 -9.1657107948645198e+00 1.3239508713140442e+01 2.7731732396027429e+00 1 0 0
253 1 2 2.1000000000000001e+00 -9.0841053821491382e+00 1.6194044122541168e+01 2.7772564773437409e+00 1 0 0
254 1 3 -1.0500000000000000e+00 -9.3116761462039026e+00 1.3310815730221659e+01 1.1627305869096034e+00 1 0 0
255 1 3 -1.0500000000000000e+00 -8.9415916988525144e+00 1.6094083872865529e+01 1.1623931384500175e+00 1 0 0
256 1 4 -9.4999999999999996e-01 -6.4052303030821998e+00 1.4947007772814278e+01 1.0534403819067641e+00 1 0 0
257 1 3 -1.0500000000000000e+00 -7.7749306647931391e+00 1.6892539787918214e+01 3.2594482676079277e+00 1 0 0
258 1 3 -1.0500000000000000e+00 -9.2066978664561550e+00 1.4721820916556890e+01 3.2622862354455329e+00 1 0 0
259 1 3 -1.0500000000000000e+00 -1.0339530895637068e+01 1.7067100919316967e+01 3.0570089831301797e+00 1 0 0
260 1 5 4.2499999999999999e-01 -6.9006913216819488e+00 1.4098682134598018e+01 1.3335380803066581e+00 1 0 0
261 1 1 1.5750000000000000e+00 -7.3255435688894259e+00 1.6348111117637242e+01 1.3243724919478339e-02 1 0 0
262 1 2 2.1000000000000001e+00 -8.1110131978153994e+00 8.9733111402449914e+00 -2.7376759896976850e+00 1 0 0
263 1 2 2.1000000000000001e+00 -8.1377286895226764e+00 1.4988637839851020e+01 -2.7464838529056834e+00 1 0 0
264 1 3 -1.0500000000000000e+00 -8.1282373960741925e+00 -1.7993560481920024e+01 -1.1315987781637968e+00 1 1 0
265 1 3 -1.0500000000000000e+00 -8.2827121352983788e+00 1.5089547304532989e+01 -1.1295755161565779e+00 1 0 0
266 1 4 -9.4999999999999996e-01 -5.6608742375976195e+00 1.6226168365016267e+01 -1.0381632709338700e+00 1 0 0
267 1 3 -1.0500000000000000e+00 -4.2850029133757808e+00 1.4289632163447674e+01 -3.2262701127718385e+00 1 0 0
268 1 3 -1.0500000000000000e+00 -8.0187746834260079e+00 1.6462007756316670e+01 -3.2306428284705229e+00 1 0 0
269 1 3 -1.0500000000000000e+00 -6.8787824161432223e+00 1.4121357439479663e+01 -3.0230794038774143e+00 1 0 0
270 1 5 4.2499999999999999e-01 -5.1912124921061569e+00 1.7040736557995412e+01 -1.4353359589520860e+00 1 0 0
271 1 1 1.5750000000000000e+00 -9.9312134439261275e+00 1.1864776107213540e+01 1.6889961970017353e-02 1 0 0
272 1 2 2.1000000000000001e+00 -5.5037099545752319e+00 1.3458296829340515e+01 -2.7383273234632401e+00 1 0 0
273 1 2 2.1000000000000001e+00 -5.5843954631697512e+00 1.0503926417690209e+01 -2.7445029816461339e+00 1 0 0
274 1 3 -1.0500000000000000e+00 -5.3509633400226182e+00 1.3381511934338040e+01 -1.1261949802481368e+00 1 0 0