LAMMPS data file via write_data, version 29 Aug 2024, timestep = 94, units = real

1280 atoms
5 atom types
128 bonds
1 bond types

-10.32 10.32 xlo xhi
-17.931646038 17.931646038 ylo yhi
-9.189871922 9.189871922 zlo zhi
0.225338675 -3.393877748 -0.363656523 xy xz yz

Masses

1 26.98154
2 28.0855
3 15.9994
4 15.9994
5 1.00797

Pair Coeffs # lj/cut/coul/long

1 1.3297e-06 4.27132
2 1.8402e-06 3.30196
3 0.155416 3.16552
4 0.155416 3.16552
5 0 0

Bond Coeffs # harmonic

1 553.935 1

Atoms # full

264 1 3 -1.05 -8.46491586606061 -17.901292325442792 -1.1390414842434584 1 1 0
304 1 3 -1.05 -3.3049186986576506 -17.901290750068977 -1.1390437890122005 1 1 0
386 1 4 -0.95 -11.28157790356712 -10.528150577554554 -1.0092882779490928 1 1 0
387 1 3 -1.05 -9.935357744081871 -12.520946280855286 -3.2389916781308177 1 1 0
392 1 2 2.1 -11.15811099398584 -13.347486038255383 -2.757315613614664 1 1 0
393 1 2 2.1 -11.237889362245781 -16.302594662783648 -2.7652874030664893 1 1 0
394 1 3 -1.05 -11.016750509593795 -13.41838356845754 -1.1390376370894852 1 1 0
395 1 3 -1.05 -11.372121493310306 -16.209812211718564 -1.1403956987186419 1 1 0
398 1 3 -1.05 -11.123698820481325 -14.828288395652272 -3.2407370008852503 1 1 0
399 1 3 -1.05 -9.973058453394058 -17.155713166817623 -3.0491809998142045 1 1 0
422 1 2 2.1 -8.60626977865343 -17.83040303949202 -2.757307688224758 1 1 0
423 1 2 2.1 -8.629758159651553 -11.819745199168645 -2.7652839948923624 1 1 0
425 1 3 -1.05 -8.763971912039096 -11.726883125298963 -1.1403800557050356 1 1 0
426 1 4 -0.95 -6.121574906086911 -10.528150365511065 -1.0092950354343362 1 1 0
427 1 3 -1.05 -4.775388146251923 -12.520964201416565 -3.238989168491626 1 1 0
428 1 3 -1.05 -8.515522554581228 -10.345254400323427 -3.2407468259276673 1 1 0
429 1 3 -1.05 -7.364884681634946 -12.672823688539507 -3.0491633890428966 1 1 0
430 1 5 0.425 -5.613050421649238 -9.64905707477696 -1.1481351133572844 1 1 0
432 1 2 2.1 -5.998102242208308 -13.347479307389396 -2.7573203771857013 1 1 0
433 1 2 2.1 -6.077895683838097 -16.302607571672493 -2.7652940728794455 1 1 0
434 1 3 -1.05 -5.856746304305593 -13.418383628427902 -1.1390485082470203 1 1 0
435 1 3 -1.05 -6.212119786812962 -16.209812802990335 -1.1403998993912392 1 1 0
436 1 4 -0.95 -8.729708502581238 -15.011039091449069 -1.009285880112964 1 1 0
437 1 3 -1.05 -7.383491201121386 -17.003869454733763 -3.2389871522032028 1 1 0
438 1 3 -1.05 -5.963695048103962 -14.828277302058277 -3.240739000854397 1 1 0
439 1 3 -1.05 -4.813069783015718 -17.155706888160015 -3.049179484681825 1 1 0
440 1 5 0.425 -8.221237365494655 -14.13197978175737 -1.148104642070665 1 1 0
462 1 2 2.1 -3.4462548346618433 -17.830406583197693 -2.7573102223982113 1 1 0
463 1 2 2.1 -3.469735283388167 -11.819752050513955 -2.7652804467485357 1 1 0
465 1 3 -1.05 -3.603971352452068 -11.726883408388186 -1.1403764365310618 1 1 0
468 1 3 -1.05 -3.355521162154167 -10.345233316904825 -3.2407460058544304 1 1 0
469 1 3 -1.05 -2.2048968961935245 -12.67281584124379 -3.0491647524307126 1 1 0
470 1 5 0.425 -0.4530336944118556 -9.649058436806532 -1.1481079681882829 1 1 0
476 1 4 -0.95 -3.569702194052315 -15.011029442444274 -1.0092829982342053 1 1 0
477 1 3 -1.05 -2.223510954503034 -17.003879928264908 -3.238987017751225 1 1 0
480 1 5 0.425 -3.061226086377273 -14.131977973418296 -1.1480614741617021 1 1 0
842 1 2 2.1 -10.562132297329805 -17.851014175793086 -6.432546285956645 1 1 1
882 1 2 2.1 -5.402127266641829 -17.85100681359648 -6.4325501191668755 1 1 1
1003 1 2 2.1 -10.482315844290621 -14.895888504252758 -6.4245862304386065 1 1 1
1005 1 3 -1.05 -10.348095162304375 -14.98875808661767 -8.049491681798669 1 1 1
1008 1 3 -1.05 -10.596544769602936 -16.37040254747953 -5.949125564063066 1 1 1
1011 1 1 1.575 -8.68725474195775 -11.77759774974404 -9.1893849316929 1 1 1
1016 1 4 -0.95 -10.382364613954495 -11.704612098178766 -8.180586191286995 1 1 1
1020 1 5 0.425 9.749175400148882 -12.583669666698384 -8.041796462307946 0 1 1
1041 1 1 1.575 -6.135425776818094 -16.260473936348028 -9.189383231154757 1 1 1
1043 1 2 2.1 -5.3223230647806945 -14.895898704501215 -6.424593124897623 1 1 1
1044 1 3 -1.05 -5.543484086381093 -17.780185221481208 -8.050814994171715 1 1 1
1045 1 3 -1.05 -5.188093428747346 -14.988758733832059 -8.04949629788937 1 1 1
1046 1 4 -0.95 -7.8304849276464115 -16.187485278543456 -8.180577316436402 1 1 1
1047 1 3 -1.05 -9.176703799441476 -14.19469188744462 -5.95088180516822 1 1 1
1048 1 3 -1.05 -5.436541172095698 -16.370396928539293 -5.9491275765252185 1 1 1
1049 1 3 -1.05 -6.587179230640963 -14.042820482901044 -6.140706408704635 1 1 1
1050 1 5 0.425 -8.339016864185075 -17.06657758066529 -8.041710773044175 1 1 1
1051 1 1 1.575 -3.527261903235889 -11.77759444673707 -9.189385423079939 1 1 1
1052 1 2 2.1 -7.953952109972265 -13.36816612248871 -6.432556712138617 1 1 1
1053 1 2 2.1 -7.8741625097250605 -10.413049444820782 -6.4245790461347605 1 1 1
1054 1 3 -1.05 -8.095317714508074 -13.297256855654805 -8.050832188461564 1 1 1
1055 1 3 -1.05 -7.739944593076132 -10.505829863398748 -8.049470808969227 1 1 1
1056 1 4 -0.95 -5.22236234575324 -11.704613397559287 -8.180592735251716 1 1 1
1057 1 3 -1.05 -6.568578215806069 -9.711775687113166 -5.950883008183602 1 1 1
1058 1 3 -1.05 -7.988367489366465 -11.887339802933614 -5.949132603449773 1 1 1
1059 1 3 -1.05 -9.13900815725675 -9.559928450728057 -6.140691573977905 1 1 1
1060 1 5 0.425 -5.730842071322643 -12.583668202662341 -8.041826700411479 1 1 1
1061 1 1 1.575 -9.51358678931899 -10.63699289645826 9.189382244602578 1 1 0
1071 1 1 1.575 -12.121741592199127 -15.119878495438652 9.18938580037907 1 1 0
1086 1 4 -0.95 -2.670491270081923 -16.187494416422872 -8.180579828027994 1 1 1
1087 1 3 -1.05 -4.0166814766710734 -14.194679692266455 -5.950882081820672 1 1 1
1092 1 2 2.1 -2.793967359717164 -13.368163663673295 -6.432553729688593 1 1 1
1093 1 2 2.1 -2.714183453046749 -10.413041630295027 -6.4245816020409485 1 1 1
1094 1 3 -1.05 -2.935315187147549 -13.297258489782635 -8.050829092232332 1 1 1
1095 1 3 -1.05 -2.5799455030118272 -10.505829398335198 -8.049473780055107 1 1 1
1098 1 3 -1.05 -2.828369189735337 -11.887360068177586 -5.949133477017218 1 1 1
1099 1 3 -1.05 -3.978994149665634 -9.559937349167438 -6.140690350890794 1 1 1
1111 1 1 1.575 -6.961748817696581 -15.11987630783114 9.189384651241914 1 1 0
184 1 3 -1.05 1.8550841706248615 -17.90129235456656 -1.139041394638964 0 1 0
224 1 3 -1.05 7.015081266257585 -17.90129077481551 -1.1390443875216096 0 1 0
342 1 2 2.1 1.7137286735549981 -17.830403990336592 -2.7573075994425302 0 1 0
343 1 2 2.1 1.6902433706862166 -11.81974490284625 -2.765283591611176 0 1 0
345 1 3 -1.05 1.5560281171673136 -11.726883064897962 -1.1403796474735532 0 1 0
346 1 4 -0.95 4.19842475094546 -10.528150984297781 -1.0092947548256248 0 1 0
347 1 3 -1.05 5.544610676800708 -12.520964874446697 -3.238989158956352 0 1 0
348 1 3 -1.05 1.8044775438647918 -10.34525379637876 -3.2407469149941974 0 1 0
349 1 3 -1.05 2.9551154623676954 -12.672823617460397 -3.0491633747353077 0 1 0
350 1 5 0.425 4.70694993483294 -9.649056414846337 -1.1481352776498177 0 1 0
352 1 2 2.1 4.321898281880586 -13.347477423653608 -2.7573203124497994 0 1 0
353 1 2 2.1 4.242103458566291 -16.302606453938324 -2.7652944924881524 0 1 0
354 1 3 -1.05 4.463253605388115 -13.418383717750396 -1.1390481950715863 0 1 0
355 1 3 -1.05 4.107880173799165 -16.20981289781871 -1.1404006770584267 0 1 0
356 1 4 -0.95 1.590291661406587 -15.011038808742594 -1.0092858875728705 0 1 0
357 1 3 -1.05 2.936511486433403 -17.003867946178126 -3.2389871417941283 0 1 0
358 1 3 -1.05 4.356304894039823 -14.82828075681348 -3.240738966883275 0 1 0
359 1 3 -1.05 5.5069296575236155 -17.15570655268637 -3.0491796518303165 0 1 0
360 1 5 0.425 2.0987625163240065 -14.131980219839427 -1.1481045890306945 0 1 0
382 1 2 2.1 6.873746152856757 -17.83040759592042 -2.7573103659838294 0 1 0
383 1 2 2.1 6.850264705504596 -11.819752523567601 -2.765280196679372 0 1 0
385 1 3 -1.05 6.716028840751633 -11.726883416657042 -1.1403757891844322 0 1 0
388 1 3 -1.05 6.9644790606265055 -10.345231078604485 -3.2407460256393845 0 1 0
389 1 3 -1.05 8.115103706656491 -12.67281636337119 -3.049164810920919 0 1 0
390 1 5 0.425 -10.773033349967385 -9.649057938720548 -1.1481081159206 1 1 0
396 1 4 -0.95 6.750298277493279 -15.011028676607136 -1.009283156622482 0 1 0
397 1 3 -1.05 8.0964871902111 -17.003881231209515 -3.2389870762613597 0 1 0
400 1 5 0.425 7.2587734956592485 -14.13197867342077 -1.1480612275841189 0 1 0
466 1 4 -0.95 -0.9615776661893243 -10.528149916413177 -1.0092884371126996 1 1 0
467 1 3 -1.05 0.384639153569287 -12.520948194899127 -3.238991755885184 1 1 0
472 1 2 2.1 -0.8381092882996519 -13.347486331441 -2.757316117320512 1 1 0
473 1 2 2.1 -0.9178906756593168 -16.302595966027578 -2.7652875692926067 1 1 0
474 1 3 -1.05 -0.6967505864201584 -13.418383565182262 -1.1390380998660525 1 1 0
475 1 3 -1.05 -1.052121569574025 -16.2098121280094 -1.1403955470516056 1 1 0
478 1 3 -1.05 -0.80369877564749 -14.828286105827077 -3.240737085742131 1 1 0
479 1 3 -1.05 0.3469420057265431 -17.155713599291026 -3.0491809320772196 1 1 0
802 1 2 2.1 4.917871554153482 -17.85100620844276 -6.432550144635655 0 1 1
922 1 2 2.1 -0.24213302537487635 -17.851014271362367 -6.432546231091103 1 1 1
961 1 1 1.575 4.184574182271406 -16.26047384481049 -9.189383148012734 0 1 1
963 1 2 2.1 4.997676106105352 -14.89589820439723 -6.4245934413401775 0 1 1
964 1 3 -1.05 4.776515931907607 -17.780185218865757 -8.050814805633557 0 1 1
965 1 3 -1.05 5.131906621044807 -14.988758753951338 -8.049496747093013 0 1 1
966 1 4 -0.95 2.4895150021685026 -16.187485328567735 -8.18057734079336 0 1 1
967 1 3 -1.05 1.143296887105647 -14.194691428548982 -5.9508816939542974 0 1 1
968 1 3 -1.05 4.883458746547756 -16.37039893676453 -5.949127198225527 0 1 1
969 1 3 -1.05 3.732820257087102 -14.042820299512814 -6.140706422631954 0 1 1
970 1 5 0.425 1.9809831558045818 -17.066577464624032 -8.041710794411177 0 1 1
971 1 1 1.575 6.7927381146326375 -11.77759445236754 -9.189385500475517 0 1 1
972 1 2 2.1 2.366048010875998 -13.368167275390114 -6.432556655123134 0 1 1
973 1 2 2.1 2.4458378380486767 -10.41305019631907 -6.424578726466713 0 1 1
974 1 3 -1.05 2.2246822195755787 -13.29725686242322 -8.05083232247889 0 1 1
975 1 3 -1.05 2.5800552709418074 -10.505829765473539 -8.049470445822946 0 1 1
976 1 4 -0.95 5.0976375270724485 -11.704613678089164 -8.180592647516727 0 1 1
977 1 3 -1.05 3.7514206411706486 -9.711776314023226 -5.950882972545097 0 1 1
978 1 3 -1.05 2.3316324623441567 -11.887337544400147 -5.949132835505473 0 1 1
979 1 3 -1.05 1.1809926474831354 -9.559928961691705 -6.140691595020608 0 1 1
980 1 5 0.425 4.589158058033442 -12.583667977364943 -8.041826644512858 0 1 1
981 1 1 1.575 0.8064132734883156 -10.636992854297397 9.189382072755725 0 1 0
991 1 1 1.575 -1.8017416248975664 -15.119878549552123 9.189385972861375 0 1 0
1001 1 1 1.575 9.344581867349657 -16.26047640418962 -9.189381749309328 0 1 1
1004 1 3 -1.05 9.936511499778717 -17.780185040060882 -8.05080542913734 0 1 1
1006 1 4 -0.95 7.649509037996275 -16.18749394104903 -8.180579812342321 0 1 1
1007 1 3 -1.05 6.303320211197779 -14.1946787391996 -5.950882102933339 0 1 1
1009 1 3 -1.05 8.892830645210495 -14.042826183342902 -6.140708128407816 0 1 1
1010 1 5 0.425 7.140972750324373 -17.06658046434351 -8.041751694671362 0 1 1
1012 1 2 2.1 7.526031845452174 -13.36816391655739 -6.432553511023912 0 1 1
1013 1 2 2.1 7.605817828327925 -10.413041177382924 -6.424581346822816 0 1 1
1014 1 3 -1.05 7.38468487052144 -13.29725845871807 -8.050828733960508 0 1 1
1015 1 3 -1.05 7.7400544850575095 -10.50582940361992 -8.04947339734067 0 1 1
1017 1 3 -1.05 8.911445176635418 -9.711761973761018 -5.950885381272831 0 1 1
1018 1 3 -1.05 7.491630912269503 -11.887360305407935 -5.949133684133898 0 1 1
1019 1 3 -1.05 6.3410053156834145 -9.559936868934592 -6.140690348261861 0 1 1
1021 1 1 1.575 5.966421032045936 -10.636996344651585 9.18938264851844 0 1 0
1031 1 1 1.575 3.358251150778086 -15.119876228292004 9.189384489321482 0 1 0
1081 1 1 1.575 -0.9754180121607927 -16.260476400180153 -9.189381721845933 1 1 1
1083 1 2 2.1 -0.16231620481821452 -14.89588855547083 -6.424586299599195 1 1 1
1084 1 3 -1.05 -0.3834885547438134 -17.780184943603096 -8.050805349197944 1 1 1
1085 1 3 -1.05 -0.028095111453609434 -14.988758081242285 -8.049491887024741 1 1 1
1088 1 3 -1.05 -0.2765447418097864 -16.37040300834762 -5.9491255041968065 1 1 1
1089 1 3 -1.05 -1.4271693938816554 -14.042826105628727 -6.140708097208753 1 1 1
1090 1 5 0.425 -3.179027007517461 -17.066580020974854 -8.041751915389574 1 1 1
1091 1 1 1.575 1.6327453228612008 -11.777597747951123 -9.189384953878353 1 1 1
1096 1 4 -0.95 -0.0623645826637933 -11.704612065115022 -8.180586180092902 1 1 1
1097 1 3 -1.05 -1.4085524757194428 -9.711760380898674 -5.950885471300883 1 1 1
1100 1 5 0.425 -0.5708246238514203 -12.583669638729017 -8.04179655219608 1 1 1
1101 1 1 1.575 -4.353578939913898 -10.636996303988589 9.18938270030422 1 1 0
424 1 3 -1.05 -8.408577734808924 -8.935458287782806 -1.139059751375683 1 1 0
464 1 3 -1.05 -3.248580635072857 -8.935456708467136 -1.1390620639004094 1 1 0
546 1 4 -0.95 -11.22522470896448 -1.5623206043777742 -1.009290789576525 1 1 0
547 1 3 -1.05 -9.878997905733707 -3.5551322132945415 -3.2389873081377836 1 1 0
552 1 2 2.1 -11.101767117492052 -4.381650113675265 -2.757304877477752 1 1 0
553 1 2 2.1 -11.18156269540419 -7.336765995632838 -2.765288344254607 1 1 0
554 1 3 -1.05 -10.960418221812578 -4.452562993782461 -1.1390300904548987 1 1 0
555 1 3 -1.05 -11.31579151270627 -7.243982991685186 -1.1404006413513326 1 1 0
558 1 3 -1.05 -11.06735994354583 -5.86248222073808 -3.2407468195561364 1 1 0
559 1 3 -1.05 -9.916720989567086 -8.189896133020403 -3.0491777269547473 1 1 0
582 1 2 2.1 -8.549941681999599 -8.864628616853421 -2.7573212395646927 1 1 0
583 1 2 2.1 -8.573408346697407 -2.853890413154632 -2.765288711323917 1 1 0
585 1 3 -1.05 -8.707624618283598 -2.761073008594156 -1.1403895124190147 1 1 0
586 1 4 -0.95 -6.065222151349898 -1.5623213449494315 -1.0092973063700743 1 1 0
587 1 3 -1.05 -4.719027607075699 -3.5551497395403047 -3.2389848295174266 1 1 0
588 1 3 -1.05 -8.459194165968885 -1.379498682372585 -3.2407378892779697 1 1 0
589 1 3 -1.05 -7.308554273668932 -3.7069858317422746 -3.049174267227535 1 1 0
590 1 5 0.425 -5.556733431736472 -0.6832639340674191 -1.1481901639195726 1 1 0
592 1 2 2.1 -5.941758795256964 -4.381643258523525 -2.757309447300389 1 1 0
593 1 2 2.1 -6.0215675995468345 -7.336778252386646 -2.7652948891186604 1 1 0
594 1 3 -1.05 -5.800414010022665 -4.452562979690537 -1.1390409601576525 1 1 0
595 1 3 -1.05 -6.155789757574291 -7.243983669469674 -1.1404049422805471 1 1 0
596 1 4 -0.95 -8.67336350603957 -6.045192015790269 -1.009270118053955 1 1 0
597 1 3 -1.05 -7.3271615151700535 -8.038035790495682 -3.238992981860023 1 1 0
598 1 3 -1.05 -5.907356197440085 -5.862471934911557 -3.240748636610774 1 1 0
599 1 3 -1.05 -4.756733445681928 -8.189889175673681 -3.0491762653397636 1 1 0
600 1 5 0.425 -8.164891614098584 -5.166098789059271 -1.1479179100126835 1 1 0
622 1 2 2.1 -3.389926071141417 -8.86463251987464 -2.757323741452172 1 1 0
623 1 2 2.1 -3.413385787633488 -2.8538972774550295 -2.765285166795646 1 1 0
625 1 3 -1.05 -3.5476240557786918 -2.7610733325609367 -1.1403860582710532 1 1 0
628 1 3 -1.05 -3.2991927884903163 -1.3794780433085272 -3.240737139143919 1 1 0
629 1 3 -1.05 -2.148566845248455 -3.70697790414607 -3.0491756564843833 1 1 0
630 1 5 0.425 -0.39671665581836635 -0.6832652429943806 -1.1481630022982454 1 1 0
636 1 4 -0.95 -3.5133574867319632 -6.045182758574995 -1.0092671746550455 1 1 0
637 1 3 -1.05 -2.16718148458315 -8.038046305327988 -3.2389929701897184 1 1 0
640 1 5 0.425 -3.004880126821485 -5.166096444308325 -1.147874732161542 1 1 0
1002 1 2 2.1 -10.505804536592649 -8.88523539174835 -6.432560037265368 1 1 1
1042 1 2 2.1 -5.345800298480642 -8.885227442477921 -6.432563806365232 1 1 1
1163 1 2 2.1 -10.425983846443055 -5.930101828666643 -6.4245809302442 1 1 1
1165 1 3 -1.05 -10.29176457220165 -6.022932645020992 -8.049476504290835 1 1 1
1168 1 3 -1.05 -10.540210510252924 -7.404496027077366 -5.949119337484573 1 1 1
1171 1 1 1.575 -8.63091986135657 -2.8117449377960053 -9.189382864542884 1 1 1
1176 1 4 -0.95 -10.32599221206828 -2.738752318079948 -8.180571473894362 1 1 1
1180 1 5 0.425 9.80549758975939 -3.6178227408875205 -8.041659890758954 0 1 1
1201 1 1 1.575 -6.0790863142234715 -7.294676574746575 -9.189383710571903 1 1 1
1203 1 2 2.1 -5.265992010385035 -5.9301120964551135 -6.424588121260333 1 1 1
1204 1 3 -1.05 -5.487146068587514 -8.814352398208634 -8.050831889549796 1 1 1
1205 1 3 -1.05 -5.13176290972859 -6.022933332502667 -8.049481513448013 1 1 1
1206 1 4 -0.95 -7.774180195115953 -7.221701310871847 -8.180597375280326 1 1 1
1207 1 3 -1.05 -9.120384514697443 -5.22887681444276 -5.950877168633751 1 1 1
1208 1 3 -1.05 -5.380207122065727 -7.404491441720323 -5.949121385614578 1 1 1
1209 1 3 -1.05 -6.530843795028404 -5.077002060288615 -6.140701804367323 1 1 1
1210 1 5 0.425 -8.282682482860066 -8.100810146883555 -8.041925546941595 1 1 1
1211 1 1 1.575 -3.4709270920462876 -2.8117417906836764 -9.189383656264441 1 1 1
1212 1 2 2.1 -7.897616037858306 -4.402286956958651 -6.43254710358858 1 1 1
1213 1 2 2.1 -7.8178154207096355 -1.447175155438515 -6.4245867930103415 1 1 1
1214 1 3 -1.05 -8.038985872482693 -4.331447222326599 -8.050813553596454 1 1 1
1215 1 3 -1.05 -7.683597598118229 -1.5400178951253878 -8.049489918538265 1 1 1
1216 1 4 -0.95 -5.165990407443373 -2.738754409726031 -8.18057793517165 1 1 1
1217 1 3 -1.05 -6.512212271258566 -0.7459521192234924 -5.950883480489781 1 1 1
1218 1 3 -1.05 -7.932036772316762 -2.9216307666036787 -5.949131277993494 1 1 1
1219 1 3 -1.05 -9.08267694565555 -0.5940914943799172 -6.140702906817449 1 1 1
1220 1 5 0.425 -5.674519498759423 -3.617820687506949 -8.04169029858849 1 1 1
1221 1 1 1.575 -9.457246412717982 -1.671157609032207 9.189383876214114 1 1 0
1231 1 1 1.575 -12.065413830807493 -6.15404471574257 9.18938539391855 1 1 0
1246 1 4 -0.95 -2.614186286838043 -7.2217101201307425 -8.180599793839612 1 1 1
1247 1 3 -1.05 -3.960360277202871 -5.228863633164128 -5.950877486276319 1 1 1
1252 1 2 2.1 -2.737632361906618 -4.402284731749566 -6.432544106737809 1 1 1
1253 1 2 2.1 -2.6578351242773337 -1.4471666923434476 -6.424589226412993 1 1 1
1254 1 3 -1.05 -2.8789833754375103 -4.331448893865138 -8.050810085224123 1 1 1
1255 1 3 -1.05 -2.52359850535919 -1.5400175072708464 -8.049492401815417 1 1 1
1258 1 3 -1.05 -2.7720385307922406 -2.9216515367363893 -5.949132112636712 1 1 1
1259 1 3 -1.05 -3.9226633957335055 -0.5941000488864461 -6.140701563447556 1 1 1
1271 1 1 1.575 -6.9054209708246175 -6.154042407692234 9.189383855475354 1 1 0
344 1 3 -1.05 1.9114222200240487 -8.935458279277533 -1.139059564533735 0 1 0
384 1 3 -1.05 7.071419484747558 -8.93545662912592 -1.139062289794058 0 1 0
502 1 2 2.1 1.770058118239774 -8.864629279480386 -2.7573211125975057 0 1 0
503 1 2 2.1 1.746593525661929 -2.8538905356736315 -2.7652882528616427 0 1 0
505 1 3 -1.05 1.6123753212274217 -2.761072943936796 -1.1403890497030549 0 1 0
506 1 4 -0.95 4.254777803494033 -1.5623214773049696 -1.009297090882841 0 1 0
507 1 3 -1.05 5.60097265039013 -3.555149476103077 -3.2389847675130836 0 1 0
508 1 3 -1.05 1.8608059611492145 -1.3794973995029132 -3.2407379362518247 0 1 0
509 1 3 -1.05 3.0114454619351942 -3.706985652875458 -3.0491742347163786 0 1 0
510 1 5 0.425 4.763266707487849 -0.6832636557343186 -1.1481903079338203 0 1 0
512 1 2 2.1 4.37824108680676 -4.381642215703053 -2.7573092994894903 0 1 0
513 1 2 2.1 4.298431828182256 -7.33677721573053 -2.7652951589904955 0 1 0
514 1 3 -1.05 4.519586070169236 -4.452562991066955 -1.1390403197679557 0 1 0
515 1 3 -1.05 4.164210351308228 -7.243983732757602 -1.1404051524282774 0 1 0
516 1 4 -0.95 1.6466363953447338 -6.0451921005838205 -1.0092700800785774 0 1 0
517 1 3 -1.05 2.9928396471856065 -8.038035104886228 -3.2389931344831044 0 1 0
518 1 3 -1.05 4.412643745498574 -5.862474549618074 -3.2407487484486985 0 1 0
519 1 3 -1.05 5.563266561391211 -8.18988915546985 -3.049176356081455 0 1 0
520 1 5 0.425 2.1551084204706203 -5.16609866467239 -1.1479179157471826 0 1 0
542 1 2 2.1 6.930073760633853 -8.864633805826598 -2.7573239225921 0 1 0
543 1 2 2.1 6.906613517162718 -2.853897481917162 -2.7652852790953517 0 1 0
545 1 3 -1.05 6.7723761157288465 -2.7610732877001496 -1.1403856281466087 0 1 0
548 1 3 -1.05 7.020807272771009 -1.379476841625241 -3.240737136594837 0 1 0
549 1 3 -1.05 8.171434172237035 -3.7069785563504976 -3.0491755848729465 0 1 0
550 1 5 0.425 -10.71671674630369 -0.6832654187033356 -1.1481629281547843 1 1 0
556 1 4 -0.95 6.806642683806004 -6.045182652289 -1.009267250406083 0 1 0
557 1 3 -1.05 8.152818693761645 -8.038046252697145 -3.238992939192382 0 1 0
560 1 5 0.425 7.315119719776252 -5.166096588082807 -1.1478746942687081 0 1 0
626 1 4 -0.95 -0.9052247640192803 -1.5623207270903876 -1.0092908139849168 1 1 0
627 1 3 -1.05 0.4409986064558229 -3.55513430014612 -3.238987362520838 1 1 0
632 1 2 2.1 -0.781765198312538 -4.381650335007297 -2.757305136503125 1 1 0
633 1 2 2.1 -0.8615624137678708 -7.3367669283109755 -2.765288206868874 1 1 0
634 1 3 -1.05 -0.64041820705304 -4.452562941095179 -1.1390306805857744 1 1 0
635 1 3 -1.05 -0.99579148699058 -7.243983089295831 -1.1404005503235641 1 1 0
638 1 3 -1.05 -0.7473598652504947 -5.862480258450255 -3.2407468109284423 1 1 0
639 1 3 -1.05 0.4032783081311422 -8.189895897628547 -3.0491778997613777 1 1 0
962 1 2 2.1 4.974200302039463 -8.885226777627686 -6.432563729132441 0 1 1
1082 1 2 2.1 -0.185806274293137 -8.88523494640969 -6.432559660140516 1 1 1
1121 1 1 1.575 4.240913714129455 -7.294676590686793 -9.189383695860338 0 1 1
1123 1 2 2.1 5.054007902786916 -5.930111693030472 -6.424588129023356 0 1 1
1124 1 3 -1.05 4.832853936182163 -8.814352442842836 -8.050831879699462 0 1 1
1125 1 3 -1.05 5.188237146181489 -6.022933335225861 -8.04948169103402 0 1 1
1126 1 4 -0.95 2.545820092137145 -7.221700886779187 -8.180597400605782 0 1 1
1127 1 3 -1.05 1.1996162029904571 -5.228876391762018 -5.950877255533969 0 1 1
1128 1 3 -1.05 4.939792907189725 -7.404492472702664 -5.949121217373286 0 1 1
1129 1 3 -1.05 3.7891559709552 -5.077001971456189 -6.140701857527632 0 1 1
1130 1 5 0.425 2.037317272972258 -8.100810548569898 -8.041925509572767 0 1 1
1131 1 1 1.575 6.849072888825457 -2.811741689480723 -9.189383537844549 0 1 1
1132 1 2 2.1 2.4223841271020863 -4.402287509447001 -6.432547026529044 0 1 1
1133 1 2 2.1 2.502185680946525 -1.4471749599701873 -6.42458639136697 0 1 1
1134 1 3 -1.05 2.2810141007135005 -4.3314471971634685 -8.050813463045493 0 1 1
1135 1 3 -1.05 2.6364022779876706 -1.5400179185302143 -8.04948944504933 0 1 1
1136 1 4 -0.95 5.154009380117879 -2.73875462121606 -8.180577998655997 0 1 1
1137 1 3 -1.05 3.807785149367101 -0.7459535839548899 -5.950883537936585 0 1 1
1138 1 3 -1.05 2.387963148489902 -2.9216298569088384 -5.949131508409803 0 1 1
1139 1 3 -1.05 1.2373236894784867 -0.5940918355153002 -6.140702909127059 0 1 1
1140 1 5 0.425 4.645480590911754 -3.617820504422353 -8.041690386363467 0 1 1
1141 1 1 1.575 0.8627536087070986 -1.6711577052294828 9.18938406619552 0 1 0
1151 1 1 1.575 -1.7454137744760594 -6.154044591809328 9.18938520735365 0 1 0
1161 1 1 1.575 9.400921345592693 -7.294679183739749 -9.189382152847024 0 1 1
1164 1 3 -1.05 9.992849429211155 -8.81435221076156 -8.050822440181973 0 1 1
1166 1 4 -0.95 7.705813430829789 -7.221710674457647 -8.18059968821399 0 1 1
1167 1 3 -1.05 6.3596398781576156 -5.228863629458221 -5.950877516883361 0 1 1
1169 1 3 -1.05 8.94916626015327 -5.077007792880384 -6.140703499406546 0 1 1
1170 1 5 0.425 7.197307460595866 -8.100812243136945 -8.041966681414198 0 1 1
1172 1 2 2.1 7.582367683488243 -4.402284032411057 -6.432543750269571 0 1 1
1173 1 2 2.1 7.662165094646056 -1.447166201878126 -6.424589375468346 0 1 1
1174 1 3 -1.05 7.441016703458011 -4.33144872801018 -8.05080991887099 0 1 1
1175 1 3 -1.05 7.796401552064157 -1.5400176490207613 -8.049492711113222 0 1 1
1177 1 3 -1.05 8.967811472553645 -0.7459382621993349 -5.950885996764763 0 1 1
1178 1 3 -1.05 7.547961458135202 -2.921653116508409 -5.949132270533429 0 1 1
1179 1 3 -1.05 6.397335934009757 -0.5940995052845253 -6.140701722863454 0 1 1
1181 1 1 1.575 6.022761452224014 -1.6711610325038038 9.189384733881601 0 1 0
1191 1 1 1.575 3.4145789253607752 -6.154042373460836 9.189383895405408 0 1 0
1241 1 1 1.575 -0.919078623965504 -7.294679079021275 -9.189382380319893 1 1 1
1243 1 2 2.1 -0.10598440370268136 -5.930100932531092 -6.424581119725159 1 1 1
1244 1 3 -1.05 -0.32715050640343435 -8.814352196195246 -8.05082183294797 1 1 1
1245 1 3 -1.05 0.028235486212588867 -6.022932681205882 -8.049476719692466 1 1 1
1248 1 3 -1.05 -0.22021063902228377 -7.404498240171787 -5.949119370717186 1 1 1
1249 1 3 -1.05 -1.370833370356804 -5.077008018598221 -6.140703488710428 1 1 1
1250 1 5 0.425 -3.1226928311026017 -8.100812730925876 -8.041966561917656 1 1 1
1251 1 1 1.575 1.6890802359826953 -2.811744966880619 -9.189383163839267 1 1 1
1256 1 4 -0.95 -0.005992758242417295 -2.738753216631558 -8.180571330642541 1 1 1
1257 1 3 -1.05 -1.3521890001903145 -0.7459384409832701 -5.950885927432735 1 1 1
1260 1 5 0.425 -0.5145019540468603 -3.6178218687876402 -8.041660116739482 1 1 1
1261 1 1 1.575 -4.297238698912295 -1.671161039098081 9.189384626544689 1 1 0
66 1 4 -0.95 -11.168857413411244 7.40354230473303 -1.009270621918711 1 0 0
67 1 3 -1.05 -9.822645460808385 5.410696592905623 -3.238991317700341 1 0 0
72 1 2 2.1 -11.045431902700038 4.584118883669678 -2.7573129595669927 1 0 0
73 1 2 2.1 -11.125242586862766 1.6290062999736783 -2.7652808348657647 1 0 0
74 1 3 -1.05 -10.904080920918116 4.513273040814628 -1.139048034178586 1 0 0
75 1 3 -1.05 -11.259470010039587 1.7218521674576586 -1.140382566465906 1 0 0
78 1 3 -1.05 -11.011020631747801 3.1034522866952905 -3.2407497089701973 1 0 0
79 1 3 -1.05 -9.860382334314748 0.7759117274275305 -3.049165720829433 1 0 0
102 1 2 2.1 -8.493613424986258 0.10122409846838565 -2.757323192975578 1 0 0
103 1 2 2.1 -8.517068108693376 6.111974095994508 -2.765294523187803 1 0 0
105 1 3 -1.05 -8.651283926478486 6.204745693345419 -1.140405943066158 1 0 0
106 1 4 -0.95 -6.008854360601466 7.403542287020748 -1.0092772192840815 1 0 0
107 1 3 -1.05 -4.662672238122222 5.41068100659405 -3.238988681070188 1 0 0
108 1 3 -1.05 -8.402859804670333 7.586231166902241 -3.2407428765350357 1 0 0
109 1 3 -1.05 -7.252220538727875 5.258843554485125 -3.0491804233363666 1 0 0
110 1 5 0.425 -5.500400910059637 8.282611476985458 -1.1479800750695226 1 0 0
112 1 2 2.1 -5.885425009588118 4.584125237437899 -2.757317352913315 1 0 0
113 1 2 2.1 -5.9652471268907 1.6289946463227452 -2.7652873359068035 1 0 0
114 1 3 -1.05 -5.7440766738855835 4.513273091979116 -1.1390583802266399 1 0 0
115 1 3 -1.05 -6.099468233788193 1.7218514621970193 -1.140386585906322 1 0 0
116 1 4 -0.95 -8.617064557281656 2.9205985811717774 -1.0092826841011693 1 0 0
117 1 3 -1.05 -7.270858314853548 0.9277887665995053 -3.2389934936208906 1 0 0
118 1 3 -1.05 -5.851016824061415 3.103461965248542 -3.2407514463188676 1 0 0
119 1 3 -1.05 -4.700394398805081 0.7759184548700553 -3.049164281105149 1 0 0
120 1 5 0.425 -8.108543295227213 3.7997076991375103 -1.1480274788545408 1 0 0
142 1 2 2.1 -3.3335981782845536 0.10122011566864941 -2.757325467057764 1 0 0
143 1 2 2.1 -3.357047142472161 6.11196782113624 -2.7652915386543686 1 0 0
145 1 3 -1.05 -3.491283130074649 6.204745345271121 -1.1404029948656156 1 0 0
148 1 3 -1.05 -3.2428585701820545 7.586249294640197 -3.240741946764139 1 0 0
149 1 3 -1.05 -2.092232840778756 5.258851348198554 -3.049181809306372 1 0 0
150 1 5 0.425 -0.3403842372794994 8.28260966896027 -1.147952880973289 1 0 0
156 1 4 -0.95 -3.457058959682409 2.9206070634285233 -1.0092797708444152 1 0 0
157 1 3 -1.05 -2.1108774684637233 0.9277784951989752 -3.238993287738875 1 0 0
160 1 5 0.425 -2.9485314187216485 3.799710624823639 -1.1479843692043108 1 0 0
584 1 3 -1.05 -8.352243293361232 0.030357255394267924 -1.1390524737995804 1 1 0
624 1 3 -1.05 -3.1922461439355594 0.030358867266201628 -1.1390547665052146 1 1 0
683 1 2 2.1 -10.369664422889349 3.0356838773287826 -6.424575215502184 1 0 1
685 1 3 -1.05 -10.23544329651916 2.9429037405897773 -8.049464594434008 1 0 1
688 1 3 -1.05 -10.483869565823827 1.5614073964043058 -5.949127164061662 1 0 1
691 1 1 1.575 -8.574578130087637 6.154071208432605 -9.189382180610352 1 0 1
696 1 4 -0.95 -10.26966239527055 6.227051952939341 -8.18058521084057 1 0 1
700 1 5 0.425 9.861819220954118 5.347945210496121 -8.041828398642311 0 0 1
721 1 1 1.575 -6.022756736308421 1.6711303517316303 -9.189385968117815 1 0 1
723 1 2 2.1 -5.209671651803681 3.0356748124450768 -6.424582436808366 1 0 1
724 1 3 -1.05 -5.430810675667206 0.15147978126713468 -8.050841477729787 1 0 1
725 1 3 -1.05 -5.075441675948434 2.9429030094494593 -8.049469596004098 1 0 1
726 1 4 -0.95 -7.717868211333117 1.7441099614575464 -8.180598129872275 1 0 1
727 1 3 -1.05 -9.064078445575394 3.7369535813240518 -5.950881069909556 1 0 1
728 1 3 -1.05 -5.323866211609281 1.5614101422204314 -5.949129186293185 1 0 1
729 1 3 -1.05 -6.474505361873171 3.888805922950688 -6.140690242051968 1 0 1
730 1 5 0.425 -8.226330365821905 0.8650337528317387 -8.04190334906801 1 0 1
731 1 1 1.575 -3.414585332552538 6.154074477881739 -9.189382566209709 1 0 1
732 1 2 2.1 -7.841289477842381 4.563531901090041 -6.432556537458721 1 0 1
733 1 2 2.1 -7.761472051295536 7.5186496363365265 -6.424587203245381 1 0 1
734 1 3 -1.05 -7.982649355928281 4.634376331833035 -8.050818102751318 1 0 1
735 1 3 -1.05 -7.627256350140505 7.425797358610215 -8.049487688430835 1 0 1
736 1 4 -0.95 -5.109660696087643 6.227049833368586 -8.180591643035886 1 0 1
737 1 3 -1.05 -6.455868157279019 8.219860147310026 -5.95087771030675 1 0 1
738 1 3 -1.05 -7.875707074793935 6.044192212608447 -5.94912141317001 1 0 1
739 1 3 -1.05 -9.026344217684544 8.371738975760678 -6.140708086311505 1 0 1
740 1 5 0.425 -5.6181977533352105 5.3479473553048 -8.041858759758451 1 0 1