LAMMPS data file via write_data, version 5 Oct 2016, timestep = 97

1280 atoms
5 atom types
128 bonds
1 bond types

-1.0320000000000000e+01 1.0320000000000000e+01 xlo xhi
-1.7931646038000000e+01 1.7931646038000000e+01 ylo yhi
-9.1966146809999998e+00 9.1966146809999998e+00 zlo zhi
2.2533867499999999e-01 -3.3938777480000000e+00 -3.6365652300000001e-01 xy xz yz

Masses

1 26.9815
2 28.0855
3 15.9994
4 15.9994
5 1.00797

Pair Coeffs # lj/cut/coul/long

1 1.3297e-06 4.27132
2 1.8402e-06 3.30196
3 0.155416 3.16552
4 0.155416 3.16552
5 0 0

Bond Coeffs # harmonic

1 553.935 1

Atoms # full

1 1 1 1.5750000000000000e+00 2.5999859887541152e+00 1.4895295600930361e+00 -3.2684095454396100e-03 0 0 0
2 1 2 2.1000000000000001e+00 3.3890158510276365e+00 8.8633001207774171e+00 2.7539653683351801e+00 0 0 0
3 1 2 2.1000000000000001e+00 3.4122910819528869e+00 2.8524994338649421e+00 2.7618119426027334e+00 0 0 0
4 1 3 -1.0500000000000000e+00 3.1917106615190871e+00 -3.1338269933883112e-02 1.1357135267887219e+00 0 0 0
5 1 3 -1.0500000000000000e+00 3.5469715140592335e+00 2.7595296221569008e+00 1.1370155152705124e+00 0 0 0
6 1 4 -9.4999999999999996e-01 9.0629865585113478e-01 1.5632893985929819e+00 1.0069802353213007e+00 0 0 0
7 1 3 -1.0500000000000000e+00 -4.4288757751145802e-01 3.5553420116799757e+00 3.2357631024135358e+00 0 0 0
8 1 3 -1.0500000000000000e+00 3.3001891233613350e+00 1.3781620274833877e+00 3.2374587487515178e+00 0 0 0
9 1 3 -1.0500000000000000e+00 2.1467877066985572e+00 3.7041759320173213e+00 3.0459627186065976e+00 0 0 0
10 1 5 4.2499999999999999e-01 3.9940955153589464e-01 6.8440286676932871e-01 1.1507107600825695e+00 0 0 0
11 1 1 1.5750000000000000e+00 5.2081610166521486e+00 5.9724603411204953e+00 -3.2678269427819373e-03 0 0 0
12 1 2 2.1000000000000001e+00 7.8082390717283801e-01 4.3803873151640857e+00 2.7539573196414509e+00 0 0 0
13 1 2 2.1000000000000001e+00 8.6049184758384811e-01 7.3353954630155727e+00 2.7618077229661608e+00 0 0 0
14 1 3 -1.0500000000000000e+00 6.3985291874622341e-01 4.4515561398457919e+00 1.1357491950576897e+00 0 0 0
15 1 3 -1.0500000000000000e+00 9.9516171983727020e-01 7.2424161873666044e+00 1.1369982112775414e+00 0 0 0
16 1 4 -9.4999999999999996e-01 3.5145105035101025e+00 6.0462386370433165e+00 1.0069819170376704e+00 0 0 0
17 1 3 -1.0500000000000000e+00 2.1653116942489294e+00 8.0382453753562579e+00 3.2357864576820852e+00 0 0 0
18 1 3 -1.0500000000000000e+00 7.4835045014725310e-01 5.8610807683013810e+00 3.2374554227766854e+00 0 0 0
19 1 3 -1.0500000000000000e+00 -4.0504297107989196e-01 8.1871235044640613e+00 3.0459446104666839e+00 0 0 0
20 1 5 4.2499999999999999e-01 3.0075427813219715e+00 5.1673094182610200e+00 1.1507483385791737e+00 0 0 0
21 1 1 1.5750000000000000e+00 2.6161048042733217e+00 7.4761708036165011e+00 -3.7559789002870048e-03 0 0 0
22 1 2 2.1000000000000001e+00 1.8270583837568388e+00 1.0238224436981014e-01 -2.7609433636234240e+00 0 0 0
23 1 2 2.1000000000000001e+00 1.8037926928806804e+00 6.1131912799914794e+00 -2.7688607211148550e+00 0 0 0
24 1 3 -1.0500000000000000e+00 2.0245843840439779e+00 8.9971802013490674e+00 -1.1427990238002010e+00 0 0 0
25 1 3 -1.0500000000000000e+00 1.6690794936693152e+00 6.2059206004470688e+00 -1.1439630092406396e+00 0 0 0
26 1 4 -9.4999999999999996e-01 4.3099221099139733e+00 7.4024984100470839e+00 -1.0139954105990832e+00 0 0 0
27 1 3 -1.0500000000000000e+00 5.6590031416114179e+00 5.4102611437460766e+00 -3.2425548174288927e+00 0 0 0
28 1 3 -1.0500000000000000e+00 1.9161020068286181e+00 7.5874974627099085e+00 -3.2446533398602568e+00 0 0 0
29 1 3 -1.0500000000000000e+00 3.0692592992822245e+00 5.2614642342074163e+00 -3.0529614390734992e+00 0 0 0
30 1 5 4.2499999999999999e-01 4.8166943688168953e+00 8.2812214959912609e+00 -1.1575736167124671e+00 0 0 0
31 1 1 1.5750000000000000e+00 7.9432589838539513e-03 2.9932322017580155e+00 -3.7548310874804258e-03 0 0 0
32 1 2 2.1000000000000001e+00 4.4352567674819241e+00 4.5852778048151954e+00 -2.7609429803808379e+00 0 0 0
33 1 2 2.1000000000000001e+00 4.3556162421312727e+00 1.6303072110574242e+00 -2.7688546110084076e+00 0 0 0
34 1 3 -1.0500000000000000e+00 4.5764329813965201e+00 4.5142930965604897e+00 -1.1428117296192752e+00 0 0 0
35 1 3 -1.0500000000000000e+00 4.2208908922051336e+00 1.7230220252737531e+00 -1.1439381753911206e+00 0 0 0
36 1 4 -9.4999999999999996e-01 1.7016840076240793e+00 2.9195149987798672e+00 -1.0140049080257008e+00 0 0 0
37 1 3 -1.0500000000000000e+00 3.0508094436907065e+00 9.2735955111261248e-01 -3.2425715481628181e+00 0 0 0
38 1 3 -1.0500000000000000e+00 4.4679443003019212e+00 3.1046094096202950e+00 -3.2446642002284571e+00 0 0 0
39 1 3 -1.0500000000000000e+00 5.6210980414275298e+00 7.7850985095940217e-01 -3.0529442198684507e+00 0 0 0
40 1 5 4.2499999999999999e-01 2.2085508398324158e+00 3.7983231087392824e+00 -1.1577011829365311e+00 0 0 0
41 1 1 1.5750000000000000e+00 7.7600001218919523e+00 1.4895196291109798e+00 -3.2657864259189040e-03 0 0 0
42 1 2 2.1000000000000001e+00 -1.2091006019115589e+01 8.8632974450891417e+00 2.7539547041448795e+00 1 0 0
43 1 2 2.1000000000000001e+00 -1.2067713232602157e+01 2.8525136078719164e+00 2.7618235199017409e+00 1 0 0
44 1 3 -1.0500000000000000e+00 8.3516959569061555e+00 -3.1339532310223461e-02 1.1357433570971924e+00 0 0 0
45 1 3 -1.0500000000000000e+00 -1.1933025492148120e+01 2.7595329973670104e+00 1.1370134112483044e+00 1 0 0
46 1 4 -9.4999999999999996e-01 6.0662672751172373e+00 1.5632462792111497e+00 1.0069655351602584e+00 0 0 0
47 1 3 -1.0500000000000000e+00 4.7171183489904180e+00 3.5553451756140646e+00 3.2357682722939334e+00 0 0 0
48 1 3 -1.0500000000000000e+00 -1.2179814839759992e+01 1.3781454091287202e+00 3.2374743626679336e+00 1 0 0
49 1 3 -1.0500000000000000e+00 7.3067998243476922e+00 3.7041714141887212e+00 3.0459588478344077e+00 0 0 0
50 1 5 4.2499999999999999e-01 5.5593955964411492e+00 6.8439387532284712e-01 1.1505669005138230e+00 0 0 0
51 1 1 1.5750000000000000e+00 -1.0271831701454774e+01 5.9724606597474157e+00 -3.2705090813571758e-03 1 0 0
52 1 2 2.1000000000000001e+00 5.9408180554345194e+00 4.3804006042748469e+00 2.7539659364818760e+00 0 0 0
53 1 2 2.1000000000000001e+00 6.0204684195903440e+00 7.3353880878252973e+00 2.7618080745736791e+00 0 0 0
54 1 3 -1.0500000000000000e+00 5.7998593359670885e+00 4.4515526262705585e+00 1.1357348262919498e+00 0 0 0
55 1 3 -1.0500000000000000e+00 6.1551595276671165e+00 7.2424262028151780e+00 1.1369916832629752e+00 0 0 0
56 1 4 -9.4999999999999996e-01 -1.1965495382161963e+01 6.0462304220183150e+00 1.0070022736298210e+00 1 0 0
57 1 3 -1.0500000000000000e+00 7.3253562399943561e+00 8.0382687380075382e+00 3.2357743586474470e+00 0 0 0
58 1 3 -1.0500000000000000e+00 5.9083487186442269e+00 5.8610518812341148e+00 3.2374617422859089e+00 0 0 0
59 1 3 -1.0500000000000000e+00 4.7549501783979871e+00 8.1871270499566329e+00 3.0459460044387185e+00 0 0 0
60 1 5 4.2499999999999999e-01 8.1675777506518017e+00 5.1673452186951785e+00 1.1508566812238072e+00 0 0 0
61 1 1 1.5750000000000000e+00 7.7761138336528575e+00 7.4761697781487406e+00 -3.7580555383147640e-03 0 0 0
62 1 2 2.1000000000000001e+00 6.9870625419908770e+00 1.0236857881965378e-01 -2.7609530688361730e+00 0 0 0
63 1 2 2.1000000000000001e+00 6.9638163429426783e+00 6.1131999232440997e+00 -2.7688597574900182e+00 0 0 0
64 1 3 -1.0500000000000000e+00 7.1845768042068343e+00 8.9971837243373898e+00 -1.1427811518142867e+00 0 0 0
65 1 3 -1.0500000000000000e+00 6.8290823812761374e+00 6.2059099045834571e+00 -1.1439562764296625e+00 0 0 0
66 1 4 -9.4999999999999996e-01 -1.1170087733372744e+01 7.4024835932118371e+00 -1.0139778639834489e+00 1 0 0
67 1 3 -1.0500000000000000e+00 -9.8209500322774037e+00 5.4102853287564159e+00 -3.2425657088525419e+00 1 0 0
68 1 3 -1.0500000000000000e+00 7.0761041543125955e+00 7.5875255489076068e+00 -3.2446577662945764e+00 0 0 0
69 1 3 -1.0500000000000000e+00 8.2292664263953057e+00 5.2614600888460927e+00 -3.0529632035400311e+00 0 0 0
70 1 5 4.2499999999999999e-01 -1.0663272694379867e+01 8.2812544466164262e+00 -1.1574899906021443e+00 1 0 0
71 1 1 1.5750000000000000e+00 5.1679291867752841e+00 2.9932421670148486e+00 -3.7577228510699001e-03 0 0 0
72 1 2 2.1000000000000001e+00 -1.1044767300168616e+01 4.5852760408334774e+00 -2.7609521778782176e+00 1 0 0
73 1 2 2.1000000000000001e+00 -1.1124388980911734e+01 1.6303195608669299e+00 -2.7688431292616507e+00 1 0 0
74 1 3 -1.0500000000000000e+00 -1.0903581498310636e+01 4.5142906934311924e+00 -1.1427845473335605e+00 1 0 0
75 1 3 -1.0500000000000000e+00 -1.1259106369033972e+01 1.7230268384806458e+00 -1.1439410995923396e+00 1 0 0
76 1 4 -9.4999999999999996e-01 6.8617144958469076e+00 2.9195557673048818e+00 -1.0139879262950160e+00 0 0 0
77 1 3 -1.0500000000000000e+00 8.2108057946072996e+00 9.2735729230230390e-01 -3.2425776499777719e+00 0 0 0
78 1 3 -1.0500000000000000e+00 -1.1012059810070339e+01 3.1045919471971004e+00 -3.2446473870783468e+00 1 0 0
79 1 3 -1.0500000000000000e+00 -9.8588900558710808e+00 7.7850518566728155e-01 -3.0529472339342547e+00 1 0 0
80 1 5 4.2499999999999999e-01 7.3685681396951637e+00 3.7983364769353116e+00 -1.1575475830507376e+00 0 0 0
81 1 1 1.5750000000000000e+00 -7.7200137563852609e+00 1.4895294530661403e+00 -3.2684599822623284e-03 1 0 0
82 1 2 2.1000000000000001e+00 -6.9309835694285180e+00 8.8633000360003891e+00 2.7539655829756615e+00 1 0 0
83 1 2 2.1000000000000001e+00 -6.9077088390904287e+00 2.8524991867344269e+00 2.7618117534379607e+00 1 0 0
84 1 3 -1.0500000000000000e+00 -7.1282896122357791e+00 -3.1337790666402299e-02 1.1357138609993100e+00 1 0 0
85 1 3 -1.0500000000000000e+00 -6.7730290070254648e+00 2.7595293114608452e+00 1.1370158767616427e+00 1 0 0
86 1 4 -9.4999999999999996e-01 -9.4137011727461637e+00 1.5632889909165790e+00 1.0069804405775873e+00 1 0 0
87 1 3 -1.0500000000000000e+00 -1.0762886927889904e+01 3.5553424385566323e+00 3.2357631758371692e+00 1 0 0
88 1 3 -1.0500000000000000e+00 -7.0198114225359447e+00 1.3781627149599167e+00 3.2374581287983730e+00 1 0 0
89 1 3 -1.0500000000000000e+00 -8.1732123893871496e+00 3.7041758941777481e+00 3.0459624211456457e+00 1 0 0
90 1 5 4.2499999999999999e-01 -9.9205899642595909e+00 6.8440357171864363e-01 1.1507119739579768e+00 1 0 0
91 1 1 1.5750000000000000e+00 -5.1118389155552801e+00 5.9724604992986876e+00 -3.2677938051328681e-03 1 0 0
92 1 2 2.1000000000000001e+00 -9.5391764189832653e+00 4.3803869998831004e+00 2.7539574271080607e+00 1 0 0
93 1 2 2.1000000000000001e+00 -9.4595081799096388e+00 7.3353965025317827e+00 2.7618078347600434e+00 1 0 0
94 1 3 -1.0500000000000000e+00 -9.6801468113930103e+00 4.4515564521540760e+00 1.1357496055372582e+00 1 0 0
95 1 3 -1.0500000000000000e+00 -9.3248381172301720e+00 7.2424157374410534e+00 1.1369982830380732e+00 1 0 0
96 1 4 -9.4999999999999996e-01 -6.8054892996665686e+00 6.0462398159612256e+00 1.0069818364520042e+00 1 0 0
97 1 3 -1.0500000000000000e+00 -8.1546879688645451e+00 8.0382456007117398e+00 3.2357858485300515e+00 1 0 0
98 1 3 -1.0500000000000000e+00 -9.5716494128412961e+00 5.8610801354623092e+00 3.2374551881368738e+00 1 0 0
99 1 3 -1.0500000000000000e+00 -1.0725043969209066e+01 8.1871237437456550e+00 3.0459446329304463e+00 1 0 0
100 1 5 4.2499999999999999e-01 -7.3124574315238666e+00 5.1673091520186851e+00 1.1507497875855961e+00 1 0 0
101 1 1 1.5750000000000000e+00 -7.7038948864236607e+00 7.4761709779946877e+00 -3.7563858194751276e-03 1 0 0
102 1 2 2.1000000000000001e+00 -8.4929416250579237e+00 1.0238205190912097e-01 -2.7609433628825437e+00 1 0 0
103 1 2 2.1000000000000001e+00 -8.5162068339533832e+00 6.1131914931820752e+00 -2.7688610988552806e+00 1 0 0
104 1 3 -1.0500000000000000e+00 -8.2954155113210621e+00 8.9971804574221004e+00 -1.1427988389805961e+00 1 0 0
105 1 3 -1.0500000000000000e+00 -8.6509205149498847e+00 6.2059203624978956e+00 -1.1439628590241284e+00 1 0 0
106 1 4 -9.4999999999999996e-01 -6.0100779546322549e+00 7.4024979040990928e+00 -1.0139958673379255e+00 1 0 0
107 1 3 -1.0500000000000000e+00 -4.6609961845666854e+00 5.4102617087963587e+00 -3.2425544229802377e+00 1 0 0
108 1 3 -1.0500000000000000e+00 -8.4038980403496684e+00 7.5874972699614922e+00 -3.2446537367483241e+00 1 0 0
109 1 3 -1.0500000000000000e+00 -7.2507418722833936e+00 5.2614645688107124e+00 -3.0529610822747220e+00 1 0 0
110 1 5 4.2499999999999999e-01 -5.5033059365206407e+00 8.2812208311420328e+00 -1.1575765233774842e+00 1 0 0
111 1 1 1.5750000000000000e+00 -1.0312056810203035e+01 2.9932322130065998e+00 -3.7546907983969646e-03 1 0 0
112 1 2 2.1000000000000001e+00 -5.8847433874873287e+00 4.5852785579583113e+00 -2.7609429033193313e+00 1 0 0
113 1 2 2.1000000000000001e+00 -5.9643839170466686e+00 1.6303066689684940e+00 -2.7688547216593093e+00 1 0 0
114 1 3 -1.0500000000000000e+00 -5.7435669944029248e+00 4.5142929050558713e+00 -1.1428123357037983e+00 1 0 0
115 1 3 -1.0500000000000000e+00 -6.0991091928443781e+00 1.7230226164423819e+00 -1.1439386957606192e+00 1 0 0
116 1 4 -9.4999999999999996e-01 -8.6183165743253909e+00 2.9195138811823007e+00 -1.0140048055866231e+00 1 0 0
117 1 3 -1.0500000000000000e+00 -7.2691903819614820e+00 9.2736020008046438e-01 -3.2425717834672385e+00 1 0 0
118 1 3 -1.0500000000000000e+00 -5.8520558193569849e+00 3.1046084246173429e+00 -3.2446638893543165e+00 1 0 0
119 1 3 -1.0500000000000000e+00 -4.6989020453283867e+00 7.7850970320779922e-01 -3.0529439927969300e+00 1 0 0
120 1 5 4.2499999999999999e-01 -8.1114486366180678e+00 3.7983239523822867e+00 -1.1577012407700238e+00 1 0 0
121 1 1 1.5750000000000000e+00 -2.5599994626479976e+00 1.4895195225863134e+00 -3.2660642944506435e-03 1 0 0
122 1 2 2.1000000000000001e+00 -1.7710062286867227e+00 8.8632972747936982e+00 2.7539546373495405e+00 1 0 0
123 1 2 2.1000000000000001e+00 -1.7477123009753157e+00 2.8525136185930755e+00 2.7618236550482624e+00 1 0 0
124 1 3 -1.0500000000000000e+00 -1.9683041681687321e+00 -3.1339314943114260e-02 1.1357434005060227e+00 1 0 0
125 1 3 -1.0500000000000000e+00 -1.6130256197699246e+00 2.7595328394810750e+00 1.1370135266718489e+00 1 0 0
126 1 4 -9.4999999999999996e-01 -4.2537337856944379e+00 1.5632441680250189e+00 1.0069648786930525e+00 1 0 0
127 1 3 -1.0500000000000000e+00 -5.6028806915798572e+00 3.5553457721911457e+00 3.2357688590305571e+00 1 0 0
128 1 3 -1.0500000000000000e+00 -1.8598151617417997e+00 1.3781457768821710e+00 3.2374742127375917e+00 1 0 0
129 1 3 -1.0500000000000000e+00 -3.0132009706882785e+00 3.7041715558434340e+00 3.0459588995882712e+00 1 0 0
130 1 5 4.2499999999999999e-01 -4.7606046035337171e+00 6.8439349642540748e-01 1.1505607409996657e+00 1 0 0
131 1 1 1.5750000000000000e+00 4.8168369057153271e-02 5.9724605712145085e+00 -3.2704117388746567e-03 1 0 0
132 1 2 2.1000000000000001e+00 -4.3791817898634946e+00 4.3804013865484848e+00 2.7539658968809935e+00 1 0 0
133 1 2 2.1000000000000001e+00 -4.2995319515097883e+00 7.3353882982958218e+00 2.7618078686262244e+00 1 0 0
134 1 3 -1.0500000000000000e+00 -4.5201407292494871e+00 4.4515523522287275e+00 1.1357346289073345e+00 1 0 0
135 1 3 -1.0500000000000000e+00 -4.1648406595123815e+00 7.2424265294413708e+00 1.1369912415882819e+00 1 0 0
136 1 4 -9.4999999999999996e-01 -1.6454953945829232e+00 6.0462304571223804e+00 1.0070026477177905e+00 1 0 0
137 1 3 -1.0500000000000000e+00 -2.9946439468920527e+00 8.0382690637231917e+00 3.2357743104080114e+00 1 0 0
138 1 3 -1.0500000000000000e+00 -4.4116515205365854e+00 5.8610507068010520e+00 3.2374621599322246e+00 1 0 0
139 1 3 -1.0500000000000000e+00 -5.5650494733788616e+00 8.1871266439263444e+00 3.0459458790032787e+00 1 0 0
140 1 5 4.2499999999999999e-01 -2.1524218145509142e+00 5.1673462038601450e+00 1.1508591924041909e+00 1 0 0
141 1 1 1.5750000000000000e+00 -2.5438859347542353e+00 7.4761697245415135e+00 -3.7582632092334478e-03 1 0 0
142 1 2 2.1000000000000001e+00 -3.3329363804842851e+00 1.0236811376637078e-01 -2.7609530240071400e+00 1 0 0
143 1 2 2.1000000000000001e+00 -3.3561829873008966e+00 6.1132000526679882e+00 -2.7688597295862918e+00 1 0 0
144 1 3 -1.0500000000000000e+00 -3.1354235356298261e+00 8.9971842040066932e+00 -1.1427807792040543e+00 1 0 0
145 1 3 -1.0500000000000000e+00 -3.4909182600583835e+00 6.2059094368932080e+00 -1.1439561958179105e+00 1 0 0
146 1 4 -9.4999999999999996e-01 -8.5008735848989936e-01 7.4024836920448358e+00 -1.0139778123793981e+00 1 0 0
147 1 3 -1.0500000000000000e+00 4.9904929440264922e-01 5.4102852955378324e+00 -3.2425656000684357e+00 1 0 0
148 1 3 -1.0500000000000000e+00 -3.2438965163198175e+00 7.5875255784303768e+00 -3.2446584652783006e+00 1 0 0
149 1 3 -1.0500000000000000e+00 -2.0907332304654513e+00 5.2614599131077355e+00 -3.0529635108663689e+00 1 0 0
150 1 5 4.2499999999999999e-01 -3.4327252441785028e-01 8.2812545429943718e+00 -1.1574891817763771e+00 1 0 0
151 1 1 1.5750000000000000e+00 -5.1520707526539180e+00 2.9932422696247407e+00 -3.7575710303681120e-03 1 0 0
152 1 2 2.1000000000000001e+00 -7.2476725112305829e-01 4.5852758198773422e+00 -2.7609523624229535e+00 1 0 0
153 1 2 2.1000000000000001e+00 -8.0438924000571177e-01 1.6303201218117742e+00 -2.7688428916587142e+00 1 0 0
154 1 3 -1.0500000000000000e+00 -5.8358168128787469e-01 4.5142909571471250e+00 -1.1427842365077652e+00 1 0 0
155 1 3 -1.0500000000000000e+00 -9.3910616162538574e-01 1.7230269705662700e+00 -1.1439410014752056e+00 1 0 0
156 1 4 -9.4999999999999996e-01 -3.4582854395786136e+00 2.9195566902968508e+00 -1.0139875801681342e+00 1 0 0
157 1 3 -1.0500000000000000e+00 -2.1091939503703152e+00 9.2735770730401157e-01 -3.2425784113786129e+00 1 0 0
158 1 3 -1.0500000000000000e+00 -6.9205988720759315e-01 3.1045918731948028e+00 -3.2446474792644775e+00 1 0 0
159 1 3 -1.0500000000000000e+00 4.6110929925033162e-01 7.7850537414041909e-01 -3.0529474813034367e+00 1 0 0
160 1 5 4.2499999999999999e-01 -2.9514312473451580e+00 3.7983374737998545e+00 -1.1575435527823981e+00 1 0 0
161 1 1 1.5750000000000000e+00 2.6563134001835174e+00 1.0455371516328153e+01 -3.2734775751421807e-03 0 0 0
162 1 2 2.1000000000000001e+00 3.2200000793507915e+00 -1.8034168055802969e+01 2.7539699954278376e+00 0 1 0
163 1 2 2.1000000000000001e+00 3.4686304351053021e+00 1.1818330371923647e+01 2.7618152520441335e+00 0 0 0
164 1 3 -1.0500000000000000e+00 3.2480341177807297e+00 8.9344903893301542e+00 1.1357344410643542e+00 0 0 0
165 1 3 -1.0500000000000000e+00 3.6033098122302398e+00 1.1725346434065575e+01 1.1370112044265888e+00 0 0 0
166 1 4 -9.4999999999999996e-01 9.6267397491767959e-01 1.0529174885771052e+01 1.0070252189892397e+00 0 0 0
167 1 3 -1.0500000000000000e+00 -3.8653877399151604e-01 1.2521163438190538e+01 3.2357641403694473e+00 0 0 0
168 1 3 -1.0500000000000000e+00 3.3565301561723722e+00 1.0343985356367806e+01 3.2374269175278840e+00 0 0 0
169 1 3 -1.0500000000000000e+00 2.2031200709181498e+00 1.2669998832466721e+01 3.0459640112402759e+00 0 0 0
170 1 5 4.2499999999999999e-01 4.5576637197079073e-01 9.6503202047150296e+00 1.1510612204759685e+00 0 0 0
171 1 1 1.5750000000000000e+00 5.2644962792255114e+00 1.4938261534530948e+01 -3.2647451325473753e-03 0 0 0
172 1 2 2.1000000000000001e+00 8.3716356417033211e-01 1.3346218268802954e+01 2.7539470758802835e+00 0 0 0
173 1 2 2.1000000000000001e+00 9.1681075011299562e-01 1.6301231345167661e+01 2.7618125766893566e+00 0 0 0
174 1 3 -1.0500000000000000e+00 6.9620077398076852e-01 1.3417388047104328e+01 1.1357329589097631e+00 0 0 0
175 1 3 -1.0500000000000000e+00 1.0514831822196271e+00 1.6208254021374852e+01 1.1370122634561355e+00 0 0 0
176 1 4 -9.4999999999999996e-01 3.5707945950799811e+00 1.5012003258438757e+01 1.0069522165247839e+00 0 0 0
177 1 3 -1.0500000000000000e+00 2.2216102376958187e+00 1.7004067428805609e+01 3.2357767642373751e+00 0 0 0
178 1 3 -1.0500000000000000e+00 8.0468569905412757e-01 1.4826903246577299e+01 3.2374729366625967e+00 0 0 0
179 1 3 -1.0500000000000000e+00 -3.4870265184444982e-01 1.7152922875565228e+01 3.0459529855636607e+00 0 0 0
180 1 5 4.2499999999999999e-01 3.0638743761134464e+00 1.4133083814238685e+01 1.1505085237616779e+00 0 0 0
181 1 1 1.5750000000000000e+00 2.6724321383913008e+00 1.6441984484756983e+01 -3.7572437476853793e-03 0 0 0
182 1 2 2.1000000000000001e+00 1.8833962660382699e+00 9.0681931419489921e+00 -2.7609335407081872e+00 0 0 0
183 1 2 2.1000000000000001e+00 1.8601111196809121e+00 1.5079040342628350e+01 -2.7688508235497418e+00 0 0 0
184 1 3 -1.0500000000000000e+00 1.8555857070306878e+00 -1.7900270605410917e+01 -1.1427969927137482e+00 0 1 0
185 1 3 -1.0500000000000000e+00 1.7253995479611604e+00 1.5171757634659638e+01 -1.1439490826924779e+00 0 0 0
186 1 4 -9.4999999999999996e-01 4.3662322107158733e+00 1.6368309943641055e+01 -1.0139855229210077e+00 0 0 0
187 1 3 -1.0500000000000000e+00 5.7153027190516923e+00 1.4376080986155142e+01 -3.2425652845281192e+00 0 0 0
188 1 3 -1.0500000000000000e+00 1.9724442262540727e+00 1.6553320295057897e+01 -3.2446645540223695e+00 0 0 0
189 1 3 -1.0500000000000000e+00 3.1255993997228746e+00 1.4227253671506265e+01 -3.0529479201541534e+00 0 0 0
190 1 5 4.2499999999999999e-01 4.8730503872703981e+00 1.7247084738816252e+01 -1.1575108950696489e+00 0 0 0
191 1 1 1.5750000000000000e+00 6.4287605771619738e-02 1.1959047499133955e+01 -3.7503865813821591e-03 0 0 0
192 1 2 2.1000000000000001e+00 4.4915804029907438e+00 1.3551111831722395e+01 -2.7609471625592663e+00 0 0 0
193 1 2 2.1000000000000001e+00 4.4119577432399595e+00 1.0596109686747351e+01 -2.7688628659227765e+00 0 0 0
194 1 3 -1.0500000000000000e+00 4.6327720860930999e+00 1.3480101674103746e+01 -1.1428277031521787e+00 0 0 0
195 1 3 -1.0500000000000000e+00 4.2772319797087590e+00 1.0688840900034439e+01 -1.1439426903633443e+00 0 0 0
196 1 4 -9.4999999999999996e-01 1.7580042741312081e+00 1.1885300143491271e+01 -1.0140430923412715e+00 0 0 0
197 1 3 -1.0500000000000000e+00 3.1071547577327969e+00 9.8931852268420180e+00 -3.2425655357851380e+00 0 0 0
198 1 3 -1.0500000000000000e+00 4.5242699949370255e+00 1.2070431784027537e+01 -3.2446352562949325e+00 0 0 0
199 1 3 -1.0500000000000000e+00 5.6774301856846563e+00 9.7443531193086770e+00 -3.0529533590117293e+00 0 0 0
200 1 5 4.2499999999999999e-01 2.2648570458734767e+00 1.2764054876209290e+01 -1.1579888107521015e+00 0 0 0
201 1 1 1.5750000000000000e+00 7.8163274667709004e+00 1.0455361822489916e+01 -3.2709891462765484e-03 0 0 0
202 1 2 2.1000000000000001e+00 -1.2260022563792901e+01 -1.8034171036451074e+01 2.7539593838063130e+00 1 1 0
203 1 2 2.1000000000000001e+00 -1.2011372927310228e+01 1.1818343457748362e+01 2.7618265468659775e+00 1 0 0
204 1 3 -1.0500000000000000e+00 8.4080197705526096e+00 8.9344884845612391e+00 1.1357635616008466e+00 0 0 0
205 1 3 -1.0500000000000000e+00 -1.1876687672220676e+01 1.1725350016313566e+01 1.1370089651291622e+00 1 0 0
206 1 4 -9.4999999999999996e-01 6.1226432401957958e+00 1.0529133102795765e+01 1.0070115060204152e+00 0 0 0
207 1 3 -1.0500000000000000e+00 4.7734668544665446e+00 1.2521166817291366e+01 3.2357690806651949e+00 0 0 0
208 1 3 -1.0500000000000000e+00 -1.2123474030539958e+01 1.0343970332896109e+01 3.2374431734477387e+00 1 0 0
209 1 3 -1.0500000000000000e+00 7.3631314638252157e+00 1.2669994182427597e+01 3.0459606244004132e+00 0 0 0
210 1 5 4.2499999999999999e-01 5.6157533562485771e+00 9.6503133176461908e+00 1.1509245775060091e+00 0 0 0
211 1 1 1.5750000000000000e+00 -1.0215496529349888e+01 1.4938261423331294e+01 -3.2671984669594423e-03 1 0 0
212 1 2 2.1000000000000001e+00 5.9971582839890871e+00 1.3346232288807276e+01 2.7539563176022028e+00 0 0 0
213 1 2 2.1000000000000001e+00 6.0767870017495582e+00 1.6301224009304729e+01 2.7618126124878195e+00 0 0 0
214 1 3 -1.0500000000000000e+00 5.8562070155499164e+00 1.3417384395333375e+01 1.1357183501401593e+00 0 0 0
215 1 3 -1.0500000000000000e+00 6.2114804261402661e+00 1.6208264386955651e+01 1.1370050309136168e+00 0 0 0
216 1 4 -9.4999999999999996e-01 -1.1909211620817819e+01 1.5011994029862020e+01 1.0069718593232118e+00 1 0 0
217 1 3 -1.0500000000000000e+00 7.3816555131360566e+00 1.7004091118074196e+01 3.2357656756583246e+00 0 0 0
218 1 3 -1.0500000000000000e+00 5.9646835115051537e+00 1.4826873453180109e+01 3.2374785589618078e+00 0 0 0
219 1 3 -1.0500000000000000e+00 4.8112906275483347e+00 1.7152926240598543e+01 3.0459544088802879e+00 0 0 0
220 1 5 4.2499999999999999e-01 8.2239086021434531e+00 1.4133118218483940e+01 1.1506108499324537e+00 0 0 0
221 1 1 1.5750000000000000e+00 7.8324408920161304e+00 1.6441983610717937e+01 -3.7594297909890884e-03 0 0 0
222 1 2 2.1000000000000001e+00 7.0433997235143551e+00 9.0681792148270475e+00 -2.7609433793505778e+00 0 0 0
223 1 2 2.1000000000000001e+00 7.0201340001296231e+00 1.5079048983075904e+01 -2.7688496626705303e+00 0 0 0
224 1 3 -1.0500000000000000e+00 7.0155782305852874e+00 -1.7900266980861765e+01 -1.1427797504921990e+00 0 1 0
225 1 3 -1.0500000000000000e+00 6.8854016068099639e+00 1.5171747073972536e+01 -1.1439426401780413e+00 0 0 0
226 1 4 -9.4999999999999996e-01 -1.1113777147342798e+01 1.6368296182520734e+01 -1.0139673644246923e+00 1 0 0
227 1 3 -1.0500000000000000e+00 -9.7646511702758900e+00 1.4376104836232383e+01 -3.2425769131107307e+00 1 0 0
228 1 3 -1.0500000000000000e+00 7.1324461842806457e+00 1.6553349104877181e+01 -3.2446699530389926e+00 0 0 0
229 1 3 -1.0500000000000000e+00 8.2856077950535507e+00 1.4227248777578755e+01 -3.0529496330623935e+00 0 0 0
230 1 5 4.2499999999999999e-01 -1.0606916142948355e+01 1.7247118324243235e+01 -1.1574224546860155e+00 1 0 0
231 1 1 1.5750000000000000e+00 5.2242739244354812e+00 1.1959056994618571e+01 -3.7532727914637576e-03 0 0 0
232 1 2 2.1000000000000001e+00 -1.0988443129796577e+01 1.3551110560593809e+01 -2.7609569176995983e+00 1 0 0
233 1 2 2.1000000000000001e+00 -1.1068048695702130e+01 1.0596121856381689e+01 -2.7688513474828484e+00 1 0 0
234 1 3 -1.0500000000000000e+00 -1.0847241951081806e+01 1.3480099061382369e+01 -1.1428004053747500e+00 1 0 0
235 1 3 -1.0500000000000000e+00 -1.1202765363241992e+01 1.0688845693686350e+01 -1.1439459591196393e+00 1 0 0
236 1 4 -9.4999999999999996e-01 6.9180337353417016e+00 1.1885339729941098e+01 -1.0140270633946198e+00 0 0 0
237 1 3 -1.0500000000000000e+00 8.2671524098729279e+00 9.8931836876833437e+00 -3.2425721304984254e+00 0 0 0
238 1 3 -1.0500000000000000e+00 -1.0955734208517388e+01 1.2070414566453039e+01 -3.2446182476609398e+00 1 0 0
239 1 3 -1.0500000000000000e+00 -9.8025577056732693e+00 9.7443480474548068e+00 -3.0529560570682035e+00 1 0 0
240 1 5 4.2499999999999999e-01 7.4248734752605259e+00 1.2764066295177155e+01 -1.1578424655573620e+00 0 0 0
241 1 1 1.5750000000000000e+00 -7.6636863980105723e+00 1.0455371549550875e+01 -3.2736966669304479e-03 1 0 0
242 1 2 2.1000000000000001e+00 -7.0999990710355192e+00 -1.8034168111282145e+01 2.7539701102788019e+00 1 1 0
243 1 2 2.1000000000000001e+00 -6.8513690426892451e+00 1.1818330417854160e+01 2.7618149786464521e+00 1 0 0
244 1 3 -1.0500000000000000e+00 -7.0719662711101812e+00 8.9344903042783628e+00 1.1357345069924225e+00 1 0 0
245 1 3 -1.0500000000000000e+00 -6.7166907540342233e+00 1.1725346382842613e+01 1.1370110473100272e+00 1 0 0
246 1 4 -9.4999999999999996e-01 -9.3573260672622727e+00 1.0529174208841528e+01 1.0070252131964725e+00 1 0 0
247 1 3 -1.0500000000000000e+00 -1.0706539610507846e+01 1.2521163280396088e+01 3.2357640814962956e+00 1 0 0
248 1 3 -1.0500000000000000e+00 -6.9634703631137729e+00 1.0343985091037393e+01 3.2374266804707119e+00 1 0 0
249 1 3 -1.0500000000000000e+00 -8.1168803339350379e+00 1.2669999097078030e+01 3.0459638003843619e+00 1 0 0
250 1 5 4.2499999999999999e-01 -9.8642334722321223e+00 9.6503204443188402e+00 1.1510602007101145e+00 1 0 0
251 1 1 1.5750000000000000e+00 -5.0555038517207738e+00 1.4938261738890343e+01 -3.2644360310367659e-03 1 0 0
252 1 2 2.1000000000000001e+00 -9.4828364774811842e+00 1.3346217905042987e+01 2.7539473478098913e+00 1 0 0
253 1 2 2.1000000000000001e+00 -9.4031892666074217e+00 1.6301231779632818e+01 2.7618124621169056e+00 1 0 0
254 1 3 -1.0500000000000000e+00 -9.6237991655729793e+00 1.3417388438033317e+01 1.1357331457960171e+00 1 0 0
255 1 3 -1.0500000000000000e+00 -9.2685168345328872e+00 1.6208253547145770e+01 1.1370123846061553e+00 1 0 0
256 1 4 -9.4999999999999996e-01 -6.7492056915652885e+00 1.5012003321026935e+01 1.0069523554452928e+00 1 0 0
257 1 3 -1.0500000000000000e+00 -8.0983893100633519e+00 1.7004067932473877e+01 3.2357766175726148e+00 1 0 0
258 1 3 -1.0500000000000000e+00 -9.5153144179962954e+00 1.4826903279627327e+01 3.2374724255443947e+00 1 0 0
259 1 3 -1.0500000000000000e+00 -1.0668703168553188e+01 1.7152922672989472e+01 3.0459531606477839e+00 1 0 0
260 1 5 4.2499999999999999e-01 -7.2561252036506980e+00 1.4133084321951994e+01 1.1505098705128987e+00 1 0 0
261 1 1 1.5750000000000000e+00 -7.6475676736905971e+00 1.6441984614323157e+01 -3.7576410911643876e-03 1 0 0
262 1 2 2.1000000000000001e+00 -8.4366040275132406e+00 9.0681930278031473e+00 -2.7609335500569747e+00 1 0 0
263 1 2 2.1000000000000001e+00 -8.4598890146513455e+00 1.5079040601080134e+01 -2.7688510489233167e+00 1 0 0
264 1 3 -1.0500000000000000e+00 -8.4644143079304612e+00 -1.7900269957740477e+01 -1.1427967775321957e+00 1 1 0
265 1 3 -1.0500000000000000e+00 -8.5946007116663132e+00 1.5171756827133724e+01 -1.1439485975510628e+00 1 0 0
266 1 4 -9.4999999999999996e-01 -5.9537679681653151e+00 1.6368309168283670e+01 -1.0139856989316165e+00 1 0 0
267 1 3 -1.0500000000000000e+00 -4.6046964494860898e+00 1.4376081286353607e+01 -3.2425649205705174e+00 1 0 0
268 1 3 -1.0500000000000000e+00 -8.3475558754399124e+00 1.6553320859356912e+01 -3.2446655570405536e+00 1 0 0
269 1 3 -1.0500000000000000e+00 -7.1944009052872069e+00 1.4227253415250768e+01 -3.0529479683150100e+00 1 0 0
270 1 5 4.2499999999999999e-01 -5.4469496542482680e+00 1.7247084860834857e+01 -1.1575125267203532e+00 1 0 0
271 1 1 1.5750000000000000e+00 -1.0255712633101528e+01 1.1959047249232842e+01 -3.7503693590110743e-03 1 0 0
272 1 2 2.1000000000000001e+00 -5.8284201346147073e+00 1.3551112633249122e+01 -2.7609471419709433e+00 1 0 0
273 1 2 2.1000000000000001e+00 -5.9080424941932153e+00 1.0596109220690689e+01 -2.7688628072186683e+00 1 0 0
274 1 3 -1.0500000000000000e+00 -5.6872277599586996e+00 1.3480101435889090e+01 -1.1428283866518854e+00 1 0 0