LAMMPS data file via write_data, version 4 Mar 2014, timestep = 100

1280 atoms
5 atom types
128 bonds
1 bond types

-1.0320000000000000e+01 1.0320000000000000e+01 xlo xhi
-1.7931646038000000e+01 1.7931646038000000e+01 ylo yhi
-9.1966146809999998e+00 9.1966146809999998e+00 zlo zhi
2.2533867499999999e-01 -3.3938777480000000e+00 -3.6365652300000001e-01 xy xz yz

Masses

1 26.9815
2 28.0855
3 15.9994
4 15.9994
5 1.00797

Pair Coeffs

1 1.3297e-06 4.27132
2 1.8402e-06 3.30196
3 0.155416 3.16552
4 0.155416 3.16552
5 0 0

Bond Coeffs

1 553.935 1

Atoms

1 1 1 1.5750000000000000e+00 2.5993596520046260e+00 1.4882900600258182e+00 -1.0812491332750085e-03 0 0 0
2 1 2 2.1000000000000001e+00 3.3881083617607270e+00 8.8638081118868861e+00 2.7520703123178425e+00 0 0 0
3 1 2 2.1000000000000001e+00 3.4139343398345119e+00 2.8526270594973830e+00 2.7596168355590276e+00 0 0 0
4 1 3 -1.0500000000000000e+00 3.1875086232004897e+00 -3.1304936054915800e-02 1.1367387214371441e+00 0 0 0
5 1 3 -1.0500000000000000e+00 3.5527594315534881e+00 2.7568701063549739e+00 1.1381402995392769e+00 0 0 0
6 1 4 -9.4999999999999996e-01 9.1766045315059230e-01 1.5740631280969382e+00 1.0189580159233298e+00 0 0 0
7 1 3 -1.0500000000000000e+00 -4.3978237985006885e-01 3.5528966155392290e+00 3.2377228498225232e+00 0 0 0
8 1 3 -1.0500000000000000e+00 3.2966896305453979e+00 1.3784025867574137e+00 3.2369230385132948e+00 0 0 0
9 1 3 -1.0500000000000000e+00 2.1511854698456094e+00 3.7101624965654629e+00 3.0393623494866819e+00 0 0 0
10 1 5 4.2499999999999999e-01 4.1304115882830850e-01 7.0858429800630063e-01 1.2341413567628692e+00 0 0 0
11 1 1 1.5750000000000000e+00 5.2075289141421628e+00 5.9712273126645208e+00 -1.1003217385940900e-03 0 0 0
12 1 2 2.1000000000000001e+00 7.7992413524051329e-01 4.3808730648448524e+00 2.7520886637176147e+00 0 0 0
13 1 2 2.1000000000000001e+00 8.6212166757941588e-01 7.3355201716095273e+00 2.7596040381917586e+00 0 0 0
14 1 3 -1.0500000000000000e+00 6.3565084014680373e-01 4.4515684498491375e+00 1.1367428409373659e+00 0 0 0
15 1 3 -1.0500000000000000e+00 1.0009642240685892e+00 7.2397556658052480e+00 1.1381282197844147e+00 0 0 0
16 1 4 -9.4999999999999996e-01 3.5258684152099597e+00 6.0570110595805637e+00 1.0189984106767973e+00 0 0 0
17 1 3 -1.0500000000000000e+00 2.1684022966187442e+00 8.0357879734705300e+00 3.2377030337549169e+00 0 0 0
18 1 3 -1.0500000000000000e+00 7.4486198526787106e-01 5.8613648961516880e+00 3.2369050077262393e+00 0 0 0
19 1 3 -1.0500000000000000e+00 -4.0060852713138040e-01 8.1930902338805822e+00 3.0393178026634580e+00 0 0 0
20 1 5 4.2499999999999999e-01 3.0212600858515035e+00 5.1916295129444698e+00 1.2344575067874164e+00 0 0 0
21 1 1 1.5750000000000000e+00 2.6165689354331576e+00 7.4772141627982442e+00 -5.6194863630345537e-03 0 0 0
22 1 2 2.1000000000000001e+00 1.8278876550536935e+00 1.0182971026238974e-01 -2.7586970692677335e+00 0 0 0
23 1 2 2.1000000000000001e+00 1.8021215275304208e+00 6.1129688954300327e+00 -2.7662422357374892e+00 0 0 0
24 1 3 -1.0500000000000000e+00 2.0283728515776911e+00 8.9970577309046504e+00 -1.1432473706049304e+00 0 0 0
25 1 3 -1.0500000000000000e+00 1.6634566967028626e+00 6.2086697842131962e+00 -1.1446560607305951e+00 0 0 0
26 1 4 -9.4999999999999996e-01 4.2986260781470733e+00 7.3920166940321401e+00 -1.0249968856997604e+00 0 0 0
27 1 3 -1.0500000000000000e+00 5.6559330286221403e+00 5.4126307782462391e+00 -3.2442608651498190e+00 0 0 0
28 1 3 -1.0500000000000000e+00 1.9192504670401291e+00 7.5872042145847054e+00 -3.2434320963187044e+00 0 0 0
29 1 3 -1.0500000000000000e+00 3.0650235195062034e+00 5.2556901644357339e+00 -3.0461115502159730e+00 0 0 0
30 1 5 4.2499999999999999e-01 4.8035751889592486e+00 8.2580856040690769e+00 -1.2372390756746245e+00 0 0 0
31 1 1 1.5750000000000000e+00 8.4044409014900623e-03 2.9942788765782851e+00 -5.6005955861042622e-03 0 0 0
32 1 2 2.1000000000000001e+00 4.4360730600385114e+00 4.5847605410689702e+00 -2.7587150701119336e+00 0 0 0
33 1 2 2.1000000000000001e+00 4.3539364181102407e+00 1.6300766548957064e+00 -2.7662298465172128e+00 0 0 0
34 1 3 -1.0500000000000000e+00 4.5802276362029435e+00 4.5141855930315025e+00 -1.1432542885526686e+00 0 0 0
35 1 3 -1.0500000000000000e+00 4.2152561507898412e+00 1.7257911288873942e+00 -1.1446452820482715e+00 0 0 0
36 1 4 -9.4999999999999996e-01 1.6904176280658092e+00 2.9090779966367997e+00 -1.0250300704067090e+00 0 0 0
37 1 3 -1.0500000000000000e+00 3.0477514338401175e+00 9.2973642699415393e-01 -3.2442410144828848e+00 0 0 0
38 1 3 -1.0500000000000000e+00 4.4710788948266256e+00 3.1042503377148130e+00 -3.2434184044029397e+00 0 0 0
39 1 3 -1.0500000000000000e+00 5.6168180411235280e+00 7.7276465358232826e-01 -3.0460654755419396e+00 0 0 0
40 1 5 4.2499999999999999e-01 2.1953543805053659e+00 3.7750625122921733e+00 -1.2375137658443451e+00 0 0 0
41 1 1 1.5750000000000000e+00 7.7593667974341116e+00 1.4882875844411778e+00 -1.0800878431691530e-03 0 0 0
42 1 2 2.1000000000000001e+00 -1.2091892554232100e+01 8.8638068273280304e+00 2.7520729565452449e+00 1 0 0
43 1 2 2.1000000000000001e+00 -1.2066062031288764e+01 2.8526258794028436e+00 2.7596183764589810e+00 1 0 0
44 1 3 -1.0500000000000000e+00 8.3475033984264826e+00 -3.1302525644800738e-02 1.1367403599149970e+00 0 0 0
45 1 3 -1.0500000000000000e+00 -1.1927240183972263e+01 2.7568656415244952e+00 1.1381418614692507e+00 1 0 0
46 1 4 -9.4999999999999996e-01 6.0776532475762153e+00 1.5740572667257275e+00 1.0189511331187227e+00 0 0 0
47 1 3 -1.0500000000000000e+00 4.7202183448957626e+00 3.5528937230222120e+00 3.2377240632977262e+00 0 0 0
48 1 3 -1.0500000000000000e+00 -1.2183313639709638e+01 1.3784030003855925e+00 3.2369255861931432e+00 1 0 0
49 1 3 -1.0500000000000000e+00 7.3111869688358517e+00 3.7101650079422015e+00 3.0393575352778353e+00 0 0 0
50 1 5 4.2499999999999999e-01 5.5730238334148332e+00 7.0856858877032991e-01 1.2340767994475854e+00 0 0 0
51 1 1 1.5750000000000000e+00 -1.0272466189276649e+01 5.9712246082248015e+00 -1.0975943967341806e-03 1 0 0
52 1 2 2.1000000000000001e+00 5.9399221186099425e+00 4.3808736732785256e+00 2.7520868822860844e+00 0 0 0
53 1 2 2.1000000000000001e+00 6.0221179373263780e+00 7.3355193588128209e+00 2.7596040009105103e+00 0 0 0
54 1 3 -1.0500000000000000e+00 5.7956494009087649e+00 4.4515669264515516e+00 1.1367431058474011e+00 0 0 0
55 1 3 -1.0500000000000000e+00 6.1609603541139819e+00 7.2397536142585857e+00 1.1381283858110915e+00 0 0 0
56 1 4 -9.4999999999999996e-01 -1.1954127386017726e+01 6.0570238530538951e+00 1.0190134395868142e+00 1 0 0
57 1 3 -1.0500000000000000e+00 7.3284057147376060e+00 8.0357882119204724e+00 3.2377031674562478e+00 0 0 0
58 1 3 -1.0500000000000000e+00 5.9048624834697314e+00 5.8613620762115737e+00 3.2369046557501786e+00 0 0 0
59 1 3 -1.0500000000000000e+00 4.7593918660988059e+00 8.1930867571954415e+00 3.0393208108983529e+00 0 0 0
60 1 5 4.2499999999999999e-01 8.1812915063843654e+00 5.1916541819268076e+00 1.2345712712632348e+00 0 0 0
61 1 1 1.5750000000000000e+00 7.7765744150069196e+00 7.4772110898687600e+00 -5.6168077529363813e-03 0 0 0
62 1 2 2.1000000000000001e+00 6.9878919349463970e+00 1.0183096031471806e-01 -2.7586957459689803e+00 0 0 0
63 1 2 2.1000000000000001e+00 6.9621241616101770e+00 6.1129671620970711e+00 -2.7662418189596103e+00 0 0 0
64 1 3 -1.0500000000000000e+00 7.1883739812393408e+00 8.9970595571723742e+00 -1.1432480919496335e+00 0 0 0
65 1 3 -1.0500000000000000e+00 6.8234605148207379e+00 6.2086712878975341e+00 -1.1446560033087021e+00 0 0 0
66 1 4 -9.4999999999999996e-01 -1.1181369923537819e+01 7.3920293161420574e+00 -1.0249827015771427e+00 1 0 0
67 1 3 -1.0500000000000000e+00 -9.8240645767162160e+00 5.4126303979453212e+00 -3.2442605127814081e+00 1 0 0
68 1 3 -1.0500000000000000e+00 7.0792502199296017e+00 7.5872092188871072e+00 -3.2434313874298280e+00 0 0 0
69 1 3 -1.0500000000000000e+00 8.2250240290825261e+00 5.2556934165631084e+00 -3.0461146419104255e+00 0 0 0
70 1 5 4.2499999999999999e-01 -1.0676395334126314e+01 8.2581079751635009e+00 -1.2371320778147110e+00 1 0 0
71 1 1 1.5750000000000000e+00 5.1683976201164832e+00 2.9942809980328420e+00 -5.6020985389082512e-03 0 0 0
72 1 2 2.1000000000000001e+00 -1.1043928010003881e+01 4.5847591583652694e+00 -2.7587123842620365e+00 1 0 0
73 1 2 2.1000000000000001e+00 -1.1126060457304307e+01 1.6300761266194748e+00 -2.7662283658262670e+00 1 0 0
74 1 3 -1.0500000000000000e+00 -1.0899777242788575e+01 4.5141879531325131e+00 -1.1432521082081628e+00 1 0 0
75 1 3 -1.0500000000000000e+00 -1.1264743494035447e+01 1.7257868171081157e+00 -1.1446439904893246e+00 1 0 0
76 1 4 -9.4999999999999996e-01 6.8504252550065843e+00 2.9090852617536171e+00 -1.0250226167091654e+00 0 0 0
77 1 3 -1.0500000000000000e+00 8.2077473575870670e+00 9.2973693217553688e-01 -3.2442419395420981e+00 0 0 0
78 1 3 -1.0500000000000000e+00 -1.1008923595240562e+01 3.1042496762326763e+00 -3.2434162193484148e+00 1 0 0
79 1 3 -1.0500000000000000e+00 -9.8631808888372188e+00 7.7276710294123774e-01 -3.0460701921807960e+00 1 0 0
80 1 5 4.2499999999999999e-01 7.3553731471165094e+00 3.7750787575772335e+00 -1.2374424942294322e+00 0 0 0
81 1 1 1.5750000000000000e+00 -7.7206401882061746e+00 1.4882898218945044e+00 -1.0812584217809729e-03 1 0 0
82 1 2 2.1000000000000001e+00 -6.9318913071396580e+00 8.8638081162334181e+00 2.7520702511657547e+00 1 0 0
83 1 2 2.1000000000000001e+00 -6.9060648624012906e+00 2.8526262402975249e+00 2.7596169460676006e+00 1 0 0
84 1 3 -1.0500000000000000e+00 -7.1324913614342149e+00 -3.1305213230350404e-02 1.1367384001582508e+00 1 0 0
85 1 3 -1.0500000000000000e+00 -6.7672404919867226e+00 2.7568702222101642e+00 1.1381405338448083e+00 1 0 0
86 1 4 -9.4999999999999996e-01 -9.4023397012950252e+00 1.5740630961057498e+00 1.0189579178024069e+00 1 0 0
87 1 3 -1.0500000000000000e+00 -1.0759783557906536e+01 3.5528960691954445e+00 3.2377228214345362e+00 1 0 0
88 1 3 -1.0500000000000000e+00 -7.0233104229350349e+00 1.3784037207955535e+00 3.2369231215909693e+00 1 0 0
89 1 3 -1.0500000000000000e+00 -8.1688155767960176e+00 3.7101632112761109e+00 3.0393623580722871e+00 1 0 0
90 1 5 4.2499999999999999e-01 -9.9069587594590995e+00 7.0858432122345505e-01 1.2341412755829353e+00 1 0 0
91 1 1 1.5750000000000000e+00 -5.1124710337727040e+00 5.9712269673627354e+00 -1.1005750706711837e-03 1 0 0
92 1 2 2.1000000000000001e+00 -9.5400750826900236e+00 4.3808726655238566e+00 2.7520886312657993e+00 1 0 0
93 1 2 2.1000000000000001e+00 -9.4578779728056119e+00 7.3355202382622302e+00 2.7596041587940974e+00 1 0 0
94 1 3 -1.0500000000000000e+00 -9.6843493213260725e+00 4.4515687309881606e+00 1.1367428848243328e+00 1 0 0
95 1 3 -1.0500000000000000e+00 -9.3190360046761604e+00 7.2397555503813784e+00 1.1381283743765493e+00 1 0 0
96 1 4 -9.4999999999999996e-01 -6.7941318287943044e+00 6.0570110449549759e+00 1.0189986124375956e+00 1 0 0
97 1 3 -1.0500000000000000e+00 -8.1515984802680244e+00 8.0357874501742721e+00 3.2377029421208778e+00 1 0 0
98 1 3 -1.0500000000000000e+00 -9.5751378881570002e+00 5.8613657458809421e+00 3.2369051279403411e+00 1 0 0
99 1 3 -1.0500000000000000e+00 -1.0720608192402096e+01 8.1930901284224831e+00 3.0393178234034188e+00 1 0 0
100 1 5 4.2499999999999999e-01 -7.2987396846922490e+00 5.1916297578326613e+00 1.2344582686008589e+00 1 0 0
101 1 1 1.5750000000000000e+00 -7.7034308104540345e+00 7.4772140769486413e+00 -5.6197731413192287e-03 1 0 0
102 1 2 2.1000000000000001e+00 -8.4921119129382436e+00 1.0182970310578554e-01 -2.7586972291666285e+00 1 0 0
103 1 2 2.1000000000000001e+00 -8.5178789427259556e+00 6.1129672105684811e+00 -2.7662420541728974e+00 1 0 0
104 1 3 -1.0500000000000000e+00 -8.2916269406042815e+00 8.9970574537439134e+00 -1.1432477637342799e+00 1 0 0
105 1 3 -1.0500000000000000e+00 -8.6565431334381540e+00 6.2086700919000997e+00 -1.1446559772339153e+00 1 0 0
106 1 4 -9.4999999999999996e-01 -6.0213736470209289e+00 7.3920169164383012e+00 -1.0249968704970076e+00 1 0 0
107 1 3 -1.0500000000000000e+00 -4.6640665339764151e+00 5.4126315535304492e+00 -3.2442609407384317e+00 1 0 0
108 1 3 -1.0500000000000000e+00 -8.4007493355621392e+00 7.5872053220556950e+00 -3.2434325373540069e+00 1 0 0
109 1 3 -1.0500000000000000e+00 -7.2549763508011527e+00 5.2556901927825770e+00 -3.0461113024904209e+00 1 0 0
110 1 5 4.2499999999999999e-01 -5.5164249475720561e+00 8.2580855166510574e+00 -1.2372386431255986e+00 1 0 0
111 1 1 1.5750000000000000e+00 -1.0311595596909763e+01 2.9942785375934520e+00 -5.6010879733605634e-03 1 0 0
112 1 2 2.1000000000000001e+00 -5.8839277840350794e+00 4.5847597474795627e+00 -2.7587147329177935e+00 1 0 0
113 1 2 2.1000000000000001e+00 -5.9660640139885333e+00 1.6300766033495755e+00 -2.7662298309066697e+00 1 0 0
114 1 3 -1.0500000000000000e+00 -5.7397721868746547e+00 4.5141858483596486e+00 -1.1432542008572852e+00 1 0 0
115 1 3 -1.0500000000000000e+00 -6.1047441414010697e+00 1.7257910143984674e+00 -1.1446453815549233e+00 1 0 0
116 1 4 -9.4999999999999996e-01 -8.6295822895689920e+00 2.9090779511777676e+00 -1.0250302130375939e+00 1 0 0
117 1 3 -1.0500000000000000e+00 -7.2722489263206986e+00 9.2973628122143026e-01 -3.2442411958593489e+00 1 0 0
118 1 3 -1.0500000000000000e+00 -5.8489208202980265e+00 3.1042509548662487e+00 -3.2434183592489791e+00 1 0 0
119 1 3 -1.0500000000000000e+00 -4.7031825360221502e+00 7.7276491102555767e-01 -3.0460656077210357e+00 1 0 0
120 1 5 4.2499999999999999e-01 -8.1246457266301864e+00 3.7750624151061807e+00 -1.2375138030883610e+00 1 0 0
121 1 1 1.5750000000000000e+00 -2.5606329385739004e+00 1.4882876387506627e+00 -1.0802971591790111e-03 1 0 0
122 1 2 2.1000000000000001e+00 -1.7718921832935095e+00 8.8638064760312680e+00 2.7520727645518317e+00 1 0 0
123 1 2 2.1000000000000001e+00 -1.7460630957075320e+00 2.8526261301782654e+00 2.7596182888033560e+00 1 0 0
124 1 3 -1.0500000000000000e+00 -1.9724962744006582e+00 -3.1302525320935359e-02 1.1367406594669021e+00 1 0 0
125 1 3 -1.0500000000000000e+00 -1.6072398016960410e+00 2.7568655221939551e+00 1.1381416172788992e+00 1 0 0
126 1 4 -9.4999999999999996e-01 -4.2423468629791490e+00 1.5740570781575833e+00 1.0189509285491933e+00 1 0 0
127 1 3 -1.0500000000000000e+00 -5.5997821570648973e+00 3.5528937411991670e+00 3.2377242628374425e+00 1 0 0
128 1 3 -1.0500000000000000e+00 -1.8633136078718611e+00 1.3784018887914193e+00 3.2369255823977880e+00 1 0 0
129 1 3 -1.0500000000000000e+00 -3.0088127134797826e+00 3.7101647071782331e+00 3.0393572972698379e+00 1 0 0
130 1 5 4.2499999999999999e-01 -4.7469759999778125e+00 7.0856900200933737e-01 1.2340771581365360e+00 1 0 0
131 1 1 1.5750000000000000e+00 4.7533764258004041e-02 5.9712249082954791e+00 -1.0980032702558873e-03 1 0 0
132 1 2 2.1000000000000001e+00 -4.3800778559486355e+00 4.3808730955712392e+00 2.7520867646571521e+00 1 0 0
133 1 2 2.1000000000000001e+00 -4.2978813666723550e+00 7.3355189936402283e+00 2.7596038854553466e+00 1 0 0
134 1 3 -1.0500000000000000e+00 -4.5243507576301081e+00 4.4515670379929304e+00 1.1367428603445937e+00 1 0 0
135 1 3 -1.0500000000000000e+00 -4.1590395183545183e+00 7.2397536991140861e+00 1.1381282657041645e+00 1 0 0
136 1 4 -9.4999999999999996e-01 -1.6341272396600957e+00 6.0570237762126418e+00 1.0190134201552699e+00 1 0 0
137 1 3 -1.0500000000000000e+00 -2.9915950681060766e+00 8.0357879652451025e+00 3.2377031654102684e+00 1 0 0
138 1 3 -1.0500000000000000e+00 -4.4151372958651747e+00 5.8613630169435886e+00 3.2369046247973667e+00 1 0 0
139 1 3 -1.0500000000000000e+00 -5.5606088011257127e+00 8.1930870861008209e+00 3.0393206313569685e+00 1 0 0
140 1 5 4.2499999999999999e-01 -2.1387086319686546e+00 5.1916539522099150e+00 1.2345711189225028e+00 1 0 0
141 1 1 1.5750000000000000e+00 -2.5434257506591189e+00 7.4772111640629149e+00 -5.6166073635797176e-03 1 0 0
142 1 2 2.1000000000000001e+00 -3.3321080973339834e+00 1.0183053426608524e-01 -2.7586955337533938e+00 1 0 0
143 1 2 2.1000000000000001e+00 -3.3578756775438610e+00 6.1129677881450775e+00 -2.7662419312279969e+00 1 0 0
144 1 3 -1.0500000000000000e+00 -3.1316261087441042e+00 8.9970596129863871e+00 -1.1432480013029860e+00 1 0 0
145 1 3 -1.0500000000000000e+00 -3.4965397924140653e+00 6.2086715233472134e+00 -1.1446562154372266e+00 1 0 0
146 1 4 -9.4999999999999996e-01 -8.6136969835578370e-01 7.3920295019150544e+00 -1.0249827983121680e+00 1 0 0
147 1 3 -1.0500000000000000e+00 4.9593486485604110e-01 5.4126301727891821e+00 -3.2442607643276054e+00 1 0 0
148 1 3 -1.0500000000000000e+00 -3.2407499951325498e+00 7.5872078587173846e+00 -3.2434313976945433e+00 1 0 0
149 1 3 -1.0500000000000000e+00 -2.0949760055733631e+00 5.2556933239404167e+00 -3.0461145312557329e+00 1 0 0
150 1 5 4.2499999999999999e-01 -3.5639556828485119e-01 8.2581075202862202e+00 -1.2371324129475632e+00 1 0 0
151 1 1 1.5750000000000000e+00 -5.1516025778253747e+00 2.9942806292952824e+00 -5.6020314364904067e-03 1 0 0
152 1 2 2.1000000000000001e+00 -7.2392846989897031e-01 4.5847591850911407e+00 -2.7587123572021817e+00 1 0 0
153 1 2 2.1000000000000001e+00 -8.0606124093459997e-01 1.6300756900441478e+00 -2.7662282754379124e+00 1 0 0
154 1 3 -1.0500000000000000e+00 -5.7977714984581930e-01 4.5141882260288142e+00 -1.1432523173441691e+00 1 0 0
155 1 3 -1.0500000000000000e+00 -9.4474362669159540e-01 1.7257867957754662e+00 -1.1446438349685657e+00 1 0 0
156 1 4 -9.4999999999999996e-01 -3.4695751862629614e+00 2.9090849623510024e+00 -1.0250227718480005e+00 1 0 0
157 1 3 -1.0500000000000000e+00 -2.1122520231077235e+00 9.2973734613946490e-01 -3.2442422530911523e+00 1 0 0
158 1 3 -1.0500000000000000e+00 -6.8892351775213534e-01 3.1042507000580102e+00 -3.2434160931881308e+00 1 0 0
159 1 3 -1.0500000000000000e+00 4.5682015302910983e-01 7.7276675239134107e-01 -3.0460702154371067e+00 1 0 0
160 1 5 4.2499999999999999e-01 -2.9646266683981821e+00 3.7750790184820460e+00 -1.2374424236664838e+00 1 0 0
161 1 1 1.5750000000000000e+00 2.6556818821090964e+00 1.0454139317685271e+01 -1.0967487592186131e-03 0 0 0
162 1 2 2.1000000000000001e+00 3.2190883901663732e+00 -1.8033682997326732e+01 2.7520792634058324e+00 0 1 0
163 1 2 2.1000000000000001e+00 3.4702724007933625e+00 1.1818456050027734e+01 2.7596095643846965e+00 0 0 0
164 1 3 -1.0500000000000000e+00 3.2438190247714367e+00 8.9345087495768887e+00 1.1367286810172814e+00 0 0 0
165 1 3 -1.0500000000000000e+00 3.6091019184592668e+00 1.1722713133488707e+01 1.1381300087342048e+00 0 0 0
166 1 4 -9.4999999999999996e-01 9.7403525154598114e-01 1.0539969137000679e+01 1.0190361573885678e+00 0 0 0
167 1 3 -1.0500000000000000e+00 -3.8344098619301015e-01 1.2518709381128804e+01 3.2377129561903750e+00 0 0 0
168 1 3 -1.0500000000000000e+00 3.3530346120893668e+00 1.0344256721199777e+01 3.2368964278836216e+00 0 0 0
169 1 3 -1.0500000000000000e+00 2.2075261249614506e+00 1.2675984414385344e+01 3.0393755293097939e+00 0 0 0
170 1 5 4.2499999999999999e-01 4.6946947232569691e-01 9.6746169226990908e+00 1.2347503550646231e+00 0 0 0
171 1 1 1.5750000000000000e+00 5.2638682461479931e+00 1.4937024367958717e+01 -1.0830929787566390e-03 0 0 0
172 1 2 2.1000000000000001e+00 8.3627348727016582e-01 1.3346719747969363e+01 2.7520900367341774e+00 0 0 0
173 1 2 2.1000000000000001e+00 9.1844390475228010e-01 1.6301351155347096e+01 2.7596146755120223e+00 0 0 0
174 1 3 -1.0500000000000000e+00 6.9200904179799849e-01 1.3417418895837162e+01 1.1367448072616178e+00 0 0 0
175 1 3 -1.0500000000000000e+00 1.0572750533869613e+00 1.6205584802874231e+01 1.1381396583081482e+00 0 0 0
176 1 4 -9.4999999999999996e-01 3.5821591649189308e+00 1.5022772754878350e+01 1.0189362598570391e+00 0 0 0
177 1 3 -1.0500000000000000e+00 2.2247238837666679e+00 1.7001626385194026e+01 3.2377190326894834e+00 0 0 0
178 1 3 -1.0500000000000000e+00 8.0118846368444352e-01 1.4827145539656680e+01 3.2369273314691132e+00 0 0 0
179 1 3 -1.0500000000000000e+00 -3.4429783416864623e-01 1.7158905791057652e+01 3.0393359488930063e+00 0 0 0
180 1 5 4.2499999999999999e-01 3.0775120285271527e+00 1.4157276685022456e+01 1.2339704188105145e+00 0 0 0
181 1 1 1.5750000000000000e+00 2.6728962897491595e+00 1.6443030737972894e+01 -5.6130056081560298e-03 0 0 0
182 1 2 2.1000000000000001e+00 1.8842162783347014e+00 9.0676400472734358e+00 -2.7587067354302466e+00 0 0 0
183 1 2 2.1000000000000001e+00 1.8584430112652637e+00 1.5078808460300461e+01 -2.7662346501713060e+00 0 0 0
184 1 3 -1.0500000000000000e+00 1.8593747354599621e+00 -1.7900383824518766e+01 -1.1432557087206643e+00 0 1 0
185 1 3 -1.0500000000000000e+00 1.7197671926689502e+00 1.5174523882890096e+01 -1.1446509888927761e+00 0 0 0
186 1 4 -9.4999999999999996e-01 4.3549452942679565e+00 1.6357848451105280e+01 -1.0249948286125878e+00 0 0 0
187 1 3 -1.0500000000000000e+00 5.7122579118579146e+00 1.4378464668268730e+01 -3.2442496238843814e+00 0 0 0
188 1 3 -1.0500000000000000e+00 1.9755855592791320e+00 1.6553006355938908e+01 -3.2434313676473057e+00 0 0 0
189 1 3 -1.0500000000000000e+00 3.1213317655781960e+00 1.4221501186880683e+01 -3.0460712151507545e+00 0 0 0
190 1 5 4.2499999999999999e-01 4.8599000881537826e+00 1.7223900425388404e+01 -1.2372316785225088e+00 0 0 0
191 1 1 1.5750000000000000e+00 6.4751958332497139e-02 1.1960086179452826e+01 -5.5940253527388961e-03 0 0 0
192 1 2 2.1000000000000001e+00 4.4924009282296247e+00 1.3550578140910872e+01 -2.7587007070121921e+00 0 0 0
193 1 2 2.1000000000000001e+00 4.4102752196003863e+00 1.0595884839261831e+01 -2.7662291626403626e+00 0 0 0
194 1 3 -1.0500000000000000e+00 4.6365759504820634e+00 1.3479998807602311e+01 -1.1432425507490294e+00 0 0 0
195 1 3 -1.0500000000000000e+00 4.2715994293334454e+00 1.0691581675818046e+01 -1.1446410827572890e+00 0 0 0
196 1 4 -9.4999999999999996e-01 1.7467323627051137e+00 1.1874836178893101e+01 -1.0250877304956010e+00 0 0 0
197 1 3 -1.0500000000000000e+00 3.1040856453427352e+00 9.8955602020005813e+00 -3.2442403996714972e+00 0 0 0
198 1 3 -1.0500000000000000e+00 4.5274060012281065e+00 1.2070063409836187e+01 -3.2434000150922735e+00 0 0 0
199 1 3 -1.0500000000000000e+00 5.6731636207942486e+00 9.7385956733565244e+00 -3.0460988419800330e+00 0 0 0
200 1 5 4.2499999999999999e-01 2.2516283969072273e+00 1.2740742133603828e+01 -1.2379506508609781e+00 0 0 0
201 1 1 1.5750000000000000e+00 7.8156893616331828e+00 1.0454137088473082e+01 -1.0955111275805507e-03 0 0 0
202 1 2 2.1000000000000001e+00 -1.2260912502451882e+01 -1.8033684121902734e+01 2.7520815974654695e+00 1 1 0
203 1 2 2.1000000000000001e+00 -1.2009724236432007e+01 1.1818456368836152e+01 2.7596111897949385e+00 1 0 0
204 1 3 -1.0500000000000000e+00 8.4038140943966368e+00 8.9345113147968043e+00 1.1367312931978493e+00 0 0 0
205 1 3 -1.0500000000000000e+00 -1.1870897365188386e+01 1.1722708787330966e+01 1.1381317133583817e+00 1 0 0
206 1 4 -9.4999999999999996e-01 6.1340280078189942e+00 1.0539962575114235e+01 1.0190296172793811e+00 0 0 0
207 1 3 -1.0500000000000000e+00 4.7765633472017175e+00 1.2518709397228395e+01 3.2377142920171860e+00 0 0 0
208 1 3 -1.0500000000000000e+00 -1.2126968373801200e+01 1.0344255623715938e+01 3.2368988134331111e+00 1 0 0
209 1 3 -1.0500000000000000e+00 7.3675282518155782e+00 1.2675986281628141e+01 3.0393708032009918e+00 0 0 0
210 1 5 4.2499999999999999e-01 5.6294525251353491e+00 9.6746021216973723e+00 1.2346860554186367e+00 0 0 0
211 1 1 1.5750000000000000e+00 -1.0216126765500446e+01 1.4937021698072794e+01 -1.0804571915681294e-03 1 0 0
212 1 2 2.1000000000000001e+00 5.9962693813004755e+00 1.3346718357487401e+01 2.7520884302740498e+00 0 0 0
213 1 2 2.1000000000000001e+00 6.0784425686717896e+00 1.6301352145254210e+01 2.7596145213284817e+00 0 0 0
214 1 3 -1.0500000000000000e+00 5.8520075816368156e+00 1.3417417209742045e+01 1.1367453979659494e+00 0 0 0
215 1 3 -1.0500000000000000e+00 6.2172711652894392e+00 1.6205582997226156e+01 1.1381400867322924e+00 0 0 0
216 1 4 -9.4999999999999996e-01 -1.1897836054868892e+01 1.5022786314249299e+01 1.0189507923373213e+00 1 0 0
217 1 3 -1.0500000000000000e+00 7.3847241452337329e+00 1.7001624783744415e+01 3.2377191729581032e+00 0 0 0
218 1 3 -1.0500000000000000e+00 5.9611885897234238e+00 1.4827142204243398e+01 3.2369270002236199e+00 0 0 0
219 1 3 -1.0500000000000000e+00 4.8157014817288921e+00 1.7158902704342633e+01 3.0393389989495638e+00 0 0 0
220 1 5 4.2499999999999999e-01 8.2375429461726419e+00 1.4157300311477027e+01 1.2340837858505793e+00 0 0 0
221 1 1 1.5750000000000000e+00 7.8329018338411949e+00 1.6443028121723327e+01 -5.6100773936336168e-03 0 0 0
222 1 2 2.1000000000000001e+00 7.0442203430868133e+00 9.0676404834672937e+00 -2.7587051720268496e+00 0 0 0
223 1 2 2.1000000000000001e+00 7.0184458690821359e+00 1.5078808448004967e+01 -2.7662344750219390e+00 0 0 0
224 1 3 -1.0500000000000000e+00 7.0193755008091827e+00 -1.7900382144787855e+01 -1.1432558848603609e+00 0 1 0
225 1 3 -1.0500000000000000e+00 6.8797708305099192e+00 1.5174525646707149e+01 -1.1446511126747918e+00 0 0 0
226 1 4 -9.4999999999999996e-01 -1.1125050731138488e+01 1.6357860900902505e+01 -1.0249808380157237e+00 1 0 0
227 1 3 -1.0500000000000000e+00 -9.7677403920054449e+00 1.4378463591820999e+01 -3.2442496211494918e+00 1 0 0
228 1 3 -1.0500000000000000e+00 7.1355847058613584e+00 1.6553008836399872e+01 -3.2434306502393415e+00 0 0 0
229 1 3 -1.0500000000000000e+00 8.2813321720628821e+00 1.4221504404451952e+01 -3.0460741300753185e+00 0 0 0
230 1 5 4.2499999999999999e-01 -1.0620070568908549e+01 1.7223922518014870e+01 -1.2371248265838757e+00 1 0 0
231 1 1 1.5750000000000000e+00 5.2247450830562165e+00 1.1960087963897653e+01 -5.5952218029862166e-03 0 0 0
232 1 2 2.1000000000000001e+00 -1.0987599973565146e+01 1.3550576905434923e+01 -2.7586985908013846e+00 1 0 0
233 1 2 2.1000000000000001e+00 -1.1069721131969022e+01 1.0595884194424993e+01 -2.7662274903218655e+00 1 0 0
234 1 3 -1.0500000000000000e+00 -1.0843428909969546e+01 1.3480001106285169e+01 -1.1432405923923277e+00 1 0 0
235 1 3 -1.0500000000000000e+00 -1.1208400116673181e+01 1.0691577426474574e+01 -1.1446395001093119e+00 1 0 0
236 1 4 -9.4999999999999996e-01 6.9067401423823966e+00 1.1874843567670599e+01 -1.0250803468076732e+00 0 0 0
237 1 3 -1.0500000000000000e+00 8.2640815008668724e+00 9.8955607832155152e+00 -3.2442416068615270e+00 0 0 0
238 1 3 -1.0500000000000000e+00 -1.0952596684000325e+01 1.2070063438815009e+01 -3.2433976923455790e+00 1 0 0
239 1 3 -1.0500000000000000e+00 -9.8068349057340996e+00 9.7385976839622721e+00 -3.0461032972181128e+00 1 0 0
240 1 5 4.2499999999999999e-01 7.4116471684275176e+00 1.2740758474319527e+01 -1.2378788260679467e+00 0 0 0
241 1 1 1.5750000000000000e+00 -7.6643179426497525e+00 1.0454139419937150e+01 -1.0962229039090943e-03 1 0 0
242 1 2 2.1000000000000001e+00 -7.1009118316832343e+00 -1.8033684438409352e+01 2.7520791275920509e+00 1 1 0
243 1 2 2.1000000000000001e+00 -6.8497278061126945e+00 1.1818456215583829e+01 2.7596097726734108e+00 1 0 0
244 1 3 -1.0500000000000000e+00 -7.0761809550557970e+00 8.9345089461886964e+00 1.1367286776553360e+00 1 0 0
245 1 3 -1.0500000000000000e+00 -6.7108981539992012e+00 1.1722712925609560e+01 1.1381300943841577e+00 1 0 0
246 1 4 -9.4999999999999996e-01 -9.3459642299118482e+00 1.0539969495434978e+01 1.0190365296880355e+00 1 0 0
247 1 3 -1.0500000000000000e+00 -1.0703441171752413e+01 1.2518709623233921e+01 3.2377133170104671e+00 1 0 0
248 1 3 -1.0500000000000000e+00 -6.9669653989505278e+00 1.0344256930017146e+01 3.2368965623591759e+00 1 0 0
249 1 3 -1.0500000000000000e+00 -8.1124740218176914e+00 1.2675984357684172e+01 3.0393755219123175e+00 1 0 0
250 1 5 4.2499999999999999e-01 -9.8505304823245687e+00 9.6746170371754623e+00 1.2347510489464995e+00 1 0 0
251 1 1 1.5750000000000000e+00 -5.0561316803539889e+00 1.4937024268043505e+01 -1.0829065734565546e-03 1 0 0
252 1 2 2.1000000000000001e+00 -9.4837259053398899e+00 1.3346719962723810e+01 2.7520900108513082e+00 1 0 0
253 1 2 2.1000000000000001e+00 -9.4015551966123336e+00 1.6301350642789163e+01 2.7596147867214107e+00 1 0 0
254 1 3 -1.0500000000000000e+00 -9.6279910381059679e+00 1.3417418875038809e+01 1.1367446598910824e+00 1 0 0
255 1 3 -1.0500000000000000e+00 -9.2627250986713108e+00 1.6205584991793625e+01 1.1381398148417947e+00 1 0 0
256 1 4 -9.4999999999999996e-01 -6.7378409974283313e+00 1.5022773040573416e+01 1.0189360574966457e+00 1 0 0
257 1 3 -1.0500000000000000e+00 -8.0952765293247868e+00 1.7001626509746554e+01 3.2377188951214659e+00 1 0 0
258 1 3 -1.0500000000000000e+00 -9.5188119224387648e+00 1.4827145992564279e+01 3.2369272786018328e+00 1 0 0
259 1 3 -1.0500000000000000e+00 -1.0664297889974348e+01 1.7158906077131672e+01 3.0393361196823427e+00 1 0 0
260 1 5 4.2499999999999999e-01 -7.2424879190792639e+00 1.4157276762729641e+01 1.2339705980408517e+00 1 0 0
261 1 1 1.5750000000000000e+00 -7.6471035513231538e+00 1.6443030607589659e+01 -5.6125884183728658e-03 1 0 0
262 1 2 2.1000000000000001e+00 -8.4357826338081772e+00 9.0676404123257832e+00 -2.7587070775740408e+00 1 0 0
263 1 2 2.1000000000000001e+00 -8.4615566925045371e+00 1.5078808796634203e+01 -2.7662348683445597e+00 1 0 0
264 1 3 -1.0500000000000000e+00 -8.4606253957796245e+00 -1.7900383839740815e+01 -1.1432555267487441e+00 1 1 0
265 1 3 -1.0500000000000000e+00 -8.6002330838050476e+00 1.5174523645600292e+01 -1.1446511932328676e+00 1 0 0
266 1 4 -9.4999999999999996e-01 -5.9650547142172607e+00 1.6357848553350390e+01 -1.0249949313794904e+00 1 0 0
267 1 3 -1.0500000000000000e+00 -4.6077428484131735e+00 1.4378463759301493e+01 -3.2442497119880169e+00 1 0 0
268 1 3 -1.0500000000000000e+00 -8.3444145492062560e+00 1.6553005185437367e+01 -3.2434310483664923e+00 1 0 0
269 1 3 -1.0500000000000000e+00 -7.1986685645277566e+00 1.4221501454485075e+01 -3.0460709514638733e+00 1 0 0
270 1 5 4.2499999999999999e-01 -5.4600998588816294e+00 1.7223900322661347e+01 -1.2372318792667087e+00 1 0 0
271 1 1 1.5750000000000000e+00 -1.0255247970690887e+01 1.1960086333452317e+01 -5.5943668067435226e-03 1 0 0
272 1 2 2.1000000000000001e+00 -5.8275988002349521e+00 1.3550577809482188e+01 -2.7587009813069550e+00 1 0 0
273 1 2 2.1000000000000001e+00 -5.9097244493462071e+00 1.0595884450080696e+01 -2.7662291068655538e+00 1 0 0
274 1 3 -1.0500000000000000e+00 -5.6834239852945680e+00 1.3479998862366219e+01 -1.1432428233272507e+00 1 0 0