ITEM: TIMESTEP
0
ITEM: NUMBER OF ATOMS
105
ITEM: BOX BOUNDS
0 25
0 25
0 25
ITEM: ATOMS id type xs ys zs
18 2 0.0097 0.0365416 0.0441532
19 1 0.03889 0.0670036 0.0559188
27 1 0.11238 0.009568 0.0141632
20 1 0.994945 0.04753 0.004404
21 1 0.975939 0.0394548 0.071852
94 3 0.136893 0.443018 0.230852
95 3 0.155468 0.43812 0.184019
88 3 0.726607 0.189382 0.352771
89 3 0.746188 0.182916 0.306548
7 1 0.431916 0.493418 0.464118
11 2 0.528918 0.457126 0.49888
12 1 0.513543 0.435666 0.464151
14 2 0.591905 0.458055 0.498843
15 1 0.608418 0.417523 0.498942
16 1 0.60782 0.478538 0.463551
41 1 0.0417584 0.497626 0.70266
6 1 0.431917 0.493418 0.533615
13 1 0.513584 0.435702 0.533648
17 1 0.607859 0.478726 0.534007
104 3 0.978822 0.296888 0.569999
105 3 0.977272 0.294841 0.51945
57 1 0.38305 0.240438 0.893212
96 3 0.477595 0.197654 0.834423
97 3 0.519522 0.219119 0.815822
45 2 0.0267512 0.476332 0.808753
46 1 0.037984 0.441358 0.785232
48 2 0.04765 0.471427 0.867982
49 1 0.031746 0.435649 0.88755
50 1 0.0913496 0.468865 0.869628
66 1 0.232738 0.362598 0.868724
52 2 0.4567 0.286588 0.910401
53 1 0.469946 0.291336 0.868934
54 1 0.468862 0.322645 0.932022
55 1 0.478988 0.252991 0.927423
56 2 0.394528 0.27699 0.914072
58 1 0.381972 0.271323 0.955464
59 2 0.366956 0.327577 0.888498
60 1 0.37834 0.36424 0.909208
61 1 0.379423 0.333432 0.847111
62 2 0.304984 0.316853 0.892736
63 1 0.292702 0.311028 0.934189
64 1 0.293787 0.280188 0.871918
65 2 0.276277 0.366903 0.867452
67 1 0.286366 0.403853 0.888688
68 1 0.287597 0.372652 0.825534
98 3 0.563458 0.38032 0.832322
99 3 0.56378 0.427295 0.813457
47 1 0.983178 0.47777 0.807587
92 3 0.876216 0.46172 0.792954
93 3 0.830455 0.464767 0.814403
76 2 0.122129 0.594972 0.0104544
77 1 0.149623 0.58186 0.0416808
78 1 0.132397 0.636692 0.0029028
79 2 0.0620232 0.588784 0.0284052
80 1 0.0519456 0.547012 0.0359204
82 2 0.05514 0.623453 0.080552
83 1 0.0141364 0.621411 0.0957188
84 1 0.0816248 0.609878 0.112684
85 1 0.0642816 0.665671 0.0733044
22 2 0.0347776 0.978758 0.0446032
23 1 0.0484188 0.967908 0.0845936
24 1 0.0050716 0.948701 0.0337812
25 2 0.0825816 0.979532 0.00353
28 2 0.106814 0.92136 0.0048684
30 1 0.120255 0.910713 0.04498
1 2 0.426892 0.574734 0.498866
3 1 0.440978 0.59662 0.463638
4 1 0.383173 0.576792 0.498866
5 2 0.447014 0.515043 0.498866
8 2 0.510005 0.517254 0.498865
9 1 0.525296 0.53887 0.464194
35 2 0.0551716 0.585164 0.701098
36 1 0.0433572 0.620878 0.723527
37 1 0.098954 0.583991 0.700903
38 1 0.042104 0.590849 0.659717
39 2 0.03051 0.532775 0.725914
2 1 0.440978 0.59662 0.534093
10 1 0.525296 0.538884 0.533527
40 1 0.986918 0.534012 0.72498
100 3 0.138098 0.797258 0.655586
101 3 0.114513 0.784105 0.612774
103 3 0.482637 0.846594 0.569695
102 3 0.514003 0.878115 0.545518
42 2 0.0520452 0.52897 0.785032
43 1 0.0956428 0.527754 0.786179
44 1 0.0409344 0.564068 0.808442
51 1 0.0358464 0.505908 0.892272
69 2 0.187619 0.565336 0.939429
70 1 0.198146 0.606912 0.930556
71 1 0.215665 0.551204 0.969955
72 1 0.195006 0.542 0.90315
73 2 0.127791 0.559919 0.958372
74 1 0.10024 0.573201 0.927265
75 1 0.117521 0.518236 0.966138
81 1 0.03469 0.602001 0.99708
86 3 0.340663 0.522003 0.897491
87 3 0.377586 0.54882 0.875537
26 1 0.0691384 0.990391 0.963473
29 1 0.0768816 0.891472 0.994201
31 2 0.154811 0.920883 0.964053
32 1 0.17407 0.881629 0.962606
33 1 0.141633 0.930476 0.923404
34 1 0.185574 0.950124 0.974848
90 3 0.257421 0.813648 0.99202
91 3 0.257959 0.812648 0.941397
ITEM: TIMESTEP
30
ITEM: NUMBER OF ATOMS
105
ITEM: BOX BOUNDS
0 25
0 25
0 25
ITEM: ATOMS id type xs ys zs
18 2 0.00937076 0.0367917 0.0443399
19 1 0.0392865 0.0666041 0.0560555
27 1 0.112563 0.00869584 0.0157483
20 1 0.995044 0.046987 0.00418757
21 1 0.975607 0.0410635 0.0715217
94 3 0.136905 0.443042 0.230771
95 3 0.155436 0.438172 0.184016
88 3 0.726616 0.189381 0.352736
89 3 0.74617 0.182922 0.306584
7 1 0.432546 0.49359 0.46375
11 2 0.529406 0.457042 0.498886
12 1 0.513495 0.43632 0.463792
14 2 0.592271 0.457773 0.498847
15 1 0.610023 0.41801 0.498881
16 1 0.607272 0.478632 0.463344
41 1 0.0421444 0.497487 0.703117
6 1 0.432565 0.49359 0.533993
13 1 0.513596 0.436404 0.534069
17 1 0.607264 0.478699 0.534314
104 3 0.97883 0.296901 0.569972
105 3 0.97728 0.294852 0.519499
57 1 0.38383 0.240944 0.89213
96 3 0.477609 0.197521 0.8343
97 3 0.519401 0.219055 0.815887
45 2 0.0267941 0.476208 0.809243
46 1 0.0382293 0.441644 0.784969
48 2 0.0476202 0.471178 0.868322
49 1 0.0323999 0.43591 0.888843
50 1 0.0913082 0.469252 0.869307
66 1 0.232481 0.364312 0.868032
52 2 0.457165 0.286744 0.910597
53 1 0.469443 0.292128 0.868703
54 1 0.468567 0.322924 0.932203
55 1 0.480711 0.253459 0.92637
56 2 0.395135 0.277051 0.914071
58 1 0.381745 0.271853 0.955379
59 2 0.366789 0.327261 0.888645
60 1 0.377685 0.363656 0.910449
61 1 0.378936 0.331677 0.846786
62 2 0.304706 0.317226 0.892547
63 1 0.293334 0.311421 0.934384
64 1 0.294455 0.280321 0.871421
65 2 0.275938 0.367154 0.867388
67 1 0.287189 0.403603 0.888843
68 1 0.288115 0.372228 0.825581
98 3 0.563335 0.380317 0.832374
99 3 0.563728 0.427183 0.813503
47 1 0.98316 0.478565 0.808121
92 3 0.876318 0.461781 0.792986
93 3 0.830649 0.464783 0.81436
76 2 0.121824 0.594704 0.0102247
77 1 0.148704 0.580035 0.0416032
78 1 0.131223 0.636664 0.00168681
79 2 0.0618923 0.589025 0.028797
80 1 0.0528586 0.54688 0.0362315
82 2 0.0548539 0.62354 0.0808689
83 1 0.0144479 0.62228 0.0970846
84 1 0.0817549 0.60904 0.11226
85 1 0.0644556 0.665539 0.0728565
22 2 0.0345264 0.979173 0.044663
23 1 0.049085 0.968178 0.0844283
24 1 0.00527359 0.948775 0.0330769
25 2 0.0824533 0.97917 0.00377933
28 2 0.107268 0.921256 0.00453115
30 1 0.120645 0.911426 0.0450054
1 2 0.426516 0.575004 0.498874
3 1 0.441243 0.596176 0.463425
4 1 0.383097 0.57853 0.498859
5 2 0.446775 0.515475 0.49887
8 2 0.509747 0.516886 0.498867
9 1 0.524439 0.537651 0.463156
35 2 0.0551683 0.585431 0.700702
36 1 0.0429886 0.620672 0.723766
37 1 0.098977 0.58361 0.701058
38 1 0.0430212 0.59244 0.659449
39 2 0.0306136 0.533153 0.725665
2 1 0.441229 0.596192 0.534307
10 1 0.524431 0.537664 0.534572
40 1 0.986912 0.534241 0.725872
100 3 0.138063 0.797209 0.655569
101 3 0.114518 0.784074 0.612828
103 3 0.482661 0.846601 0.56967
102 3 0.513975 0.878078 0.545537
42 2 0.0517523 0.528671 0.784836
43 1 0.0955032 0.526306 0.78534
44 1 0.0390845 0.563555 0.80814
51 1 0.0345797 0.50591 0.891632
69 2 0.188004 0.565192 0.939052
70 1 0.197984 0.607085 0.930662
71 1 0.21555 0.551051 0.970145
72 1 0.197176 0.542575 0.902942
73 2 0.128247 0.559924 0.958143
74 1 0.100406 0.574227 0.92762
75 1 0.117564 0.51846 0.96699
81 1 0.0352424 0.602294 0.99677
86 3 0.340558 0.521917 0.897464
87 3 0.377386 0.548674 0.875619
26 1 0.0680315 0.988944 0.963557
29 1 0.0765893 0.891967 0.9938
31 2 0.155231 0.920481 0.963877
32 1 0.175532 0.882048 0.961791
33 1 0.141351 0.930221 0.92342
34 1 0.185621 0.949946 0.975542
90 3 0.257278 0.81371 0.991964
91 3 0.257831 0.812712 0.941475
ITEM: TIMESTEP
60
ITEM: NUMBER OF ATOMS
105
ITEM: BOX BOUNDS
0 25
0 25
0 25
ITEM: ATOMS id type xs ys zs
18 2 0.00889787 0.037583 0.0444412
19 1 0.0381839 0.0681244 0.0554802
27 1 0.111492 0.00894986 0.0133554
20 1 0.9948 0.0488749 0.00462234
21 1 0.974732 0.041604 0.0720636
94 3 0.136867 0.443131 0.230722
95 3 0.155414 0.438304 0.183825
88 3 0.726579 0.1894 0.352785
89 3 0.746184 0.182919 0.306537
7 1 0.430142 0.494508 0.464622
11 2 0.530038 0.45651 0.498915
12 1 0.515056 0.434278 0.464735
14 2 0.593192 0.457598 0.498862
15 1 0.610913 0.417182 0.49872
16 1 0.609174 0.478916 0.46418
41 1 0.0410538 0.49898 0.701084
6 1 0.430159 0.494506 0.533158
13 1 0.515162 0.434408 0.533231
17 1 0.609184 0.478642 0.533709
104 3 0.978859 0.296945 0.570058
105 3 0.977299 0.294879 0.519476
57 1 0.386033 0.240202 0.893345
96 3 0.477378 0.197008 0.834069
97 3 0.519324 0.21901 0.815958
45 2 0.0265024 0.475683 0.809889
46 1 0.0365627 0.440242 0.786918
48 2 0.047548 0.471008 0.869244
49 1 0.0332969 0.434491 0.889502
50 1 0.0913401 0.470827 0.871755
66 1 0.231721 0.365515 0.86823
52 2 0.458411 0.287661 0.91059
53 1 0.470845 0.294951 0.869534
54 1 0.470596 0.323005 0.933614
55 1 0.482295 0.254131 0.925876
56 2 0.396252 0.276966 0.914084
58 1 0.383699 0.269295 0.954986
59 2 0.366443 0.326468 0.888964
60 1 0.378311 0.363682 0.907825
61 1 0.379256 0.333653 0.848153
62 2 0.30409 0.317587 0.892351
63 1 0.29093 0.311505 0.933304
64 1 0.291949 0.281272 0.871828
65 2 0.275758 0.36806 0.867048
67 1 0.286842 0.405051 0.887705
68 1 0.287143 0.373718 0.825235
98 3 0.56298 0.380111 0.8326
99 3 0.563581 0.42706 0.813556
47 1 0.983056 0.476674 0.809413
92 3 0.87684 0.461938 0.792971
93 3 0.830976 0.464843 0.814346
76 2 0.121201 0.594087 0.00975658
77 1 0.149103 0.582359 0.0407974
78 1 0.132905 0.635403 0.00375849
79 2 0.0613624 0.589174 0.0292907
80 1 0.0505648 0.547809 0.0370599
82 2 0.054655 0.623806 0.0816684
83 1 0.0136001 0.622643 0.0977759
84 1 0.0815296 0.610405 0.113486
85 1 0.0647503 0.665872 0.0751638
22 2 0.0339449 0.979582 0.0450126
23 1 0.0466187 0.968808 0.0851361
24 1 0.00387596 0.94987 0.0350256
25 2 0.0821979 0.978271 0.00435006
28 2 0.108066 0.920751 0.0040947
30 1 0.121564 0.909343 0.0437728
1 2 0.4261 0.575864 0.498885
3 1 0.440752 0.597897 0.464086
4 1 0.382109 0.579107 0.498866
5 2 0.446059 0.515933 0.498884
8 2 0.509168 0.516075 0.498871
9 1 0.525151 0.538661 0.465491
35 2 0.0553707 0.586188 0.700198
36 1 0.0440836 0.621747 0.722961
37 1 0.0990591 0.585361 0.700743
38 1 0.0428495 0.592711 0.658416
39 2 0.0305672 0.533669 0.72503
2 1 0.44072 0.597913 0.533705
10 1 0.525152 0.538687 0.532239
40 1 0.987148 0.535074 0.723326
100 3 0.138044 0.797118 0.65567
101 3 0.11445 0.783936 0.612828
103 3 0.482622 0.846512 0.569682
102 3 0.514001 0.87808 0.545507
42 2 0.051002 0.527958 0.784398
43 1 0.0943374 0.528267 0.786582
44 1 0.0415358 0.563161 0.807929
51 1 0.0351489 0.505302 0.893417
69 2 0.189146 0.565181 0.938611
70 1 0.19973 0.606793 0.930698
71 1 0.216866 0.551469 0.969411
72 1 0.197398 0.542135 0.901923
73 2 0.129075 0.559814 0.957379
74 1 0.101909 0.572488 0.925887
75 1 0.118479 0.518132 0.96383
81 1 0.0332126 0.601807 0.99867
86 3 0.340021 0.521501 0.897524
87 3 0.377044 0.548426 0.875714
26 1 0.069885 0.990463 0.964597
29 1 0.0788897 0.89023 0.993899
31 2 0.15638 0.919942 0.963407
32 1 0.176243 0.880562 0.961623
33 1 0.143941 0.929858 0.922723
34 1 0.186505 0.949793 0.973613
90 3 0.256867 0.813894 0.992093
91 3 0.25747 0.812887 0.941409
ITEM: TIMESTEP
90
ITEM: NUMBER OF ATOMS
105
ITEM: BOX BOUNDS
0 25
0 25
0 25
ITEM: ATOMS id type xs ys zs
18 2 0.0087647 0.0384662 0.0442167
19 1 0.0374671 0.0689155 0.0570563
27 1 0.111516 0.00656967 0.0164376
20 1 0.992924 0.0491609 0.00484727
21 1 0.974907 0.0399637 0.0725357
94 3 0.136847 0.443258 0.230546
95 3 0.15534 0.438519 0.183628
88 3 0.726555 0.189419 0.352781
89 3 0.74617 0.182924 0.306544
7 1 0.428873 0.496339 0.464328
11 2 0.531155 0.455939 0.498971
12 1 0.517168 0.433785 0.464397
14 2 0.594141 0.457889 0.498898
15 1 0.609332 0.416411 0.498429
16 1 0.610153 0.47774 0.463326
93 3 0.831609 0.464929 0.814265
6 1 0.428876 0.496348 0.533498
13 1 0.517201 0.433858 0.53361
17 1 0.610285 0.477013 0.534809
104 3 0.9789 0.29701 0.570104
105 3 0.977329 0.294924 0.519528
57 1 0.388947 0.240186 0.892433
96 3 0.477166 0.196307 0.833656
97 3 0.519054 0.218865 0.816133
45 2 0.026183 0.475144 0.811072
46 1 0.0373905 0.439473 0.789078
48 2 0.0476206 0.471306 0.870239
49 1 0.0334214 0.433455 0.888042
50 1 0.0915454 0.470485 0.871288
66 1 0.232292 0.364222 0.869706
52 2 0.459793 0.289399 0.910577
53 1 0.473369 0.297743 0.870104
54 1 0.470977 0.323275 0.936265
55 1 0.481816 0.253971 0.924275
56 2 0.398003 0.276766 0.913957
58 1 0.387016 0.269946 0.955409
59 2 0.36607 0.325734 0.889236
60 1 0.377011 0.361657 0.910656
61 1 0.37767 0.330705 0.847914
62 2 0.303159 0.318346 0.891963
63 1 0.289682 0.313243 0.93291
64 1 0.290435 0.282713 0.870685
65 2 0.27608 0.369292 0.866645
67 1 0.286662 0.406235 0.887766
68 1 0.285638 0.3742 0.824241
98 3 0.56243 0.379898 0.832909
99 3 0.563351 0.426761 0.813683
47 1 0.98279 0.476036 0.810764
92 3 0.877526 0.462191 0.793005
76 2 0.120494 0.593343 0.00927186
77 1 0.147141 0.579052 0.0400726
78 1 0.129866 0.63478 0.00156329
79 2 0.0608403 0.589484 0.0301869
80 1 0.0497444 0.548359 0.0384474
82 2 0.0549802 0.624135 0.0825295
83 1 0.0131256 0.621431 0.0963336
84 1 0.0801115 0.609487 0.115255
85 1 0.0634592 0.666458 0.0752312
22 2 0.0331728 0.980416 0.0453666
23 1 0.0456254 0.970598 0.0857515
24 1 0.00251246 0.951455 0.0351886
25 2 0.0819333 0.977293 0.00493606
28 2 0.10928 0.920086 0.00343971
30 1 0.123442 0.908908 0.0428815
1 2 0.426123 0.576895 0.498902
3 1 0.439229 0.598614 0.463256
4 1 0.381975 0.577509 0.498874
5 2 0.445146 0.516844 0.498907
8 2 0.5085 0.51511 0.498883
9 1 0.523122 0.535733 0.463888
81 1 0.032761 0.603541 0.00018149
35 2 0.0557816 0.587062 0.700105
36 1 0.0430774 0.623086 0.721413
37 1 0.0994781 0.585594 0.698889
38 1 0.0419078 0.591337 0.658424
39 2 0.0305092 0.534547 0.724091
2 1 0.439187 0.598574 0.534606
10 1 0.523154 0.535827 0.533809
40 1 0.987207 0.536989 0.721832
100 3 0.137969 0.796951 0.655747
101 3 0.114389 0.783748 0.61291
103 3 0.482619 0.846432 0.569655
102 3 0.513983 0.878024 0.545506
42 2 0.0501273 0.527159 0.783993
43 1 0.0932963 0.524723 0.784439
44 1 0.03833 0.561741 0.807041
51 1 0.0325144 0.503474 0.895869
69 2 0.190374 0.565463 0.938543
70 1 0.201451 0.606602 0.928883
71 1 0.218478 0.549793 0.968086
72 1 0.196356 0.541792 0.901792
73 2 0.130209 0.559725 0.956308
74 1 0.104404 0.573189 0.924068
75 1 0.121395 0.517654 0.9625
41 1 0.0417589 0.500479 0.69969
86 3 0.339314 0.520947 0.897543
87 3 0.376387 0.547948 0.875937
26 1 0.0679267 0.987111 0.965285
29 1 0.0807263 0.889529 0.991897
31 2 0.157582 0.919726 0.962815
32 1 0.176161 0.87965 0.963398
33 1 0.144541 0.927366 0.92182
34 1 0.189107 0.947807 0.973827
90 3 0.256233 0.814175 0.992136
91 3 0.256909 0.813159 0.941464
ITEM: TIMESTEP
120
ITEM: NUMBER OF ATOMS
105
ITEM: BOX BOUNDS
0 25
0 25
0 25
ITEM: ATOMS id type xs ys zs
18 2 0.00832884 0.0389549 0.0444011
19 1 0.0377242 0.0695916 0.0555801
27 1 0.111395 0.00597513 0.0165533
20 1 0.994085 0.0502231 0.0044197
21 1 0.974738 0.0425716 0.0716874
94 3 0.136849 0.443428 0.230223
95 3 0.155207 0.438829 0.183426
88 3 0.726548 0.189436 0.35271
89 3 0.746124 0.182941 0.306619
7 1 0.429318 0.496505 0.463823
11 2 0.531988 0.455801 0.499038
12 1 0.517181 0.434273 0.463916
14 2 0.594882 0.457508 0.49893
15 1 0.612013 0.417619 0.498172
16 1 0.610786 0.479328 0.464301
93 3 0.832593 0.465043 0.814109
6 1 0.429361 0.496524 0.534064
13 1 0.517207 0.434278 0.534166
17 1 0.610981 0.478069 0.534225
104 3 0.978956 0.297098 0.570099
105 3 0.977375 0.29499 0.519672
57 1 0.39118 0.240305 0.891744
96 3 0.476984 0.195413 0.833042
97 3 0.51855 0.218607 0.816436
45 2 0.0258063 0.475101 0.811994
46 1 0.0382713 0.439835 0.789265
48 2 0.0472366 0.471008 0.870958
49 1 0.0358702 0.433421 0.889572
50 1 0.0908873 0.473796 0.872864
66 1 0.232721 0.368523 0.86893
52 2 0.461001 0.291098 0.910812
53 1 0.473817 0.303409 0.870324
54 1 0.471364 0.323939 0.937479
55 1 0.485843 0.257118 0.922566
56 2 0.39977 0.277442 0.913285
58 1 0.387542 0.270323 0.954678
59 2 0.365488 0.324293 0.889881
60 1 0.37667 0.361209 0.910887
61 1 0.377769 0.330724 0.848201
62 2 0.303029 0.319198 0.891573
63 1 0.2904 0.313871 0.933116
64 1 0.290963 0.283024 0.870137
65 2 0.27607 0.37024 0.866486
67 1 0.288644 0.407042 0.886649
68 1 0.286589 0.375281 0.824121
98 3 0.561658 0.379684 0.83331
99 3 0.563027 0.426254 0.813897
47 1 0.9821 0.475848 0.811272
92 3 0.878391 0.462551 0.793097
76 2 0.119336 0.592037 0.00822654
77 1 0.146809 0.578325 0.0396796
78 1 0.129605 0.634234 0.00139657
79 2 0.060834 0.589698 0.0308232
80 1 0.0501245 0.5479 0.0381543
82 2 0.0547445 0.624048 0.0831639
83 1 0.0140361 0.623118 0.0983051
84 1 0.0811666 0.610264 0.115383
85 1 0.0652613 0.666173 0.0766487
22 2 0.0329976 0.981027 0.0452865
23 1 0.046505 0.970887 0.0856621
24 1 0.00267589 0.951421 0.0343598
25 2 0.0815488 0.975518 0.00591433
28 2 0.110328 0.919931 0.00284852
30 1 0.123919 0.90896 0.0430009
1 2 0.425611 0.577606 0.498936
3 1 0.440369 0.599681 0.463948
4 1 0.38228 0.580655 0.498882
5 2 0.444759 0.517627 0.498933
8 2 0.507358 0.513507 0.498911
9 1 0.52279 0.535157 0.463892
35 2 0.0557743 0.587651 0.699538
36 1 0.044428 0.623597 0.722102
37 1 0.0996966 0.586774 0.700173
38 1 0.0436063 0.593868 0.658301
39 2 0.030539 0.535315 0.723797
2 1 0.440276 0.599651 0.533959
10 1 0.522855 0.535367 0.533765
40 1 0.986864 0.537052 0.722648
100 3 0.137828 0.796696 0.65579
101 3 0.114338 0.783502 0.61309
103 3 0.482661 0.846364 0.569583
102 3 0.513912 0.877901 0.545539
42 2 0.0486287 0.525907 0.783028
43 1 0.092492 0.52379 0.784277
44 1 0.0382412 0.561233 0.80698
51 1 0.0325973 0.503671 0.896387
69 2 0.191603 0.565377 0.937926
70 1 0.203058 0.607182 0.930481
71 1 0.219162 0.550756 0.968924
72 1 0.199727 0.543023 0.901612
73 2 0.131402 0.560041 0.955764
74 1 0.10445 0.574073 0.924298
75 1 0.120878 0.518147 0.962662
41 1 0.0420359 0.50038 0.700061
86 3 0.338416 0.520242 0.897511
87 3 0.375363 0.547204 0.87631
26 1 0.0679761 0.986442 0.965568
29 1 0.0806986 0.88986 0.991269
31 2 0.158728 0.918778 0.962737
32 1 0.178023 0.879984 0.961957
33 1 0.146441 0.927844 0.921524
34 1 0.189333 0.948905 0.97255
90 3 0.255348 0.814564 0.992076
91 3 0.256124 0.813541 0.941662
81 1 0.0337812 0.604425 0.999794
ITEM: TIMESTEP
150
ITEM: NUMBER OF ATOMS
105
ITEM: BOX BOUNDS
0 25
0 25
0 25
ITEM: ATOMS id type xs ys zs
18 2 0.00835349 0.0393514 0.0442209
19 1 0.0387353 0.0689601 0.0551752
27 1 0.111803 0.00684823 0.0149516
20 1 0.994882 0.0494743 0.00376869
21 1 0.97456 0.0457368 0.0706294
94 3 0.136765 0.443678 0.230017
95 3 0.155118 0.439219 0.182935
88 3 0.72646 0.189484 0.352803
89 3 0.746142 0.182937 0.306533
7 1 0.426448 0.496279 0.464734
11 2 0.53203 0.454872 0.499092
12 1 0.517677 0.431347 0.464937
14 2 0.595546 0.457553 0.498973
15 1 0.615475 0.419088 0.497924
16 1 0.609925 0.480227 0.464368
93 3 0.83362 0.465211 0.814031
6 1 0.426504 0.496298 0.533252
13 1 0.51782 0.431428 0.533362
17 1 0.610082 0.478396 0.534657
104 3 0.979037 0.297223 0.570294
105 3 0.977429 0.295069 0.51966
57 1 0.394551 0.239798 0.891019
96 3 0.476421 0.19409 0.83238
97 3 0.518191 0.21845 0.816718
45 2 0.0248538 0.474287 0.812205
46 1 0.0350616 0.437928 0.789848
48 2 0.0470177 0.471138 0.871696
49 1 0.0379418 0.434136 0.892313
50 1 0.0903392 0.476034 0.872785
66 1 0.233292 0.373205 0.867808
52 2 0.462624 0.293654 0.910995
53 1 0.472888 0.30862 0.870813
54 1 0.471297 0.325909 0.93904
55 1 0.490298 0.261077 0.919511
56 2 0.401087 0.27706 0.913224
58 1 0.388844 0.266938 0.954059
59 2 0.366088 0.325157 0.889359
60 1 0.37742 0.362508 0.909667
61 1 0.378608 0.332888 0.847843
62 2 0.302546 0.31919 0.891643
63 1 0.288189 0.313077 0.932644
64 1 0.288604 0.28314 0.870877
65 2 0.276526 0.3714 0.866332
67 1 0.291526 0.407216 0.886443
68 1 0.287971 0.375197 0.824199
98 3 0.560625 0.379161 0.833943
99 3 0.562601 0.425817 0.814084
47 1 0.981 0.473387 0.812124
92 3 0.879818 0.463013 0.793089
76 2 0.12007 0.592132 0.00842698
77 1 0.148166 0.578961 0.0397571
78 1 0.131879 0.634213 0.00275834
79 2 0.0601956 0.589314 0.0306369
80 1 0.0472245 0.548064 0.0381661
82 2 0.0549769 0.62394 0.0837396
83 1 0.015282 0.624868 0.101123
84 1 0.0819304 0.608465 0.114595
85 1 0.0666347 0.665492 0.0763616
22 2 0.0326755 0.980679 0.0456965
23 1 0.0443427 0.970058 0.0866443
24 1 0.00157683 0.951063 0.0366656
25 2 0.0820441 0.975773 0.0054568
28 2 0.110852 0.918627 0.00309557
30 1 0.124462 0.906163 0.0428796
1 2 0.425567 0.578321 0.498977
3 1 0.441467 0.599147 0.463839
4 1 0.382646 0.584518 0.498897
5 2 0.443893 0.5175 0.498977
8 2 0.507601 0.513858 0.498951
9 1 0.523625 0.53641 0.464615
81 1 0.0311532 0.602908 0.000729044
35 2 0.0558796 0.588247 0.699434
36 1 0.0439436 0.623063 0.723255
37 1 0.0996199 0.585894 0.701399
38 1 0.0454853 0.596949 0.658221
39 2 0.0297882 0.535287 0.722999
2 1 0.441334 0.599147 0.534154
10 1 0.523708 0.536673 0.53307
40 1 0.986121 0.537262 0.720118
100 3 0.137744 0.796414 0.656034
101 3 0.114168 0.783117 0.613143
103 3 0.482584 0.846142 0.569588
102 3 0.51395 0.87787 0.545481
42 2 0.0484809 0.526182 0.783391
43 1 0.092474 0.525071 0.784768
44 1 0.0393805 0.562211 0.807067
51 1 0.0296959 0.503342 0.895817
69 2 0.192752 0.565548 0.937783
70 1 0.203047 0.607809 0.931805
71 1 0.219036 0.550694 0.969675
72 1 0.204095 0.544599 0.901463
73 2 0.131758 0.559684 0.954605
74 1 0.105804 0.573272 0.922014
75 1 0.121177 0.517434 0.959187
41 1 0.039946 0.500897 0.697757
86 3 0.336933 0.519096 0.897635
87 3 0.374285 0.546423 0.87664
26 1 0.0691438 0.987328 0.964941
29 1 0.0822074 0.887228 0.992316
31 2 0.159883 0.918281 0.962496
32 1 0.181219 0.880657 0.960724
33 1 0.146516 0.927591 0.921752
34 1 0.189247 0.948936 0.973837
90 3 0.254173 0.815081 0.992352
91 3 0.255096 0.814034 0.941569
ITEM: TIMESTEP
180
ITEM: NUMBER OF ATOMS
105
ITEM: BOX BOUNDS
0 25
0 25
0 25
ITEM: ATOMS id type xs ys zs
18 2 0.0101161 0.0381354 0.0431573
19 1 0.0397237 0.0679357 0.0549985
27 1 0.111746 0.00424029 0.0165092
20 1 0.995593 0.0483128 0.00329072
21 1 0.975747 0.0419616 0.0710378
94 3 0.136734 0.443979 0.229551
95 3 0.154925 0.439738 0.182507
88 3 0.726418 0.189523 0.352754
89 3 0.746094 0.182955 0.306589
7 1 0.427918 0.498233 0.46412
11 2 0.531786 0.455492 0.499126
12 1 0.518827 0.433381 0.464261
14 2 0.594122 0.458792 0.499063
15 1 0.612077 0.418174 0.497675
16 1 0.60894 0.480705 0.46434
93 3 0.835188 0.465415 0.813819
6 1 0.427924 0.498257 0.534002
13 1 0.518993 0.433653 0.534233
17 1 0.609096 0.478333 0.535115
104 3 0.979135 0.297376 0.570363
105 3 0.977504 0.295178 0.519826
57 1 0.397941 0.243809 0.887144
96 3 0.476009 0.192631 0.831455
97 3 0.517411 0.21808 0.817202
45 2 0.0248485 0.474844 0.811881
46 1 0.0356357 0.438696 0.790734
48 2 0.0461849 0.472432 0.870519
49 1 0.0372418 0.433242 0.889335
50 1 0.0896771 0.478032 0.871716
66 1 0.234961 0.370965 0.870391
52 2 0.461856 0.297072 0.91074
53 1 0.472448 0.313756 0.872252
54 1 0.470633 0.327714 0.941245
55 1 0.489043 0.263205 0.917896
56 2 0.402155 0.278958 0.912008
58 1 0.391159 0.267509 0.95227
59 2 0.366416 0.324903 0.889523
60 1 0.376926 0.360758 0.910847
61 1 0.377311 0.330995 0.848346
62 2 0.303998 0.31985 0.891471
63 1 0.290131 0.315375 0.932232
64 1 0.290359 0.285386 0.869128
65 2 0.27921 0.37151 0.866684
67 1 0.293706 0.407547 0.88687
68 1 0.288695 0.375011 0.824276
98 3 0.559313 0.378712 0.834663
99 3 0.562043 0.425034 0.814421
47 1 0.981601 0.476988 0.813201
92 3 0.881384 0.463616 0.793189
76 2 0.119975 0.591428 0.00792243
77 1 0.145904 0.575941 0.0385299
78 1 0.130206 0.632731 0.00185138
79 2 0.0613313 0.589312 0.0300532
80 1 0.050527 0.548381 0.0390685
82 2 0.0567385 0.622748 0.0824878
83 1 0.0151726 0.622327 0.0981039
84 1 0.0824003 0.606545 0.113897
85 1 0.0677672 0.664493 0.0758375
22 2 0.0338372 0.980352 0.044873
23 1 0.045998 0.971692 0.0854856
24 1 0.00258618 0.952288 0.0344589
25 2 0.0824272 0.974725 0.00561655
28 2 0.110781 0.919012 0.00320784
30 1 0.125495 0.908187 0.0424279
1 2 0.427346 0.577589 0.49902
3 1 0.442138 0.598485 0.463698
4 1 0.383096 0.581227 0.498933
5 2 0.444583 0.517547 0.499047
8 2 0.507162 0.513168 0.499
9 1 0.521755 0.533673 0.464156
81 1 0.0331519 0.60442 0.000811729
35 2 0.0556919 0.58735 0.701299
36 1 0.0433869 0.622608 0.723843
37 1 0.0992493 0.585223 0.702045
38 1 0.0437379 0.594164 0.659093
39 2 0.0295099 0.535281 0.723731
2 1 0.442006 0.598458 0.534444
10 1 0.52185 0.53385 0.533707
40 1 0.98648 0.539502 0.721011
100 3 0.137544 0.796 0.65618
101 3 0.114041 0.782675 0.613379
103 3 0.482603 0.845977 0.569504
102 3 0.513881 0.87771 0.545498
42 2 0.0474067 0.525711 0.783019
43 1 0.0903628 0.523095 0.783623
44 1 0.0360452 0.56015 0.806214
51 1 0.0276425 0.503083 0.895453
69 2 0.19234 0.566365 0.939334
70 1 0.203135 0.60802 0.932657
71 1 0.21884 0.550132 0.969822
72 1 0.201124 0.54452 0.901644
73 2 0.132126 0.560391 0.95491
74 1 0.108331 0.575609 0.922073
75 1 0.123477 0.518155 0.958808
41 1 0.0406954 0.501864 0.698641
86 3 0.33529 0.517818 0.897649
87 3 0.372641 0.545229 0.877208
26 1 0.0685726 0.984307 0.966049
29 1 0.0831121 0.888041 0.991067
31 2 0.15912 0.918984 0.96369
32 1 0.17987 0.879654 0.963377
33 1 0.146623 0.926971 0.922694
34 1 0.18903 0.948509 0.9747
90 3 0.252686 0.815727 0.992384
91 3 0.253788 0.814657 0.941771
ITEM: TIMESTEP
210
ITEM: NUMBER OF ATOMS
105
ITEM: BOX BOUNDS
0 25
0 25
0 25
ITEM: ATOMS id type xs ys zs
18 2 0.0118153 0.0376083 0.0418872
19 1 0.0407393 0.0683876 0.0534392
27 1 0.11297 0.00521072 0.0145311
20 1 0.997073 0.0488743 0.00223119
21 1 0.977784 0.0397999 0.0700788
94 3 0.136702 0.444327 0.229002
95 3 0.154696 0.440343 0.182019
88 3 0.726373 0.189567 0.352691
89 3 0.746035 0.182978 0.306661
7 1 0.429171 0.494672 0.464673
11 2 0.529988 0.454963 0.4992
12 1 0.515029 0.433299 0.464778
14 2 0.593542 0.460215 0.499154
15 1 0.610045 0.419181 0.497547
16 1 0.609533 0.482364 0.464921
93 3 0.837016 0.465651 0.81357
6 1 0.429209 0.494718 0.533625
13 1 0.515054 0.433423 0.533716
17 1 0.60975 0.479689 0.534876
104 3 0.979249 0.297554 0.570435
105 3 0.977591 0.295304 0.520026
57 1 0.397354 0.244353 0.885422
96 3 0.475566 0.191015 0.830404
97 3 0.516456 0.217651 0.817795
45 2 0.0232884 0.474769 0.810398
46 1 0.0343203 0.439338 0.787987
48 2 0.0457337 0.473824 0.87002
49 1 0.0371841 0.433841 0.887042
50 1 0.0891998 0.480232 0.87275
66 1 0.237753 0.370951 0.871826
52 2 0.462218 0.301411 0.910366
53 1 0.473747 0.320235 0.872884
54 1 0.469876 0.330093 0.942739
55 1 0.488808 0.267076 0.917132
56 2 0.402435 0.278968 0.910995
58 1 0.389129 0.266906 0.950597
59 2 0.367621 0.327094 0.888789
60 1 0.378548 0.36328 0.909813
61 1 0.378726 0.333759 0.847562
62 2 0.305131 0.318829 0.892128
63 1 0.292836 0.312751 0.933287
64 1 0.292998 0.283116 0.870679
65 2 0.281725 0.372483 0.866731
67 1 0.295756 0.409193 0.886206
68 1 0.289853 0.376904 0.823951
98 3 0.557793 0.378212 0.835493
99 3 0.561395 0.424105 0.814821
47 1 0.979987 0.476232 0.809196
92 3 0.883181 0.464315 0.793307
41 1 0.0384245 0.499004 0.700521
76 2 0.121401 0.591757 0.00844986
77 1 0.147553 0.576457 0.0391381
78 1 0.132774 0.633141 0.00368467
79 2 0.0616174 0.587881 0.0281211
80 1 0.0509439 0.546293 0.0341679
82 2 0.058683 0.622045 0.0820333
83 1 0.0166658 0.620879 0.0958128
84 1 0.0839314 0.606503 0.114284
85 1 0.0698492 0.664108 0.0771117
22 2 0.0348352 0.978293 0.0448631
23 1 0.048195 0.96779 0.0847564
24 1 0.0051881 0.948552 0.0340851
25 2 0.0833974 0.975423 0.00447214
28 2 0.10996 0.91786 0.0047901
30 1 0.122421 0.908068 0.0451297
1 2 0.429068 0.577664 0.499079
3 1 0.443569 0.59961 0.464099
4 1 0.384906 0.58001 0.498985
5 2 0.444687 0.515875 0.499123
8 2 0.507804 0.514077 0.499057
9 1 0.523204 0.535527 0.464913
35 2 0.0559261 0.587208 0.702973
36 1 0.0444441 0.623072 0.725231
37 1 0.0996394 0.585752 0.703732
38 1 0.0432857 0.59266 0.660986
39 2 0.0278785 0.533947 0.723931
2 1 0.443406 0.59961 0.534145
10 1 0.523276 0.5356 0.533119
40 1 0.984523 0.536119 0.722887
100 3 0.137308 0.795518 0.656341
101 3 0.113899 0.782164 0.61366
103 3 0.482631 0.84579 0.569402
102 3 0.513795 0.87752 0.545522
42 2 0.0476283 0.526476 0.783559
43 1 0.0908408 0.525373 0.785211
44 1 0.0367751 0.56092 0.807217
51 1 0.0277651 0.504058 0.896243
69 2 0.192946 0.567418 0.940741
70 1 0.205124 0.608941 0.934872
71 1 0.219592 0.550774 0.971078
72 1 0.19984 0.54567 0.902978
73 2 0.1311 0.560274 0.954325
74 1 0.104761 0.575973 0.923588
75 1 0.119248 0.518792 0.95955
81 1 0.0346663 0.602449 0.997398
86 3 0.333394 0.516346 0.897657
87 3 0.370715 0.543832 0.877878
26 1 0.0703694 0.985569 0.964587
29 1 0.0804505 0.888063 0.993698
31 2 0.159182 0.919874 0.964265
32 1 0.177954 0.879855 0.965383
33 1 0.147268 0.928028 0.923046
34 1 0.189064 0.949957 0.974574
90 3 0.250975 0.816463 0.992407
91 3 0.252285 0.815368 0.942022
ITEM: TIMESTEP
240
ITEM: NUMBER OF ATOMS
105
ITEM: BOX BOUNDS
0 25
0 25
0 25
ITEM: ATOMS id type xs ys zs
18 2 0.0136195 0.0353322 0.0411959
19 1 0.0442251 0.0648427 0.0525414
27 1 0.114639 0.00722454 0.0128004
20 1 0.999886 0.0449223 0.000492646
21 1 0.979773 0.0431103 0.0670449
94 3 0.136582 0.444734 0.228611
95 3 0.154527 0.440997 0.181253
88 3 0.726244 0.189642 0.352806
89 3 0.746048 0.182976 0.306557
7 1 0.428497 0.493582 0.464916
11 2 0.528742 0.455582 0.499278
12 1 0.514014 0.432489 0.464894
14 2 0.591336 0.460602 0.499236
15 1 0.61291 0.423122 0.497632
16 1 0.605135 0.4837 0.464395
93 3 0.838765 0.465923 0.81342
6 1 0.428609 0.493673 0.533581
13 1 0.51392 0.432306 0.533476
17 1 0.60546 0.480921 0.53564
104 3 0.979381 0.29776 0.570716
105 3 0.977681 0.295436 0.520047
57 1 0.399602 0.244476 0.884617
96 3 0.47478 0.189095 0.829376
97 3 0.515671 0.217379 0.818375
45 2 0.0223003 0.475603 0.809394
46 1 0.0342141 0.439622 0.78708
48 2 0.0445677 0.47456 0.868099
49 1 0.0378401 0.437393 0.889315
50 1 0.0878683 0.481173 0.868557
66 1 0.240728 0.375777 0.870112
52 2 0.461164 0.304283 0.9106
53 1 0.471097 0.325496 0.872861
54 1 0.465845 0.333546 0.942415
55 1 0.492899 0.274627 0.915149
56 2 0.402907 0.280784 0.90921
58 1 0.390025 0.266888 0.94877
59 2 0.369529 0.329617 0.887794
60 1 0.380234 0.366945 0.908891
61 1 0.380731 0.339228 0.846151
62 2 0.307488 0.318922 0.892354
63 1 0.293776 0.312058 0.933463
64 1 0.294084 0.282788 0.871365
65 2 0.283765 0.371715 0.867783
67 1 0.300657 0.406973 0.887672
68 1 0.293975 0.375149 0.825047
98 3 0.556092 0.377432 0.836519
99 3 0.560686 0.423302 0.815166
47 1 0.978597 0.473842 0.807432
92 3 0.885441 0.465082 0.793304
41 1 0.0368741 0.49859 0.69989
76 2 0.123577 0.592308 0.00917658
77 1 0.150866 0.576797 0.0403179
78 1 0.135741 0.63461 0.0051692
79 2 0.0630139 0.586992 0.0267541
80 1 0.0492619 0.545578 0.0316379
82 2 0.0598737 0.620102 0.0799937
83 1 0.0205713 0.622267 0.0980945
84 1 0.0858478 0.602737 0.110953
85 1 0.072218 0.661805 0.0733731
22 2 0.0366237 0.976918 0.0438614
23 1 0.0485348 0.965779 0.0846728
24 1 0.00590502 0.946783 0.0349559