ITEM: TIMESTEP
0
ITEM: NUMBER OF ATOMS
108
ITEM: BOX BOUNDS pp pp pp
0.0000000000000000e+00 1.6073999999999998e+01
0.0000000000000000e+00 1.6073999999999998e+01
0.0000000000000000e+00 1.6073999999999998e+01
ITEM: ATOMS v_ferrx v_ferry v_ferrz
-1.70003e-16 -1.70003e-16 4.44072e-12
6.93889e-17 -1.5786e-16 4.44074e-12
0 -1.85615e-16 4.44071e-12
0 0 4.44075e-12
-1.9082e-16 -4.33681e-19 4.44073e-12
2.80158e-16 0 4.44072e-12
-1.5786e-16 6.93889e-17 4.44073e-12
4.98733e-17 5.0307e-17 4.44075e-12
0 1.05384e-16 4.44072e-12
0 -1.9082e-16 4.44073e-12
-1.39212e-16 -1.39645e-16 4.44072e-12
2.43295e-16 -1.62197e-16 4.4407e-12
-1.85615e-16 0 4.44071e-12
1.04951e-16 0 4.44072e-12
0 0 4.44069e-12
0 2.7929e-16 4.44072e-12
-1.6263e-16 2.43295e-16 -1.89085e-16
2.60209e-16 2.59341e-16 -2.01228e-16
0 -4.44103e-12 -4.44089e-12
-1.9082e-16 -4.44105e-12 -4.44089e-12
2.80158e-16 -4.44106e-12 -4.44089e-12
-1.38778e-16 0 -4.44089e-12
6.245e-17 4.33681e-19 -4.44089e-12
0 0 -4.44089e-12
0 6.245e-17 -4.44089e-12
-1.67401e-16 6.54858e-17 -4.44089e-12
2.63678e-16 8.54351e-17 -4.44089e-12
-1.5786e-16 -1.9082e-16 -4.44089e-12
6.59195e-17 -1.66967e-16 -4.44089e-12
0 -1.71304e-16 -4.44089e-12
0 0 -4.44089e-12
-1.7087e-16 0 -4.44089e-12
4.44113e-12 4.44089e-12 4.44089e-12
4.44072e-12 4.44117e-12 4.44089e-12
-4.44081e-12 4.44116e-12 4.44089e-12
0 4.44113e-12 4.44089e-12
-1.5786e-16 -1.5786e-16 4.44096e-12
4.98733e-17 -1.45717e-16 4.44094e-12
0 -1.73472e-16 4.441e-12
0 0 8.88185e-12
-1.67401e-16 -4.33681e-19 8.88185e-12
2.63678e-16 4.33681e-19 8.88187e-12
-1.45717e-16 4.98733e-17 8.88183e-12
3.03577e-17 3.07913e-17 8.88181e-12
0 8.54351e-17 8.88187e-12
0 -1.66533e-16 8.88185e-12
-1.15359e-16 -1.14492e-16 8.88185e-12
2.27249e-16 -1.39645e-16 8.88187e-12
-1.73472e-16 4.44089e-12 1.04951e-16
8.54351e-17 4.44089e-12 4.44098e-12
0 4.44089e-12 4.44103e-12
0 2.62811e-16 8.54351e-17
-1.39212e-16 2.28116e-16 8.84709e-17
2.43729e-16 2.43295e-16 1.0842e-16
0 4.44073e-12 -1.91253e-16
-1.39212e-16 4.44072e-12 -1.40079e-16
2.43295e-16 4.4407e-12 -1.6263e-16
-1.5786e-16 4.33681e-19 -1.90386e-16
6.59195e-17 0 -1.68268e-16
0 -4.33681e-19 -1.72605e-16
4.33681e-19 6.63532e-17 -1.68268e-16
-1.15359e-16 6.93889e-17 -1.16226e-16
2.27249e-16 8.89046e-17 -1.4138e-16
-1.76942e-16 -1.39212e-16 -1.38344e-16
6.93889e-17 -1.15359e-16 -1.16226e-16
0 -1.19696e-16 -1.18829e-16
-4.33681e-19 0 -1.72605e-16
-1.19696e-16 -8.88178e-12 -4.44101e-12
2.02963e-16 -8.88178e-12 -4.44104e-12
-1.89085e-16 -4.44065e-12 -4.44106e-12
8.89046e-17 -4.44067e-12 -8.88193e-12
-4.44089e-12 -4.44069e-12 -4.44104e-12
-1.85615e-16 4.44071e-12 -8.88178e-12
1.04951e-16 4.44072e-12 -8.88178e-12
0 4.44069e-12 -8.88178e-12
0 0 -8.88179e-12
-1.7087e-16 -4.33681e-19 -8.88178e-12
2.38524e-16 0 -8.88179e-12
-1.73472e-16 1.04951e-16 -8.88178e-12
8.54351e-17 8.54351e-17 -8.88179e-12
0 1.39645e-16 -8.88179e-12
0 -1.7087e-16 -8.88178e-12
-1.19262e-16 -4.44101e-12 -8.88178e-12
2.02963e-16 -4.44103e-12 -8.88178e-12
4.44069e-12 -4.44089e-12 -4.44089e-12
-4.44075e-12 -4.44089e-12 -4.44089e-12
0 -4.44089e-12 -4.44089e-12
0 4.44113e-12 -4.44089e-12
-1.42681e-16 4.4411e-12 -4.44089e-12
2.2031e-16 4.44111e-12 -4.44089e-12
0 -1.70003e-16 2.78857e-16
-1.6263e-16 -1.89085e-16 2.43729e-16
2.58474e-16 -2.01228e-16 2.59341e-16
-1.70003e-16 0 2.78857e-16
8.54351e-17 4.33681e-19 2.64112e-16
0 0 2.39392e-16
0 8.50015e-17 2.62377e-16
-1.39212e-16 8.89046e-17 2.26815e-16
2.43729e-16 1.0842e-16 2.43729e-16
-1.89085e-16 -1.6263e-16 2.43729e-16
8.89046e-17 -1.39212e-16 2.26815e-16
0 -1.42681e-16 2.04697e-16
0 0 2.39392e-16
-1.42681e-16 0 2.04697e-16
2.18575e-16 0 2.19009e-16
-2.01228e-16 2.59341e-16 2.59341e-16
1.0842e-16 2.43729e-16 2.43729e-16
0 2.18575e-16 2.19009e-16
ITEM: TIMESTEP
500
ITEM: NUMBER OF ATOMS
108
ITEM: BOX BOUNDS pp pp pp
0.0000000000000000e+00 1.6073999999999998e+01
0.0000000000000000e+00 1.6073999999999998e+01
0.0000000000000000e+00 1.6073999999999998e+01
ITEM: ATOMS v_ferrx v_ferry v_ferrz
-1.3776e-10 2.47272e-10 -3.28864e-10
-2.41697e-10 1.01804e-10 5.23161e-11
1.05049e-10 -2.15415e-10 -8.92249e-11
-5.67845e-11 -1.42956e-10 2.87984e-10
-1.89563e-10 2.33915e-11 1.77797e-10
5.64386e-12 -1.40725e-10 2.11666e-10
1.79474e-10 5.26194e-11 7.01598e-11
-1.26354e-10 1.60715e-11 -1.16155e-10
1.88433e-10 7.20246e-11 6.80476e-11
9.5471e-11 -2.07041e-10 5.19479e-11
2.38244e-11 1.825e-10 -2.83878e-10
-1.5185e-10 1.84394e-10 -7.86389e-11
-8.81272e-11 1.62343e-11 9.85176e-11
8.94604e-11 -1.65739e-12 1.28668e-10
1.54379e-10 -1.79534e-10 2.66559e-10
9.45847e-11 -5.87442e-11 1.55227e-10
1.15658e-10 -1.60218e-10 1.21751e-11
-2.80168e-10 9.90372e-11 -1.27114e-10
1.11145e-10 5.18136e-11 -3.0418e-11
-9.83397e-11 1.73196e-10 1.15687e-10
-5.74285e-11 2.51531e-11 9.7697e-12
1.42362e-10 -9.5646e-11 -1.73654e-10
-7.39821e-11 -3.20981e-11 -1.78449e-10
-2.51951e-10 -1.15197e-10 8.82936e-11
3.35573e-10 -2.75032e-10 -3.1707e-10
1.22688e-10 -2.27996e-10 1.47766e-10
-1.37771e-10 5.33214e-12 -5.85577e-11
-1.70622e-10 3.12829e-10 -1.08447e-11
-1.73536e-10 -1.02976e-10 7.83582e-11
-6.68286e-12 -8.49568e-11 6.82726e-11
-1.7133e-11 3.19051e-10 -2.68584e-10
2.23857e-10 8.36696e-11 -5.43273e-11
-6.24681e-12 7.01483e-12 -1.35879e-10
2.33202e-10 -2.00896e-10 2.73521e-10
-1.31892e-10 6.05411e-11 3.54368e-11
1.6424e-10 -2.71671e-10 -5.86501e-11
-1.39463e-11 -5.81513e-11 -3.01565e-10
-6.34934e-12 -2.72284e-11 1.14104e-10
1.12429e-10 -2.01987e-10 -2.18914e-10
8.71607e-11 5.52618e-11 -4.93286e-11
-2.18783e-10 -3.32576e-11 -2.89466e-10
-1.67884e-11 -8.16377e-11 9.96883e-11
-3.33057e-10 -1.66266e-10 2.67318e-10
-5.82787e-11 6.04089e-11 6.6292e-11
1.91093e-11 2.3181e-10 -1.96098e-10
5.11125e-11 1.12249e-10 3.87786e-10
9.09899e-11 -1.57395e-10 -3.16673e-10
-1.46917e-10 -8.38336e-11 1.12849e-10
9.48542e-12 -9.77006e-11 -1.52892e-10
-8.43689e-11 1.94004e-10 1.03202e-10
1.38461e-10 1.19281e-10 -5.49165e-11
4.62478e-11 9.47571e-11 -2.00772e-11
-2.93004e-11 2.99581e-11 1.06484e-10
-2.49249e-10 1.32561e-11 -9.25232e-11
1.68231e-10 -2.38684e-11 -1.64172e-10
-2.3154e-10 -1.6209e-10 -1.54156e-10
-7.44595e-11 8.23192e-11 1.09241e-10
-8.66415e-11 1.92223e-10 1.68339e-10
-7.12903e-12 -3.91225e-11 -1.46808e-10
2.81078e-10 2.09221e-10 5.19054e-10
1.33327e-10 2.87604e-10 1.85848e-10
-1.77755e-10 -6.877e-11 1.23268e-10
6.54644e-13 -1.84329e-11 -6.09743e-11
3.02108e-10 5.19683e-11 3.13886e-10
-1.66554e-10 -2.36886e-10 2.83899e-10
4.30115e-10 6.74615e-11 2.07986e-10
2.76612e-11 -2.24249e-10 -2.59811e-10
-3.65799e-12 4.70878e-11 7.68043e-11
9.82275e-11 -3.51711e-10 6.80762e-11
-3.68015e-11 3.30873e-12 1.40977e-10
-2.32046e-10 2.97306e-11 -2.27689e-10
-2.04805e-10 1.72586e-10 -1.67954e-10
-3.9955e-10 2.92143e-10 4.21952e-11
8.50465e-11 -8.00231e-11 1.11889e-12
1.96812e-10 1.92032e-10 1.05057e-10
-1.12763e-10 3.7697e-10 -3.3687e-11
1.98275e-10 3.73163e-10 3.62537e-11
-5.24916e-11 -1.05259e-10 -2.60468e-10
1.17582e-11 3.79021e-11 -1.22134e-10
-1.22277e-11 1.49988e-10 8.18378e-11
1.09992e-10 -2.9566e-10 -1.14248e-10
-1.50336e-10 -9.98117e-11 -5.42109e-10
-2.48108e-10 3.93239e-11 -2.61267e-10
-1.91012e-10 -3.2863e-11 -2.8852e-10
-1.54055e-10 -9.63702e-12 1.39615e-10
8.58463e-11 1.00663e-10 1.28437e-10
9.69413e-11 -4.0911e-11 1.61141e-10
2.3482e-10 -7.52639e-11 -3.10965e-11
6.72632e-11 3.32637e-11 1.44226e-10
2.09652e-10 -9.75756e-12 4.6282e-11
-2.18177e-10 -4.11436e-11 3.03962e-10
8.21879e-12 -7.75314e-11 4.52972e-11
1.85027e-11 -1.42285e-10 8.0357e-11
1.8043e-10 -3.69802e-10 -1.85688e-10
1.51044e-10 1.85886e-10 -1.21116e-10
-3.83219e-11 -6.44858e-11 -2.28935e-10
2.43517e-10 -8.0455e-11 -1.83719e-11
-2.93897e-10 -9.12731e-11 -1.7552e-10
-1.85963e-10 2.3358e-10 -1.2909e-10
3.62023e-11 9.03903e-11 5.6199e-11
3.06953e-10 -2.85687e-10 2.32101e-10
3.24893e-10 3.94381e-11 1.91749e-10
-4.38448e-11 1.8545e-10 -2.72547e-11
-1.38376e-10 6.95532e-11 1.42392e-10
7.23818e-11 1.65909e-12 -3.54841e-11
-1.47706e-10 -6.05487e-11 8.23716e-11
8.60403e-11 -1.08309e-10 -1.21542e-10
2.60305e-11 6.84718e-11 -2.40918e-11
