print           "This is replica: ${rep}"
This is replica: 3

read_data       ${rep}/lj.data
read_data       3/lj.data
  orthogonal box = (1.21798 1.21798 1.21798) to (23.782 23.782 23.782)
  1 by 1 by 1 MPI processor grid
  reading atoms ...
  500 atoms
  reading velocities ...
  500 velocities
  0 = max # of 1-2 neighbors
  0 = max # of 1-3 neighbors
  0 = max # of 1-4 neighbors
  1 = max # of special neighbors

#dump            dump all xyz 1000 ${rep}/dump.xyz

thermo          10
thermo_style    custom step temp pe etotal press vol
timestep        1.0

fix             fxnpt all npt temp ${T0} ${T0} 1000.0 iso ${press} ${press} 10000.0
fix             fxnpt all npt temp 300 ${T0} 1000.0 iso ${press} ${press} 10000.0
fix             fxnpt all npt temp 300 300 1000.0 iso ${press} ${press} 10000.0
fix             fxnpt all npt temp 300 300 1000.0 iso 0 ${press} 10000.0
fix             fxnpt all npt temp 300 300 1000.0 iso 0 0 10000.0
fix             fxgREM all grem ${lambda} -.03 -30000 fxnpt
fix             fxgREM all grem 930 -.03 -30000 fxnpt
thermo_modify   press fxgREM_press

temper/grem            10000 100 ${lambda} fxgREM fxnpt 10294 98392 #${walker}
temper/grem            10000 100 930 fxgREM fxnpt 10294 98392 
Neighbor list info ...
  1 neighbor list requests
  update every 1 steps, delay 10 steps, check yes
  max neighbors/atom: 2000, page size: 100000
  master list distance cutoff = 7
  ghost atom cutoff = 7
  binsize = 3.5 -> bins = 7 7 7
Memory usage per processor = 5.38075 Mbytes
Step Temp PotEng TotEng Press Volume 
       0      290.839   -3356.3647   -2923.7637    13.376266    11488.157 
      10    298.49016   -3362.2456   -2918.2641   -139.01604    11488.157 
      20    305.83037   -3365.5642   -2910.6647   -254.45224    11488.154 
      30    310.23182   -3368.6884   -2907.2421   -332.60751    11488.147 
      40    310.27284   -3368.3232   -2906.8159   -322.86391    11488.133 
      50    306.53667   -3364.1878   -2908.2377   -229.32421    11488.113 
      60    301.05575   -3362.0784   -2914.2808   -139.22921    11488.089 
      70    295.62185   -3358.2958   -2918.5807   -30.488671    11488.062 
      80    291.00386   -3354.1217   -2921.2755    71.019816    11488.035 
      90    287.64085    -3351.684     -2923.84    136.24318    11488.009 
     100    285.69508   -3350.6878    -2925.738    167.78531    11487.986 
     110    285.01446   -3349.3259   -2925.3885    187.55076    11487.966 
     120     285.5602   -3350.0709   -2925.3218    166.71919     11487.95 
     130     287.3227   -3351.7321   -2924.3613    117.78775    11487.937 
     140    290.25957   -3354.4147   -2922.6756    40.299682    11487.926 
     150    294.42021   -3356.9709   -2919.0432   -49.667147    11487.916 
     160    299.06616   -3359.9734   -2915.1351   -148.10202    11487.905 
     170    302.27193   -3361.9138   -2912.3072   -219.90367    11487.892 
     180    303.13784   -3362.2007   -2911.3062   -249.85871    11487.874 
     190    302.80628   -3362.5024    -2912.101   -267.67656    11487.852 
     200    303.33832   -3362.4442   -2911.2515   -285.77881    11487.825 
     210     305.5023   -3363.3144   -2908.9029   -322.79381    11487.792 
     220    307.85065   -3364.0411   -2906.1366   -351.67602    11487.753 
     230    308.22104    -3364.406   -2905.9506   -348.91637    11487.707 
     240    305.74564   -3363.9764   -2909.2029   -303.52406    11487.654 
     250    301.78413   -3361.5326   -2912.6516   -216.19532    11487.596 
     260    298.46788   -3359.9048   -2915.9565   -141.52764    11487.534 
     270    296.63349     -3357.92   -2916.7002   -78.205751    11487.469 
     280    295.89932   -3357.4406   -2917.3128   -46.177821    11487.402 
     290    295.70212   -3356.7815    -2916.947   -22.759891    11487.335 
     300    296.08102   -3356.4942   -2916.0962   -14.958212    11487.267 
     310    297.44455   -3358.1599   -2915.7337   -42.692278    11487.199 
     320    299.60732   -3360.4761    -2914.833   -85.527147     11487.13 
     330    301.41392   -3361.5094    -2913.179   -109.23287    11487.059 
     340    301.95602   -3362.3802   -2913.2435   -116.52949    11486.987 
     350    301.04313    -3362.573   -2914.7942   -99.370101    11486.912 
     360    298.75171   -3362.1319   -2917.7614   -61.477019    11486.836 
     370    295.31919   -3360.0283   -2920.7634    2.7109805    11486.758 
     380    292.01147   -3358.1391   -2923.7942    56.679543     11486.68 
     390    291.02267   -3358.8039   -2925.9297    52.137334    11486.604 
     400    293.47704   -3361.3097   -2924.7849   -10.620913    11486.528 
     410    298.04072   -3363.4731   -2920.1601   -92.539319    11486.453 
     420    302.65763   -3364.6201   -2914.4398   -161.34189    11486.375 
     430    305.58577   -3364.9342   -2910.3985   -199.69054    11486.295 
     440    306.15192   -3365.4217   -2910.0439   -210.24137    11486.211 
     450    304.70394   -3365.0002   -2911.7761   -185.30124    11486.122 
     460    302.72281    -3363.178   -2912.9008    -135.5125    11486.031 
     470      301.565   -3362.4188   -2913.8637   -103.42872    11485.936 
     480    301.09466   -3362.7649   -2914.9094   -90.679055     11485.84 
     490    300.36785   -3362.8128   -2916.0384   -75.984213    11485.742 
     500     299.4194   -3361.7955   -2916.4318   -50.507149    11485.642 
     510    299.01319   -3361.7883   -2917.0289   -42.892731    11485.542 
     520     299.3401   -3361.5982   -2916.3525   -40.095555    11485.441 
     530    299.80119   -3360.7075   -2914.7759   -29.794671    11485.339 
     540    299.83338   -3360.4575   -2914.4781   -22.047344    11485.237 
     550     299.4037   -3360.3026   -2914.9623   -9.5687775    11485.134 
     560    298.26531   -3360.3454   -2916.6984     6.360308    11485.031 
     570     296.7951   -3358.1989   -2916.7387    46.627791    11484.928 
     580    296.86944   -3358.3685   -2916.7977    42.347178    11484.827 
     590    299.99401   -3358.9377   -2912.7193    1.8547224    11484.726 
     600    305.29691   -3363.5524   -2909.4464    -108.7678    11484.625 
     610    310.53262   -3367.7329   -2905.8391   -214.98857    11484.522 
     620    313.26727   -3370.5559   -2904.5946   -282.25441    11484.415 
     630    312.85585   -3370.6767   -2905.3274   -288.19236    11484.303 
     640    311.07096   -3368.8551   -2906.1606   -255.80573    11484.185 
     650    309.45998   -3367.4112   -2907.1129   -224.31879    11484.062 
     660    307.97753   -3367.1047   -2909.0115   -203.40277    11483.936 
     670    306.45975   -3365.0678   -2909.2321   -160.61231    11483.805 
     680    305.20067   -3365.1719   -2911.2091   -144.94169    11483.671 
     690    304.53788   -3363.5599   -2910.5829   -116.21585    11483.534 
     700    303.76824   -3363.3253    -2911.493    -104.4867    11483.395 
     710    302.08413   -3360.7855   -2911.4582   -59.828868    11483.254 
     720    299.94321   -3360.5821   -2914.4393    -37.62374    11483.112 
     730    298.41328   -3359.8529   -2915.9857   -15.228868     11482.97 
     740    298.24134   -3359.4815   -2915.8701   -8.1016813    11482.827 
     750    299.35763    -3361.261   -2915.9892    -34.63294    11482.684 
     760    300.68466   -3362.7823   -2915.5367   -56.018851     11482.54 
     770    300.46889   -3363.9604   -2917.0357   -58.629961    11482.395 
     780    298.60969   -3361.5716   -2917.4123   -6.2774696     11482.25 
     790    296.34564   -3360.1027   -2919.3111    38.355568    11482.104 
     800    294.51417   -3359.4431   -2921.3756    69.012038    11481.959 
     810    292.88964   -3358.5224   -2922.8713    100.11987    11481.815 
     820    291.00259   -3356.1148   -2923.2705    149.04294    11481.674 
     830    289.35715   -3355.1797   -2924.7829    177.16152    11481.535 
     840    288.98728   -3354.6719   -2924.8252    184.02622    11481.399 
     850    290.93491   -3357.9026    -2925.159     120.8681    11481.268 
     860    295.66458   -3360.0429   -2920.2643    38.832849    11481.138 
     870     302.5264   -3364.4891    -2914.504   -92.377319    11481.009 
     880    309.52977   -3369.0313   -2908.6292   -225.81971    11480.879 
     890    314.79857   -3374.2973   -2906.0583     -345.569    11480.744 
     900    317.06683   -3376.5605   -2904.9476   -394.53967    11480.603 
     910    315.46623   -3375.3882   -2906.1561   -358.20311    11480.454 
     920    309.86806   -3370.9581   -2910.0529   -239.56321    11480.299 
     930    301.86853   -3365.7644   -2916.7579   -84.084273    11480.139 
     940    293.87732   -3358.6098   -2921.4896    99.699044    11479.978 
     950    287.08521   -3354.3413   -2927.3238    241.77818    11479.819 
     960    281.87799   -3351.2325   -2931.9603    352.23356    11479.664 
     970    278.97756   -3350.2749    -2935.317    408.09623    11479.516 
     980     279.5637   -3350.5149   -2934.6851    405.94257    11479.376 
     990    285.08084   -3353.1586   -2929.1224    318.75105    11479.244 
    1000    295.23442   -3359.4678   -2920.3289    140.84436    11479.118 
    1010    306.39662   -3366.8348    -2911.093   -57.300039    11478.994 
    1020    313.99268   -3372.4229   -2905.3825   -196.39271     11478.87 
    1030    316.09081   -3372.4657   -2902.3045   -212.08799    11478.742 
    1040    313.79676   -3370.5719    -2903.823   -154.55598    11478.611 
    1050    309.25763   -3367.8795   -2907.8822   -60.074771    11478.476 
    1060    304.39064   -3364.3202   -2911.5621    49.662879     11478.34 
    1070    300.46253   -3362.9515   -2916.0363    125.17653    11478.205 
    1080     297.4991   -3360.6323    -2918.125    196.95214    11478.073 
    1090    295.54632   -3359.3627     -2919.76    239.22128    11477.944 
    1100    295.40528   -3359.5295   -2920.1365    238.50053     11477.82 
    1110    297.95408   -3361.7049   -2918.5208    183.78695    11477.701 
    1120    302.00232   -3365.2501   -2916.0445    97.189305    11477.585 
    1130    304.60024   -3367.5921   -2914.5223    37.346294    11477.471 
    1140    303.80623   -3366.9401   -2915.0513    44.708909    11477.358 
    1150    300.46145    -3363.449   -2916.5353    112.27252    11477.246 
    1160    296.94083     -3361.29    -2919.613    172.17491    11477.136 
    1170    294.37574   -3358.7032   -2920.8416    229.88782     11477.03 
    1180    292.71093   -3356.8296   -2921.4443    265.86124    11476.928 
    1190    292.90482   -3356.8165   -2921.1428    254.19865    11476.831 
    1200     296.4057   -3358.2915   -2917.4104     187.0124    11476.739 
    1210    302.45194   -3364.1797   -2914.3053    40.161125    11476.651 
    1220     308.3282   -3367.8591   -2909.2443   -82.068523    11476.563 
    1230    311.66885   -3370.4188    -2906.835   -163.94032    11476.475 
    1240    311.46467   -3370.2803   -2907.0002   -175.20411    11476.383 
    1250    308.80936   -3369.2086   -2909.8781    -142.6043    11476.287 
    1260    305.85569   -3366.2346   -2911.2974   -76.438773     11476.19 
    1270    304.35502   -3365.7847   -2913.0797   -45.262845     11476.09 
    1280    303.96208   -3366.5817   -2914.4612   -35.282643     11475.99 
    1290    303.32656   -3366.3007   -2915.1254   -10.999505    11475.889 
    1300    301.90051   -3364.4524   -2915.3982    37.401199    11475.788 
    1310    300.25344   -3361.6726   -2915.0684    96.658435    11475.688 
    1320    299.48263   -3361.5664   -2916.1087     115.8203     11475.59 
    1330    299.78757   -3361.3697   -2915.4584    123.59173    11475.494 
    1340    300.29823   -3362.7551   -2916.0843    107.88605      11475.4 
    1350    300.14288   -3363.0508    -2916.611    106.87383    11475.309 
    1360     298.8976   -3361.1895   -2916.6019    135.89122    11475.219 
    1370    296.68816   -3360.2802   -2918.9791    158.16094    11475.133 
    1380    294.36704   -3359.4309   -2921.5823    177.02215    11475.049 
    1390    292.94543   -3358.7718   -2923.0377    182.42177    11474.969 
    1400    292.85338   -3358.8438   -2923.2466    166.77089    11474.892 
    1410     293.5964   -3359.1929   -2922.4905    140.56649    11474.819 
    1420    294.92318   -3359.3925   -2920.7166    111.83731    11474.748 
    1430    297.41943    -3361.008   -2918.6192    59.562034     11474.68 
    1440    301.23374   -3362.0338   -2913.9715     6.214788    11474.613 
    1450    305.13101   -3363.6393   -2909.7801   -48.828293    11474.546 
    1460    307.22712   -3365.5255   -2908.5484   -85.101507    11474.478 
    1470    306.96483   -3366.6671   -2910.0802   -86.139204    11474.409 
    1480     305.8449   -3366.1988   -2911.2776   -55.589876    11474.338 
    1490     305.6905   -3366.7544    -2912.063   -40.882616    11474.266 
    1500    306.57141   -3367.7234   -2911.7217   -37.617278    11474.193 
    1510    306.95952   -3368.3709   -2911.7918   -27.410295     11474.12 
    1520    305.73248   -3368.3635   -2913.6096     1.195061    11474.046 
    1530    303.03251   -3366.4796   -2915.7417    59.099761    11473.972 
    1540    300.15414   -3364.8742   -2918.4176    108.88078    11473.899 
    1550    298.85693   -3363.5073   -2918.9802    135.20102    11473.829 
    1560    300.13411   -3363.9432   -2917.5164    112.29006    11473.761 
    1570    303.22588   -3366.0865   -2915.0609    50.329011    11473.696 
    1580    305.89685   -3366.2478   -2911.2494    14.365342    11473.631 
    1590    306.23031   -3366.5988   -2911.1044    1.2446683    11473.567 
    1600    303.60667   -3363.5842   -2911.9923    59.354855    11473.503 
    1610    299.03827   -3359.4433   -2914.6466    152.13579    11473.441 
    1620    294.81902   -3355.1326   -2916.6117    247.34217    11473.381 
    1630    292.42753   -3354.6405   -2919.6767    282.09527    11473.326 
    1640    292.09794   -3355.7459   -2921.2723    272.26409    11473.276 
    1650    294.32074   -3357.0549   -2919.2751    228.26827    11473.232 
    1660    299.26386   -3360.5264   -2915.3941    128.57357    11473.192 
    1670    305.64564   -3365.4596   -2910.8349   -1.8828442    11473.154 
    1680    310.71597   -3369.0229   -2906.8564   -100.61886    11473.117 
    1690    311.98908   -3369.3304   -2905.2703   -120.24223    11473.077 
    1700    309.11038   -3368.2542   -2908.4759   -77.354272    11473.036 
    1710    303.97711   -3365.3219    -2913.179    14.978929    11472.993 
    1720    299.01252   -3363.2915    -2918.533    101.51893    11472.951 
    1730    295.30596   -3360.4985   -2921.2533    185.79882     11472.91 
    1740    293.43947   -3358.6385   -2922.1695    241.06449    11472.874 
    1750    293.66468    -3359.185    -2922.381    245.47771    11472.841 
    1760     295.6381   -3360.7341   -2920.9949    216.20049    11472.814 
    1770    298.29248   -3361.1476   -2917.4601    188.52175     11472.79 
    1780    300.34955   -3363.6722    -2916.925    138.40069     11472.77 
    1790    301.23848    -3362.546   -2914.4766    138.99244    11472.753 
    1800    300.88534   -3360.8762   -2913.3321    157.35644    11472.739 
    1810     299.3665   -3360.2907   -2915.0057    175.12057    11472.728 
    1820     297.0091   -3358.1093   -2916.3307    218.64624     11472.72 
    1830    294.54143   -3357.5657   -2919.4576    244.70058    11472.716 
    1840    292.15559   -3357.0772   -2922.5179    269.23523    11472.718 
    1850    289.60023   -3355.0317   -2924.2733    310.65443    11472.724 
    1860    287.41209    -3353.749   -2926.2453     336.4858    11472.737 
    1870    287.17473   -3352.8065   -2925.6558     338.1041    11472.755 
    1880    290.02881   -3354.2603   -2922.8644    282.10412    11472.781 
    1890    295.29776   -3357.9371   -2918.7041    177.50768    11472.812 
    1900    300.76857   -3362.1419   -2914.7714    64.474646    11472.846 
    1910    304.49633   -3364.1639   -2911.2487   -6.1656434    11472.882 
    1920    305.80688   -3364.6198   -2909.7552   -32.003556    11472.918 
    1930    305.17371   -3364.7364   -2910.8136   -28.799682    11472.953 
    1940    303.71908   -3364.5815   -2912.8224   -8.2385492    11472.988 
    1950    302.77768   -3363.8389     -2913.48    20.026775    11473.023 
    1960    303.11865   -3363.6657   -2912.7996    33.465685    11473.058 
    1970    304.57575    -3364.087   -2911.0537    30.128888    11473.094 
    1980    306.11061   -3365.2181   -2909.9018    16.371808    11473.131 
    1990    306.46526    -3365.715   -2909.8711    18.380298    11473.168 
    2000    304.83747   -3362.6904   -2909.2678    74.697763    11473.205 
    2010    301.69967   -3362.6298   -2913.8744    106.07778    11473.244 
    2020    299.17067   -3359.6779   -2914.6842    159.02318    11473.286 
    2030    299.51037   -3360.6926   -2915.1937    138.17309     11473.33 
    2040     301.5266   -3362.6648   -2914.1668    89.963429    11473.377 
    2050    301.99504   -3363.5001   -2914.3053    66.472441    11473.425 
    2060    300.14589   -3360.5951   -2914.1509    102.80165    11473.476 
    2070    298.71217   -3358.7489   -2914.4372      121.482    11473.528 
    2080    299.91031   -3358.8749   -2912.7811    95.062776    11473.583 
    2090    302.49571   -3360.6893   -2910.7498     41.01224    11473.639 
    2100    303.13383   -3361.2408   -2910.3522    23.427206    11473.697 
    2110    300.40954   -3359.0836   -2912.2472    71.576117    11473.755 
    2120    296.14255   -3355.1401   -2914.6505    158.29426    11473.815 
    2130    293.09838   -3354.3585   -2918.3968     200.9025    11473.877 
    2140    292.64931   -3355.2557    -2919.962    201.04168    11473.944 
    2150    294.87742   -3356.9652   -2918.3573    166.24166    11474.014 
    2160    298.87969    -3361.142   -2916.5811    86.526015    11474.088 
    2170    303.45681   -3363.9846   -2912.6156    19.146581    11474.163 
    2180    307.56553   -3366.6585   -2909.1781   -36.644732    11474.239 
    2190    310.02966   -3368.3953   -2907.2497   -62.166387    11474.314 
    2200    310.28177   -3369.0928   -2907.5722    -54.59024    11474.389 
    2210    309.15718   -3368.7644   -2908.9166   -24.708919    11474.462 
    2220    307.97358   -3368.6629   -2910.5755   -3.3583599    11474.535 
    2230    307.65448   -3368.8606   -2911.2479      -1.6211    11474.608 
    2240    308.22298   -3368.3214   -2909.8631   -7.9527772    11474.681 
    2250    309.32404   -3369.7059   -2909.6098    -45.66514    11474.754 
    2260    310.15986   -3368.5555   -2907.2162   -52.914932    11474.826 
    2270    309.78841   -3368.1974   -2907.4106   -55.647873    11474.897 
    2280     307.7735   -3367.6942   -2909.9045   -37.650301    11474.967 
    2290    304.74577   -3367.0585   -2913.7723    -4.582535    11475.037 
    2300    301.49445   -3364.3099   -2915.8597    57.698577    11475.107 
    2310      297.881   -3361.0641   -2917.9887    129.32173    11475.177 
    2320    293.52211   -3358.2571   -2921.6652     198.8544    11475.251 
    2330    289.25398   -3355.3767   -2925.1334    259.51123    11475.328 
    2340    287.50158   -3353.9941   -2926.3572    270.71895    11475.411 
    2350    290.18977   -3355.7512   -2924.1159    198.68119    11475.498 
    2360     296.3715   -3359.6436   -2918.8135    67.296756    11475.589 
    2370    302.48158   -3363.4915   -2913.5731   -63.023443    11475.682 
    2380    305.55626   -3364.9764   -2910.4847   -133.58402    11475.774 
    2390    305.06472   -3364.5418   -2910.7812   -139.04918    11475.864 
    2400    302.32605   -3363.1745   -2913.4874   -101.51258    11475.951 
    2410    299.20708   -3361.4311   -2916.3832   -47.837723    11476.036 
    2420      297.203   -3361.0701   -2919.0031   -15.463524     11476.12 
    2430    296.73469   -3360.5204     -2919.15    4.0741132    11476.204 
    2440    297.75847   -3361.2004   -2918.3072   -9.8604944    11476.288 
    2450    299.96908   -3365.0194   -2918.8381    -75.48141    11476.372 
    2460    302.42452   -3364.7902   -2914.9567   -101.23698    11476.455 
    2470    304.77245   -3366.4635   -2913.1376   -150.61701    11476.536 
    2480    307.33171   -3367.8784   -2910.7458   -200.31856    11476.614 
    2490    310.10497   -3370.2266   -2908.9689    -261.0083    11476.688 
    2500     312.1335   -3371.5673   -2907.2924   -298.61384    11476.757 
    2510    311.75944   -3370.2973   -2906.5787   -278.09336    11476.821 
    2520    307.90347   -3366.7652   -2908.7821   -193.38869    11476.879 
    2530    301.46283    -3362.871   -2914.4679   -74.979163    11476.934 
    2540    294.83614   -3357.8096   -2919.2632     61.98391    11476.987 
    2550    290.19621    -3354.432   -2922.7871    159.34756    11477.042 
    2560    289.26187   -3354.3786   -2924.1235    177.55175      11477.1 
    2570    292.74168   -3357.4441    -2922.013    108.83249    11477.161 
    2580    299.59155   -3361.1188   -2915.4991   -6.7110008    11477.224 
    2590    306.86704   -3367.1794   -2910.7379   -158.98516    11477.288 
    2600    311.48564   -3369.8118   -2906.5005   -248.29721    11477.348 
    2610    311.88958   -3371.4149   -2907.5028   -279.43866    11477.404 
    2620    307.76879   -3369.8161   -2912.0333   -220.33351    11477.454 
    2630    300.02705   -3363.2363   -2916.9688    -61.29918      11477.5 
    2640    291.53337    -3358.016   -2924.3823    94.448801    11477.546 
    2650    285.66978   -3354.2456   -2929.3335    209.40953    11477.593 
    2660    283.71498   -3354.0569   -2932.0524    241.44526    11477.644 
    2670    285.16496   -3354.8865   -2930.7252     219.5018      11477.7 
    2680    289.69134   -3358.6301   -2927.7362    125.80168     11477.76 
    2690    296.39671   -3363.2642   -2922.3966    -4.044639    11477.823 
    2700    302.70772   -3366.2003   -2915.9455   -112.41764    11477.885 
    2710    306.21308   -3367.7108   -2912.2421    -176.3084    11477.946 
    2720    306.58537   -3368.3704   -2912.3479   -195.88015    11478.003 
    2730    304.81136   -3367.8995   -2914.5157   -176.33187    11478.057 
    2740    302.11262   -3365.1182   -2915.7485   -115.45847    11478.107 
    2750    299.17119   -3362.1823   -2917.1878   -46.555747    11478.155 
    2760    296.28047   -3361.3839   -2920.6891   -2.4143151    11478.203 
    2770    294.10063   -3358.9425   -2921.4901    51.715754     11478.25 
    2780    293.35974   -3358.6168   -2922.2664    65.084083    11478.298 
    2790     294.3672   -3361.1371   -2923.2882    27.210865    11478.348 
    2800    296.91863   -3362.2907   -2920.6467   -11.436148    11478.398 
    2810    300.43642   -3364.5978   -2917.7214   -72.939042    11478.448 
    2820    303.75796   -3366.7804   -2914.9635   -129.86307    11478.497 
    2830    305.43691   -3366.4502   -2912.1359    -138.8722    11478.543 
    2840    304.32854    -3364.836   -2912.1703    -103.5191    11478.587 
    2850    300.76892   -3362.8136   -2915.4426   -38.819536     11478.63 
    2860    296.72672   -3361.3985     -2920.04    23.508817    11478.671 
    2870    293.96011   -3360.1573   -2922.9139    69.227868    11478.713 
    2880    292.78904   -3359.0296   -2923.5281    92.541744    11478.757 
    2890    292.99538   -3357.8722   -2922.0638    93.286645    11478.802 
    2900    295.20791   -3360.1207   -2921.0213    28.151935    11478.849 
    2910    299.32216   -3363.3411   -2918.1221   -68.773951    11478.897 
    2920    303.02174   -3364.4531   -2913.7312   -136.10445    11478.943 
    2930    304.34696   -3365.4704   -2912.7774   -175.20189    11478.987 
    2940     303.7276   -3363.6443   -2911.8725   -154.66599    11479.028 
    2950     302.1532   -3364.2268   -2914.7968   -142.37405    11479.066 
    2960    299.99771   -3361.2743   -2915.0505   -76.965317    11479.101 
    2970     297.9876   -3360.6556   -2917.4216   -34.914508    11479.134 
    2980    297.09445   -3361.5481   -2919.6427   -19.451046    11479.167 
    2990    297.66828   -3363.3931   -2920.6341   -29.121314      11479.2 
    3000     298.7181   -3363.3108   -2918.9903   -24.285938    11479.232 
    3010     299.0098    -3363.657   -2918.9026   -22.182029    11479.264 
    3020    298.28074   -3362.6827   -2919.0127   -1.0821783    11479.296 
    3030     297.0716   -3362.8465    -2920.975    5.7985467    11479.327 
    3040    296.16681   -3361.7601   -2921.2344    17.618492    11479.359 
    3050    296.61863   -3362.0793   -2920.8815   -5.0533974    11479.391 
    3060    298.88076   -3363.9678   -2919.4053   -65.659031    11479.423 
    3070    301.66578   -3365.2777   -2916.5727   -123.02088    11479.454 
    3080    302.52079   -3367.0428   -2917.0661   -164.61217    11479.483 
    3090    301.11032   -3364.3109   -2916.4321   -128.84217    11479.509 
    3100    299.63105   -3361.6655    -2915.987   -85.460877    11479.532 
    3110    299.42967   -3361.3005   -2915.9216   -71.054569    11479.554 
    3120    299.67316   -3363.0643   -2917.3232   -77.718472    11479.574 
    3130    299.65925   -3363.2122   -2917.4917   -57.170356    11479.593 
    3140    299.34393    -3362.903   -2917.6516   -25.782567    11479.611 
    3150    298.35178   -3362.2877   -2918.5121    15.361343    11479.628 
    3160    296.26907   -3361.4895   -2920.8117    64.970352    11479.646 
    3170     293.5713    -3358.187    -2921.522    139.41891    11479.666 
    3180    291.86165   -3358.4159   -2924.2938    151.47297    11479.688 
    3190    293.33675   -3359.1351    -2922.819    116.04533    11479.713 
    3200     299.2326   -3362.7204   -2917.6346   -1.4187391     11479.74 
    3210    307.71653   -3368.6517   -2910.9467   -171.77245    11479.767 
    3220    314.77001   -3372.3428   -2904.1463    -301.0368     11479.79 
    3230    317.82191   -3374.6194   -2901.8834    -369.6049    11479.809 
    3240    316.74953   -3374.7407   -2903.5998   -364.48531     11479.82 
    3250    313.09527   -3371.3443   -2905.6389    -282.8935    11479.824 
    3260    308.46587   -3368.6349   -2909.8153   -191.24287    11479.824 
    3270    303.72023   -3365.8488    -2914.088   -95.248106    11479.819 
    3280    299.15178   -3363.9728   -2919.0072   -14.495937    11479.813 
    3290    295.04318   -3361.6074    -2922.753    60.195411    11479.806 
    3300    292.01842   -3359.6831   -2925.3278    111.54019    11479.801 
    3310    290.52318   -3357.3022    -2925.171    146.88153    11479.798 
    3320    290.42542   -3357.9286   -2925.9428    129.48514    11479.798 
    3330      291.568   -3360.2809   -2926.5956    79.888951      11479.8 
    3340    293.60282    -3362.029    -2925.317    31.931234    11479.803 
    3350     295.7318   -3362.7841   -2922.9054   -1.2153566    11479.808 
    3360    297.58722   -3363.7564    -2921.118   -30.068107    11479.812 
    3370    299.54946   -3364.9316   -2919.3745   -56.975377    11479.816 
    3380    301.42185   -3365.7855   -2917.4433   -75.659903    11479.819 
    3390    302.05306   -3365.7018   -2916.4208    -72.77122     11479.82 
    3400    300.40417   -3364.1372   -2917.3087   -35.829416    11479.821 
    3410    296.26066   -3361.7423    -2921.077    26.223681     11479.82 
    3420    290.73171   -3356.7414      -2924.3    122.24943     11479.82 
    3430    285.76751   -3353.8177   -2928.7601    180.12679    11479.823 
    3440     283.7407   -3352.2703   -2930.2275    186.40432    11479.829 
    3450    286.76354   -3355.3049   -2928.7658     91.43927    11479.839 
    3460    293.42258   -3359.9126   -2923.4687   -51.518599     11479.85 
    3470    299.95193   -3364.1746   -2918.0188   -182.31788     11479.86 
    3480    304.11798   -3366.5116   -2914.1591   -256.09455    11479.868 
    3490    305.03989   -3367.5323   -2913.8086   -269.23029     11479.87 
    3500    303.01655   -3366.1156   -2915.4014    -213.6144    11479.867 
    3510    299.61043    -3364.064   -2918.4162   -130.15675    11479.861 
    3520    296.80003   -3362.5308   -2921.0633    -58.90307    11479.852 
    3530    296.08565   -3362.0966   -2921.6917   -25.652986    11479.841 
    3540     297.7315   -3364.1141   -2921.2611      -51.471    11479.831 
    3550    300.76188   -3367.0317   -2919.6712   -108.18423    11479.819 
    3560    302.99404   -3367.8533   -2917.1726   -138.56298    11479.806 
    3570     302.8702   -3367.9317   -2917.4352   -140.30855    11479.789 
    3580    301.21849    -3366.756   -2918.7163   -113.16149    11479.771 
    3590    300.31923    -3366.989   -2920.2869    -106.2352     11479.75 
    3600    300.80325   -3367.3344   -2919.9124   -108.94713    11479.727 
    3610    301.14244   -3366.6637   -2918.7371   -95.105108    11479.702 
    3620    300.05559   -3364.2819   -2917.9719   -45.399787    11479.675 
    3630    297.94069   -3362.6765   -2919.5123    7.9145598    11479.648 
    3640    295.96781    -3362.347   -2922.1173    45.581116    11479.621 
    3650    294.71305   -3360.5093    -2922.146    89.403749    11479.595 
    3660    294.19875   -3360.9938   -2923.3954    91.611011     11479.57 
    3670    294.44084   -3360.6532   -2922.6948    86.169104    11479.547 
    3680    295.43683   -3361.4596   -2922.0197    48.973182    11479.526 
    3690    297.90051   -3362.0345   -2918.9301   -6.6180676    11479.506 
    3700    301.93871   -3365.3419    -2916.231   -108.25614    11479.485 
    3710    305.34973   -3367.4585   -2913.2739   -186.14295    11479.463 
    3720    305.99126   -3368.2986   -2913.1598   -216.49993    11479.437 
    3730    304.13309   -3366.4646   -2914.0896   -186.52294    11479.408 
    3740    301.75982   -3366.5309    -2917.686   -167.55228    11479.374 
    3750     300.5013   -3365.2178   -2918.2449   -139.84654    11479.338 
    3760     300.8053   -3365.1832   -2917.7581   -139.85413    11479.299 
    3770    302.10779   -3365.5377   -2916.1753   -151.07312    11479.258 
    3780    302.93292   -3367.0295   -2916.4398   -167.58837    11479.213 
    3790    301.79914   -3365.1442   -2916.2409   -125.39602    11479.166 
    3800    298.59542   -3364.1482   -2920.0102   -73.755956    11479.116 
    3810    294.45779   -3362.5467   -2924.5631   -9.5283189    11479.064 
    3820    291.18165   -3360.4555   -2927.3449    46.749383    11479.013 
    3830    290.71614   -3360.9731   -2928.5548    39.475256    11478.962 
    3840    294.29087   -3362.1379   -2924.4026   -18.925024    11478.912 
    3850    301.00088    -3366.525    -2918.809   -145.30363    11478.862 
    3860    308.11767   -3370.7903   -2912.4887   -273.02479    11478.809 
    3870    312.82048   -3374.2783   -2908.9815   -362.99836    11478.751 
    3880    312.65898   -3374.2091   -2909.1526   -358.25591    11478.686 
    3890    306.66293   -3371.3972   -2915.2593   -262.44889    11478.614 
    3900    296.82227   -3366.2208   -2924.7202    -102.3413    11478.537 
    3910     287.2544   -3360.1783   -2932.9091    61.826448    11478.458 
    3920    282.43822   -3356.3005    -2936.195    152.36422     11478.38 
    3930    284.34417   -3357.0416   -2934.1012    125.57177    11478.305 
    3940    290.39852   -3361.1303   -2929.1845    20.650974    11478.233 
    3950    295.95003   -3363.0547   -2922.8514   -55.290362    11478.161 
    3960    297.73309   -3363.1899   -2920.3345   -77.315317    11478.088 
    3970    295.98671   -3362.4831   -2922.2253    -60.81939    11478.014 
    3980     294.0053    -3360.176   -2922.8654   -28.522737    11477.938 
    3990    294.99199   -3360.8455   -2922.0673   -61.305861    11477.862 
    4000    298.85366   -3363.1199   -2918.5977   -141.73373    11477.785 
    4010    302.78774   -3367.5473   -2917.1735   -248.53999    11477.705 
    4020    304.23424    -3369.175   -2916.6496   -298.60815     11477.62 
    4030    302.61544   -3369.6013   -2919.4838   -302.14922     11477.53 
    4040    299.71969   -3367.7505   -2921.9401   -261.03287    11477.434 
    4050    298.18422   -3366.3903   -2922.8639   -229.71196    11477.332 
    4060     298.8956    -3366.492   -2921.9075   -227.22972    11477.227 
    4070    299.99908   -3369.7404   -2923.5145    -255.3286    11477.117 
    4080    298.35947   -3367.6553   -2923.8682   -192.17463    11477.002 
    4090    292.75349   -3365.0973   -2929.6487    -89.28638    11476.884 
    4100    285.93508   -3361.0953   -2935.7885    33.105452    11476.764 
    4110     282.7985   -3358.5605   -2937.9192    94.135627    11476.644 
    4120     285.8656   -3358.4725   -2933.2691    62.810862    11476.526 
    4130    292.20652   -3362.7467   -2928.1116   -54.607253     11476.41 
    4140     296.9924   -3366.9293   -2925.1756   -158.73439    11476.292 
    4150     298.0388   -3366.9761   -2923.6659   -177.36674    11476.171 
    4160    296.70893   -3365.8721     -2924.54   -152.15357    11476.048 
    4170    295.37789   -3366.2175   -2926.8653   -132.47649    11475.921 
    4180    294.87064   -3367.4915   -2928.8938   -122.72641    11475.792 
    4190    294.67543   -3367.9161   -2929.6087   -102.53126     11475.66 
    4200    294.13198   -3366.6662   -2929.1672   -61.017319    11475.527 
    4210    293.11419   -3364.9756   -2928.9905   -16.980228    11475.392 
    4220     292.6765   -3363.6592   -2928.3251    7.5452974    11475.257 
    4230    294.26558   -3365.1048    -2927.407   -26.516046    11475.123 
    4240    297.98659   -3366.0933   -2922.8608   -80.580238    11474.987 
    4250    302.32563   -3369.1995    -2919.513   -165.99612    11474.851 
    4260    305.09156   -3370.6246    -2916.824   -215.25056    11474.711 
    4270    304.70351    -3370.657   -2917.4337   -214.07107    11474.567 
    4280    301.07235   -3367.4011   -2919.5788   -137.78603    11474.419 
    4290    295.34863   -3364.8897    -2925.581   -45.016822    11474.268 
    4300    289.62881   -3360.4118   -2929.6109    72.508715    11474.117 
    4310    286.15929   -3356.9993   -2931.3591    155.63141    11473.966 
    4320    286.17972   -3355.8493   -2930.1786     177.1863    11473.819 
    4330     288.9101   -3358.9521   -2929.2202    121.15766    11473.675 
    4340    292.34642   -3362.2508   -2927.4076    51.526417    11473.534 
    4350    295.54369   -3363.9458    -2924.347   0.14273852    11473.393 
    4360     298.4863   -3366.6606   -2922.6848   -59.174353    11473.253 
    4370    300.53895   -3368.5369    -2921.508   -96.097134    11473.111 
    4380    300.21324   -3366.7642   -2920.2197   -64.844663    11472.968 
    4390    296.95771   -3365.7166   -2924.0145   -12.024469    11472.824 
    4400    292.16548   -3363.2769   -2928.7029    69.460552    11472.679 
    4410    288.49395   -3362.2209   -2933.1081    118.90158    11472.536 
    4420    288.16332    -3362.149   -2933.5279    117.89137    11472.395 
    4430     291.6436   -3363.5005   -2929.7028    57.972156    11472.256 
    4440    297.66952   -3367.5551   -2924.7943   -60.502859    11472.118 
    4450    304.09016   -3370.6868   -2918.3758   -171.41098    11471.979 
    4460     308.5534   -3373.7323   -2914.7825    -258.9135    11471.837 
    4470    309.48587    -3373.694   -2913.3573   -273.57827     11471.69 
    4480    306.77989   -3372.7372   -2916.4254   -238.64856    11471.538 
    4490    301.56146   -3368.9651   -2920.4152   -144.88084    11471.381 
    4500    296.10391   -3364.7776   -2924.3455   -44.256514    11471.222 
    4510    292.60484   -3363.8367   -2928.6092  -0.72306844    11471.061 
    4520    291.75826   -3362.6426   -2928.6743     16.82528      11470.9 
    4530    293.36463    -3364.355   -2927.9973    -25.58661     11470.74 
    4540    296.89643   -3366.3967   -2924.7858   -91.228856    11470.579 
    4550    301.44559   -3369.8911   -2921.5136   -180.95354    11470.416 
    4560    305.45654   -3373.3025    -2918.959   -259.91193     11470.25 
    4570    307.37517   -3374.1713   -2916.9741   -283.00323    11470.079 
    4580    306.32829    -3373.373   -2917.7328   -252.96221    11469.902 
    4590    302.84387   -3370.5935   -2920.1362   -171.64318    11469.721 
    4600    298.19488   -3367.9838   -2924.4415   -79.787912    11469.536 
    4610    294.12917   -3365.2251   -2927.7303    4.3581537     11469.35 
    4620     292.3211   -3362.3559   -2927.5504    61.439978    11469.164 
    4630    293.38764   -3364.6427   -2928.2508     25.27214    11468.978 
    4640    296.47233   -3366.7902     -2925.81   -33.985853    11468.794 
    4650    299.74757   -3368.2744   -2922.4226   -88.468533    11468.608 
    4660    300.94964    -3369.463   -2921.8232   -116.29775    11468.421 
    4670    298.75028   -3367.3882   -2923.0198   -67.323696    11468.232 
    4680    293.86279   -3364.0934   -2926.9948    28.453601    11468.041 
    4690    288.81593   -3361.2227   -2931.6309    125.96905    11467.851 
    4700    285.80539   -3358.8854   -2933.7716    197.88821    11467.664 
    4710    285.60651   -3358.5012   -2933.6832    215.64034     11467.48 
    4720    287.98726    -3359.527   -2931.1678    187.07185      11467.3 
    4730    291.58245   -3362.1287   -2928.4219    125.83544    11467.123 
    4740    294.29771   -3363.6324   -2925.8868    83.804817    11466.949 
    4750    295.66712   -3364.9189   -2925.1364    56.698622    11466.777 
    4760    297.36575   -3366.2906   -2923.9816    27.083048    11466.606 
    4770     300.4781   -3368.0541   -2921.1156   -18.299929    11466.435 
    4780    304.08974   -3370.4046   -2918.0941   -74.333186    11466.263 
    4790    306.53442   -3372.1323   -2916.1856   -110.15633    11466.091 
    4800    306.36811   -3371.2406   -2915.5413    -88.96311    11465.916 
    4810    303.63247   -3369.8624   -2918.2321   -35.479611    11465.739 
    4820    299.49779   -3369.6779   -2924.1977    17.850254    11465.562 
    4830     295.2261   -3366.5125    -2927.386    103.74338    11465.385 
    4840    291.85433   -3363.6708   -2929.5596    172.07555     11465.21 
    4850    290.58794   -3362.9824   -2930.7549    190.99507    11465.039 
    4860    291.87236   -3363.1611   -2929.0231    174.70316    11464.871 
    4870    294.12292   -3363.1789   -2925.6933    154.00303    11464.706 
    4880    294.92133   -3363.6991    -2925.026    142.12291    11464.545 
    4890    293.91622   -3361.9948   -2924.8167    171.99049    11464.386 
    4900    292.49926   -3361.8643   -2926.7938    185.57775     11464.23 
    4910    292.21299   -3361.6765   -2927.0318     183.5048    11464.078 
    4920     294.3465   -3363.0576   -2925.2395    136.05449     11463.93 
    4930    298.91621   -3366.9423   -2922.3271    36.222028    11463.783 
    4940     304.2075   -3370.5083   -2918.0227    -64.58561    11463.638 
    4950    308.02135   -3372.8539   -2914.6955    -131.3879    11463.491 
    4960    308.90373   -3373.5587   -2914.0878   -141.96205    11463.342 
    4970    306.52679   -3371.6191   -2915.6837   -80.691087    11463.191 
    4980    301.51197   -3368.8856   -2920.4094    22.969986    11463.037 
    4990    295.43275   -3365.4621   -2926.0283     146.8903    11462.885 
    5000    290.88226   -3361.5861   -2928.9208    259.04414    11462.735 
    5010    289.63823   -3362.3566   -2931.5417    281.85705     11462.59 
    5020    290.86894   -3363.4182   -2930.7727    270.69373     11462.45 
    5030    292.52764    -3365.017   -2929.9043    241.84573    11462.316 
    5040    293.49658    -3365.245   -2928.6911    228.45229    11462.186 
    5050    294.50147   -3366.9436    -2928.895    192.46946    11462.061 
    5060    297.26288   -3368.2062   -2926.0502    142.82543    11461.939 
    5070    302.05552   -3370.7886   -2921.5039    59.794349     11461.82 
    5080    306.91444   -3373.8136   -2917.3016   -25.907428    11461.702 
    5090    309.27791     -3375.61   -2915.5825   -68.087454    11461.584 
    5100    307.58823   -3374.2434   -2916.7292   -29.448909    11461.464 
    5110    302.22211   -3369.1695   -2919.6371    91.475217    11461.344 
    5120    295.22929   -3363.8335   -2924.7023    233.42851    11461.226 
    5130    289.21239   -3360.4494   -2930.2679    342.88034    11461.112 
    5140    286.07619   -3358.5423   -2933.0256    405.07827    11461.005 
    5150    286.18263   -3360.1821   -2934.5071    391.79791    11460.905 
    5160    288.34455    -3361.971   -2933.0803    351.86919    11460.813 
    5170    290.63945    -3363.714   -2931.4098    306.21253    11460.728 
    5180    291.31142    -3365.454   -2932.1504    269.75255    11460.649 
    5190    290.31855    -3365.059   -2933.2322    266.37406    11460.575 
    5200    289.71418   -3363.2048    -2932.277    270.89968    11460.506 
    5210    291.76498   -3363.7323   -2929.7541    222.71991    11460.442 
    5220     296.3166   -3365.6184   -2924.8699     138.1859    11460.383 
    5230    301.35066   -3369.3963     -2921.16    32.529985    11460.326 
    5240    305.40426   -3370.5661   -2916.3004   -26.832667     11460.27 
    5250    307.98363   -3371.1716   -2913.0693   -57.180837    11460.214 
    5260    308.43511    -3372.104   -2913.3302    -65.95863    11460.156 
    5270    306.89801   -3370.9536   -2914.4661   -31.877829    11460.098 
    5280     305.2456   -3369.9952   -2915.9655  -0.55331272    11460.039 
    5290    305.26168   -3369.2015   -2915.1479     13.46267     11459.98 
    5300    305.92879   -3370.0168   -2914.9709    3.3555314    11459.921 
    5310    305.08604   -3369.5889   -2915.7965    20.941058    11459.862 
    5320    302.07971   -3368.8049   -2919.4842    61.631643    11459.804 
    5330    298.08744   -3365.1449   -2921.7624    143.31463    11459.747 
    5340    294.66312   -3362.3815   -2924.0924    208.27653    11459.693 
    5350    292.02586   -3363.1587   -2928.7924    224.65383    11459.643 
    5360    288.75464   -3362.7308   -2933.2302    257.58477    11459.597 
    5370    284.36618   -3358.8164   -2935.8432     334.1989    11459.556 
    5380     281.1587   -3356.8487   -2938.6464    370.37102    11459.522 
    5390    282.03412   -3358.1861   -2938.6817    326.80014    11459.495 
    5400    286.79267    -3359.411   -2932.8286    246.00141    11459.474 
    5410    293.09138   -3362.9474   -2926.9962    125.33054    11459.458 
    5420    298.54861   -3365.9372   -2921.8688    23.380302    11459.444 
    5430    301.89516   -3367.2946   -2918.2484   -32.664978    11459.431 
    5440     302.9613   -3369.2735   -2918.6415   -64.124877    11459.417 
    5450     301.6816   -3368.4145    -2919.686   -30.492748    11459.403 
    5460    297.95968   -3366.2293   -2923.0369    46.738907    11459.388 
    5470    292.95402   -3362.9511   -2927.2041    147.01316    11459.374 
    5480    289.24066   -3360.5088   -2930.2852    218.44046    11459.362 
    5490    289.07313   -3360.2389   -2930.2645    221.43101    11459.355 
    5500    292.80852   -3363.2902   -2927.7597    139.27316    11459.352 
    5510    298.91176    -3366.826   -2922.2174    23.449419    11459.352 
    5520    304.82309   -3371.4227   -2918.0215   -102.04856    11459.352 
    5530    308.46437   -3374.0198   -2915.2025   -175.33989    11459.351 
    5540    308.87916   -3373.4668   -2914.0325   -167.20124    11459.346 
    5550    305.67902   -3370.0356   -2915.3613   -76.852194    11459.338 
    5560    299.65813   -3365.4319   -2919.7132    64.972285    11459.329 
    5570    292.65276   -3359.4067   -2924.1079    236.85346    11459.321 
    5580    286.94222   -3355.0142   -2928.2094    374.95491    11459.318 
    5590    284.63327   -3353.4826   -2930.1122    441.60931    11459.322 
    5600    285.92984   -3354.5482   -2929.2492    434.64822    11459.334 
    5610    288.75561   -3355.9473   -2926.4452    397.86783    11459.354 
    5620    290.76209   -3358.3895   -2925.9029    346.81793    11459.383 
    5630    291.31008   -3359.7542   -2926.4525    315.40565    11459.418 
    5640    291.74904   -3360.5199   -2926.5653    288.97194    11459.459 
    5650    294.13799   -3363.0744   -2925.5664    226.22295    11459.506 
    5660    298.69376   -3364.9344   -2920.6501    158.13419    11459.558 
    5670    302.99309   -3368.4687   -2917.7894    81.730575    11459.612 
    5680    304.40871   -3368.8123   -2916.0275    75.204046    11459.669 
    5690    302.40456   -3367.1943   -2917.3905    126.21042    11459.727 
    5700    298.63787   -3365.0914   -2920.8902    197.69881    11459.787 
    5710    295.72913   -3362.8907    -2923.016    257.38054    11459.852 
    5720    295.47608   -3362.4125   -2922.9143    267.08144    11459.921 
    5730    297.63534   -3362.8417   -2920.1317    239.65374    11459.996 
    5740    300.14453     -3365.47   -2919.0278     180.4632    11460.075 
    5750    301.41147   -3366.5011   -2918.1744    150.24037    11460.158 
    5760    301.02162   -3365.2726   -2917.5258    160.24874    11460.244 
    5770    299.90644    -3365.545   -2919.4569    160.57551    11460.334 
    5780    299.55092   -3364.6012   -2919.0419    168.28427    11460.426 
    5790    301.11982   -3366.8794   -2918.9865    121.62476    11460.522 
    5800    304.40788   -3368.9607   -2916.1771    62.926404     11460.62 
    5810    307.87943   -3371.8175   -2913.8702   -3.0097777     11460.72 
    5820    309.94504   -3372.3146   -2911.2949   -23.185668    11460.819 
    5830    309.79681    -3371.633   -2910.8337   -1.4962382    11460.919 
    5840    307.51826   -3371.0129   -2913.6028    47.160516    11461.018 
    5850    303.79662   -3369.0632   -2917.1887    128.65817    11461.119 
    5860     299.5249   -3366.1007   -2920.5801    225.31181    11461.222 
    5870    295.77446   -3364.5328   -2924.5907    294.42604    11461.329 
    5880    293.55833   -3362.2504   -2925.6046    346.42156    11461.443 
    5890    293.19719   -3360.9078   -2924.7992     357.8807    11461.563 
    5900    293.95549   -3360.8154   -2923.5789    332.53011     11461.69 
    5910    294.99923   -3359.8567   -2921.0677    305.09537    11461.823 
    5920    296.20575   -3361.4975   -2920.9139    243.56767    11461.963 
    5930    297.60147   -3361.6812   -2919.0215     200.8515    11462.107 
    5940    298.78813    -3363.309   -2918.8843    151.16867    11462.256 
    5950    299.19822   -3365.2189   -2920.1843    115.39604    11462.407 
    5960    298.35268   -3365.3943   -2921.6173    119.28031    11462.561 
    5970    296.73466   -3363.3561   -2921.9858     162.5607    11462.717 
    5980    295.03737   -3362.1871   -2923.3414    201.29207    11462.877 
    5990    293.66868   -3361.6259    -2924.816    229.77533    11463.041 
    6000    293.68923     -3360.65   -2923.8095    246.56446    11463.209 
    6010    296.47427   -3362.3886   -2921.4056    203.72872    11463.383 
    6020    301.59109   -3364.8471   -2916.2532    128.94048     11463.56 
    6030    306.43689   -3367.0021   -2911.2005      57.3711     11463.74 
    6040    308.71634   -3369.1957   -2910.0036    6.0869815    11463.922 
    6050    308.23788   -3367.8891   -2909.4086    20.741238    11464.103 
    6060    305.58413   -3365.9609   -2911.4277    66.631345    11464.286 
    6070    300.77418   -3364.2108    -2916.832    136.64846     11464.47 
    6080     293.6218   -3359.3652    -2922.625    267.64272    11464.657 
    6090    285.33445   -3356.0246   -2931.6113    393.20846    11464.849 
    6100    278.80255   -3352.5107    -2937.813    502.82326    11465.049 
    6110    276.81358   -3350.3614   -2938.6222    550.28188    11465.259 
    6120    279.65626   -3351.5998   -2935.6324    506.90706    11465.479 
    6130    285.34796   -3355.2039   -2930.7705    401.64739     11465.71 
    6140    291.45241   -3358.2853   -2924.7719    289.25357    11465.948 
    6150    297.10699   -3361.7312    -2919.807    171.17268    11466.192 
    6160    302.55373     -3364.91   -2914.8843    55.437012     11466.44 
    6170      307.866   -3368.6575   -2910.7301   -62.798705    11466.689 
    6180    311.79303   -3370.4554   -2906.6869   -138.26266    11466.937 
    6190    312.43774   -3371.1702   -2906.4427   -160.39532    11467.183 
    6200    308.94389   -3368.1445   -2908.6139   -91.595173    11467.426 
    6210    302.68447   -3364.3767   -2914.1565    17.750129    11467.668 
    6220    296.78689   -3360.7177   -2919.2697    124.60174     11467.91 
    6230    294.19421   -3358.0215   -2920.4299     187.0903    11468.155 
    6240     295.7095    -3359.306   -2919.4605    161.17608    11468.404 
    6250    299.39622   -3363.0467   -2917.7175    83.113923    11468.655 
    6260    302.23128   -3365.4493   -2915.9032    26.719212    11468.909 
    6270    302.25293   -3364.3116   -2914.7333    37.804969    11469.164 
    6280    299.21203   -3362.2357   -2917.1805    91.083451     11469.42 
    6290    294.19413   -3360.0662   -2922.4747    165.63369    11469.677 
    6300    289.43186    -3357.272    -2926.764    244.53665    11469.939 
    6310    287.16501   -3356.7543   -2929.6181    272.77835    11470.205 
    6320    288.47784   -3356.8447   -2927.7558    260.53808    11470.477 
    6330    292.69848   -3360.5305   -2925.1637    181.29313    11470.753 
    6340    297.86072   -3362.8509   -2919.8057    109.65376    11471.034 
    6350     302.5357   -3366.4303   -2916.4314    28.644638    11471.317 
    6360    306.49698   -3369.0201    -2913.129   -34.931849    11471.601 
    6370    309.94275   -3368.3825   -2907.3662    -55.20096    11471.884 
    6380    312.62168    -3370.267    -2905.266   -93.801572    11472.167 
    6390    314.14945   -3371.2743   -2904.0008    -108.8446    11472.448 
    6400    314.34032   -3372.3317   -2904.7743   -112.34273    11472.728 
    6410    313.25854   -3372.5638   -2906.6155    -98.21066    11473.005 
    6420    311.07002   -3370.1064   -2907.4134   -48.478778    11473.281 
    6430     308.2594   -3368.5615    -2910.049   -9.5961719    11473.556 
    6440    305.97889   -3366.4414    -2911.321    26.875052    11473.832 
    6450     305.2744   -3366.2669   -2912.1943    26.300361    11474.108 
    6460    306.05516   -3365.2176   -2909.9838    25.932573    11474.385 
    6470    306.59852    -3365.985    -2909.943     11.52653    11474.662 
    6480    305.22425   -3364.1915   -2910.1936    47.530707    11474.941 
    6490    301.73315   -3362.3411   -2913.5359    104.97644     11475.22 
    6500     297.7103   -3361.0676   -2918.2461    159.22344    11475.502 
    6510    295.57304   -3359.8371   -2920.1946    192.34093    11475.788 
    6520    296.57455   -3360.2465   -2919.1143    173.26239    11476.077 
    6530    300.16073   -3360.8842   -2914.4179    123.77824     11476.37 
    6540    304.64027   -3362.7574   -2909.6281    51.115062    11476.665 
    6550    307.73099   -3364.5148   -2906.7883   -7.5532795    11476.962 
    6560    308.10139   -3365.4261   -2907.1486    -30.55659    11477.259 
    6570    306.05912   -3363.5882   -2908.3484    2.0091116    11477.556 
    6580    302.82604   -3362.2955   -2911.8648      41.1788    11477.853 
    6590    299.53145   -3359.1242   -2913.5939     102.5509    11478.151 
    6600    297.10412   -3358.2272   -2916.3073     128.8683    11478.451 
    6610    296.34078   -3358.0136   -2917.2292    130.86929    11478.754 
    6620    297.58033   -3357.5182     -2914.89     118.4964     11479.06 
    6630     300.0413   -3357.5511   -2911.2624    90.858614    11479.368 
    6640    302.22921   -3358.8537   -2909.3107    53.225053    11479.679 
    6650    303.04975   -3358.4754   -2907.7119    49.027349    11479.991 
    6660    302.79723   -3357.1378   -2906.7498    66.543491    11480.304 
    6670    302.65576   -3357.4508   -2907.2733    65.687167    11480.618 
    6680    302.43526   -3357.5844   -2907.7349     67.48788    11480.934 
    6690    301.27254   -3356.8419   -2908.7218     85.18976    11481.252 
    6700    300.12821   -3357.5596   -2911.1417    83.022207    11481.572 
    6710    300.73458   -3356.6477   -2909.3278    83.483602    11481.893 
    6720    302.46302   -3358.9638    -2909.073    39.127393    11482.217 
    6730    303.09717   -3359.1213   -2908.2872     32.23007    11482.541 
    6740    301.77894   -3357.7494   -2908.8761     64.08751    11482.867 
    6750    299.36118   -3357.5072   -2912.2301     97.12434    11483.194 
    6760    296.94353   -3356.2099   -2914.5289    143.02396    11483.523 
    6770    296.19542    -3355.865   -2915.2968    159.91741    11483.855 
    6780    299.10175   -3357.7571   -2912.8659     114.0156    11484.191 
    6790    305.17298   -3358.9372   -2905.0155    43.956074    11484.529 
    6800    311.13842   -3362.0226   -2899.2277   -48.733285    11484.868 
    6810    313.92382   -3363.6989    -2896.761   -96.893386    11485.207 
    6820    312.79205   -3362.5693   -2897.3149   -76.626377    11485.544 
    6830    309.53117    -3359.666   -2899.2618   -16.524239     11485.88 
    6840    306.97738   -3357.8851   -2901.2795    24.706916    11486.217 
    6850    306.24042   -3357.8109   -2902.3015    30.587137    11486.554 
    6860    306.39452   -3357.6562   -2901.9175    30.151857    11486.892 
    6870    306.12975   -3357.0978    -2901.753    39.944278     11487.23 
    6880    304.73964   -3356.4678   -2903.1907    63.750484     11487.57 
    6890    302.40838   -3355.4926   -2905.6831    101.53845    11487.912 
    6900    300.37253   -3352.8705   -2906.0891     154.9019    11488.256 
    6910    299.71278   -3353.5074   -2907.7073          155    11488.603 
    6920    300.21868    -3354.108   -2907.5554    137.29916    11488.953 
    6930    300.91734   -3354.3053   -2906.7135    113.32879    11489.307 
    6940    301.27561   -3354.0206    -2905.896    90.729603    11489.663 
    6950    302.00043   -3355.4191   -2906.2163     43.65834    11490.021 
    6960    304.20288    -3357.248   -2904.7692   -17.666728     11490.38 
    6970    307.69288   -3359.1243   -2901.4544   -82.928732     11490.74 
    6980    311.15676   -3362.4291    -2899.607   -153.15124    11491.098 
    6990    313.24914   -3363.5292   -2897.5948   -175.55565    11491.454 
    7000    313.46314   -3362.6223   -2896.3697   -149.93067    11491.806 
    7010    311.83262   -3361.3064    -2897.479   -98.489539    11492.156 
    7020      308.816    -3359.227   -2899.8866   -26.315683    11492.505 
    7030    305.47513   -3357.3334   -2902.9623    42.516882    11492.854 
    7040    303.12998   -3355.6934   -2904.8105    92.595049    11493.204 
    7050    302.91416   -3354.2533   -2903.6915    113.72507    11493.555 
    7060    304.68781    -3355.285    -2902.085    85.086208    11493.909 
    7070    306.12871   -3356.1019   -2900.7587    60.727501    11494.266 
    7080    304.92774   -3356.2588   -2902.7019    67.826378    11494.624 
    7090    301.11291   -3354.5942   -2906.7116    119.86822    11494.983 
    7100    296.72376   -3351.7671    -2910.413    187.70989    11495.345 
    7110    294.75356   -3349.5884   -2911.1648    219.32443    11495.712 
    7120    297.67567    -3350.839    -2908.069    158.07395    11496.082 
    7130    305.70493   -3355.3958   -2900.6829    6.5977471    11496.457 
    7140    315.50541   -3363.4729   -2894.1825   -203.39826    11496.831 
    7150    322.62429    -3367.446   -2887.5668   -340.39897    11497.202 
    7160    324.88828   -3368.6595   -2885.4128   -395.42687    11497.567 
    7170     322.9769   -3367.2947    -2886.891   -375.52178    11497.925 
    7180    319.19914   -3363.1461   -2888.3616   -301.33342    11498.276 
    7190    315.61029    -3361.887   -2892.4406   -258.18079    11498.621 
    7200    312.52925   -3360.0424   -2895.1788   -212.55239    11498.962 
    7210    309.62627   -3356.4763   -2895.9307   -149.78909      11499.3 
    7220    306.82253   -3354.8177   -2898.4425   -110.49657    11499.634 
    7230    304.00608   -3352.3639   -2900.1779   -63.569298    11499.967 
    7240    301.68734   -3351.5499   -2902.8128   -39.869291    11500.299 
    7250    301.20823   -3351.5326   -2903.5082   -40.920975     11500.63 
    7260    303.68075   -3352.8995   -2901.1974   -79.839547    11500.961 
    7270    307.66947   -3354.5925   -2896.9574   -130.22118    11501.291 
    7280    310.25108   -3356.0316   -2894.5566   -159.43861    11501.618 
    7290    309.53903   -3355.8641   -2895.4482   -135.03747    11501.943 
    7300    305.45335   -3352.7207   -2898.3819   -44.446255    11502.266 
    7310    299.94404    -3351.289    -2905.145    37.045824    11502.588 
    7320    295.83045   -3347.2163   -2907.1909    128.97343    11502.911 
    7330    295.45671   -3346.6162   -2907.1468    137.94949    11503.237 
    7340    299.85526   -3348.0483   -2902.0363    74.717304    11503.566 
    7350    307.46536   -3352.3481   -2895.0166   -49.381536    11503.896 
    7360    314.13806   -3356.0423   -2888.7857   -151.36444    11504.226 
    7370    316.19094   -3357.5305   -2887.2204   -176.06356    11504.554 
    7380    313.10271   -3354.7719   -2889.0554   -95.210097    11504.878 
    7390    306.88569   -3351.0428   -2894.5736    31.195226    11505.201 
    7400    300.28895   -3346.6808   -2900.0237     164.9538    11505.525 
    7410    296.14492   -3345.2251    -2904.732    233.88975    11505.853 
    7420    295.70378   -3344.7174   -2904.8805     245.9278    11506.185 
    7430    297.99337   -3344.5274   -2901.2849    220.07678    11506.523 
    7440    301.13366   -3344.4907   -2896.5772     179.9314    11506.865 
    7450    304.13189   -3347.2541   -2894.8809    110.27383    11507.211 
    7460    306.31414    -3349.226    -2893.607    61.562227    11507.559 
    7470    306.99747     -3349.44   -2892.8045    49.678238     11507.91 
    7480    306.21822   -3349.3651   -2893.8887     55.58614    11508.261 
    7490    304.35208   -3348.4572   -2895.7566    77.115083    11508.614 
    7500     302.9243    -3346.912   -2896.3351    94.889369    11508.969 
    7510    304.26094   -3348.7339   -2896.1688    44.764974    11509.326 
    7520    308.86742    -3352.016   -2892.5991   -52.207421    11509.684 
    7530    314.80762   -3355.2384   -2886.9859   -157.18438    11510.042 
    7540    319.19313   -3357.7221   -2882.9465   -233.45784    11510.397 
    7550    319.60227    -3359.601   -2884.2169    -260.6929    11510.748 
    7560    315.41536   -3355.7427   -2886.5862   -178.23973    11511.095 
    7570    308.75704   -3350.6815   -2891.4288   -63.118976    11511.438 
    7580    303.84735   -3346.2354   -2894.2855    20.645818    11511.781 
    7590    303.92144   -3346.8585   -2894.7984   -7.7635156    11512.124 
    7600    308.53261   -3350.1529   -2891.2341   -115.95083    11512.468 
    7610    315.08094   -3354.0432   -2885.3842   -250.87262    11512.809 
    7620    320.93329   -3357.8803   -2880.5163   -373.40584    11513.146 
    7630    324.11351   -3360.2517   -2878.1574   -442.27062    11513.477 
    7640    323.43635   -3359.7283   -2878.6413   -429.27299    11513.799 
    7650    319.71592   -3358.5492    -2882.996   -372.59517    11514.113 
    7660    315.82533   -3354.7687   -2885.0024   -281.67891    11514.421 
    7670    313.99839   -3353.1183   -2886.0695   -235.21283    11514.723 
    7680    314.31686   -3351.6752   -2884.1527   -214.78028    11515.021 
    7690     315.2835   -3351.9697   -2883.0094   -222.44935    11515.316 
    7700    314.61365   -3350.6786   -2882.7147   -197.02667    11515.606 
    7710    310.72158   -3350.1989    -2888.024   -150.16724    11515.893 
    7720    304.15057   -3346.0177   -2893.6168   -34.717194    11516.177 
    7730    297.31281   -3342.1944   -2899.9642    79.848732    11516.462 
    7740    293.26501   -3340.7041   -2904.4946    141.76051    11516.748 
    7750    293.84064    -3341.412   -2904.3463    133.19423    11517.036 
    7760    298.49089   -3343.5661   -2899.5835     68.36009    11517.328 
    7770    304.47888   -3347.2405   -2894.3513   -27.399709    11517.621 
    7780    309.14688   -3351.2474   -2891.4149    -113.7672    11517.914 
    7790    311.07368   -3351.7724   -2889.0739   -133.23222    11518.206 
    7800     310.3258   -3351.8828   -2890.2967   -121.32654    11518.495 
    7810     307.9574   -3351.6022   -2893.5389   -90.381785    11518.782 
    7820    305.43581   -3350.0399   -2895.7273   -44.531992    11519.068 
    7830     303.7384   -3349.6714   -2897.8836    -21.94001    11519.353 
    7840    303.09979   -3349.7234   -2898.8854   -15.848337    11519.639 
    7850    302.93624   -3349.6904   -2899.0957   -14.385669    11519.924 
    7860    302.65854   -3349.7153   -2899.5337   -14.747167    11520.209 
    7870    302.86664   -3349.9225   -2899.4313   -26.795339    11520.494 
    7880    305.38257   -3350.3056   -2896.0722   -68.826155    11520.779 
    7890    311.72359    -3353.165   -2889.4998   -180.14303    11521.063 
    7900    321.55808   -3360.0045   -2881.7112   -370.77031    11521.344 
    7910    331.85809   -3366.5012   -2872.8874   -557.79202    11521.617 
    7920    338.10994   -3370.1116   -2867.1987   -666.88374    11521.881 
    7930    337.86647   -3370.4263   -2867.8756   -667.64651    11522.132 
    7940    331.86795   -3367.0069   -2873.3785   -562.61234     11522.37 
    7950    322.98764   -3360.2779   -2879.8583   -387.31784    11522.598 
    7960    314.61616   -3354.2878   -2886.3201   -225.88351    11522.818 
    7970    309.22509   -3351.5523   -2891.6035   -136.60516    11523.035 
    7980    307.53212   -3351.2135   -2893.7828    -119.9803    11523.249 
    7990     308.6522   -3351.3826   -2892.2858   -146.34991     11523.46 
    8000    311.10839   -3352.4151   -2889.6649   -202.31202    11523.669 
    8010     313.6714   -3353.3854    -2886.823   -260.34751    11523.875 
    8020    315.51429   -3355.4694   -2886.1658     -321.103    11524.076 
    8030    316.10417   -3357.2688   -2887.0878   -359.27335     11524.27 
    8040    315.24064   -3356.8152   -2887.9186   -350.72975    11524.458 
    8050    313.66316   -3355.2422    -2888.692   -314.74307     11524.64 
    8060    312.09836    -3354.074   -2889.8513    -277.9751    11524.815 
    8070    310.92505   -3353.6896   -2891.2121   -249.82225    11524.985 
    8080    309.74362   -3352.2501   -2891.5299   -207.09531    11525.151 
    8090    307.42157    -3352.309   -2895.0427   -170.25301    11525.313 
    8100    303.10439   -3348.3168    -2897.472   -70.729221    11525.472 
    8110    297.38051   -3344.6006   -2902.2696    32.550668    11525.629 
    8120    292.69912   -3341.2979   -2905.9302    112.87675    11525.788 
    8130    291.57542   -3339.1112   -2905.4149    139.63086    11525.949 
    8140    294.16815   -3340.7698    -2903.217    83.563887    11526.112 
    8150     297.6463    -3342.867   -2900.1407    13.030378    11526.278 
    8160     298.6586   -3341.3986   -2897.1665    5.2224908    11526.444 
    8170     296.9544   -3339.7519   -2898.0548    25.124235     11526.61 
    8180    295.04168   -3338.7573   -2899.9051    36.477186    11526.777 
    8190    296.00958   -3339.8866   -2899.5948   -7.7425821    11526.945 
    8200    301.61902   -3345.5931   -2896.9577   -151.25682    11527.113 
    8210    311.55533   -3350.4222   -2887.0072    -325.4528    11527.278 
    8220    323.26779   -3358.9072   -2878.0709   -551.95234    11527.437 
    8230    333.02072   -3363.6356   -2868.2926   -706.24499    11527.585 
    8240    337.75868   -3365.2482   -2862.8577    -765.5497     11527.72 
    8250    336.71264   -3364.9531   -2864.1186   -738.44175    11527.841 
    8260    331.31945    -3361.971   -2869.1584   -632.40895    11527.947 
    8270    323.82068   -3357.8969   -2876.2382   -491.06861    11528.042 
    8280    316.70963    -3354.213   -2883.1315   -359.60696    11528.127 
    8290    311.95286   -3352.1935   -2888.1872   -272.13299    11528.205 
    8300     309.1869   -3350.4105   -2890.5184   -211.24226    11528.277 
    8310    306.99003   -3349.0003   -2892.3759   -165.04701    11528.346 
    8320     304.8242   -3348.0026   -2894.5997   -127.29959    11528.412 
    8330    303.21292   -3345.5227   -2894.5165   -77.558764    11528.475 
    8340    302.16058   -3344.8542   -2895.4133   -55.579038    11528.537 
    8350    301.47629   -3346.3944   -2897.9713    -66.09961    11528.598 
    8360    301.26334   -3346.5318   -2898.4254   -69.766965    11528.658 
    8370    302.11633   -3346.5696   -2897.1944   -87.771656    11528.716 
    8380    304.69562   -3347.9876    -2894.776   -143.45346    11528.773 
    8390    309.03806   -3351.2052   -2891.5345   -239.90661    11528.827 
    8400    314.22236   -3354.9709    -2887.589   -351.50275    11528.877 
    8410    318.94753   -3357.2618   -2882.8516   -438.35192     11528.92 
    8420    321.99727   -3358.7358   -2879.7893   -490.67335    11528.954 
    8430    322.48884   -3359.2095   -2879.5318     -495.187    11528.979 
    8440    320.16122   -3357.9898   -2881.7743   -442.66186    11528.995 
    8450     315.6505   -3354.1772    -2884.671   -333.19064    11529.002 
    8460     310.5895   -3351.7194    -2889.741   -233.13952    11529.003 
    8470    306.89497   -3348.7034   -2892.2204   -143.50316    11528.999 
    8480    305.14217   -3347.6056   -2893.7298   -101.50711    11528.993 
    8490    304.52595   -3346.1924   -2893.2332   -75.065192    11528.984 
    8500    304.11183   -3346.4853    -2894.142   -79.392459    11528.974 
    8510    304.61174   -3345.6612   -2892.5743    -86.34914    11528.963 
    8520    307.88405   -3347.9486   -2889.9944   -158.48461     11528.95 
    8530    314.63894   -3352.4928   -2884.4912    -288.0114    11528.934 
    8540    322.25931   -3358.1341   -2878.7978   -435.25627    11528.912 
    8550    327.01844   -3361.2711    -2874.856   -524.24584    11528.882 
    8560    327.34202   -3362.1929   -2875.2965   -541.08697    11528.842 
    8570    323.85526   -3361.6998   -2879.9896   -498.81304    11528.791 
    8580    318.22682   -3357.7176   -2884.3793   -389.60472    11528.731 
    8590    312.24724   -3353.1177   -2888.6736   -266.35955    11528.663 
    8600     307.3095   -3351.0387   -2893.9391    -182.3061    11528.589 
    8610    304.18179   -3348.1622   -2895.7149   -110.96527    11528.512 
    8620    303.32282   -3347.8067    -2896.637   -94.727775    11528.433 
    8630    304.20989   -3348.4545   -2895.9653   -110.16439    11528.352 
    8640    304.87942   -3347.5146   -2894.0296   -108.94149    11528.268 
    8650     303.6619   -3347.0638   -2895.3898   -100.58056    11528.183 
    8660    301.37198    -3345.789    -2897.521   -78.782282    11528.095 
    8670    300.04415   -3345.3997   -2899.1068   -81.430053    11528.006 
    8680    300.39948   -3347.1527   -2900.3312   -127.70106    11527.916 
    8690     302.0573   -3348.8313    -2899.544   -185.54826    11527.822 
    8700    304.67801   -3351.2688   -2898.0834   -255.24311    11527.726 
    8710    307.27035   -3352.8996   -2895.8583    -306.0822    11527.624 
    8720    308.65642   -3352.5692   -2893.4662    -314.3749    11527.516 
    8730    308.66128   -3351.3467   -2892.2364   -292.13143    11527.402 
    8740    307.74951   -3350.5864   -2892.8323   -262.84805    11527.282 
    8750    306.70608   -3351.0581   -2894.8561    -247.4109    11527.157 
    8760    306.58174   -3352.6507   -2896.6336   -258.99204    11527.027 
    8770    308.31783   -3353.4836   -2894.8842   -285.41284    11526.893 
    8780    311.48922   -3355.1171   -2891.8005   -338.56429    11526.752 
    8790    314.09633   -3357.5743   -2890.3798   -397.06566    11526.605 
    8800    314.25472   -3357.6588   -2890.2287   -405.99852     11526.45 
    8810     312.1632   -3354.3149   -2889.9958    -352.6298    11526.287 
    8820    309.14287   -3352.0829   -2892.2564   -301.75194    11526.117 
    8830    306.62076   -3349.5162   -2893.4411    -251.6249    11525.941 
    8840    305.55541   -3349.8697   -2895.3792   -249.90882     11525.76 
    8850    306.61272   -3349.6262    -2893.563   -262.61965    11525.574 
    8860    309.46903   -3351.7363   -2891.4245   -319.32166    11525.382 
    8870    312.36899   -3354.0126   -2889.3874   -376.80729    11525.184 
    8880    313.20342   -3355.8775   -2890.0112   -407.43006    11524.979 
    8890    311.10745   -3355.3203   -2892.5715   -381.29046    11524.766 
    8900    307.26106   -3352.7114   -2895.6838   -316.41308    11524.545 
    8910    304.26247   -3351.8381   -2899.2707   -283.13119    11524.318 
    8920     304.3996   -3350.8917   -2898.1204   -283.79477    11524.085 
    8930     307.8689   -3351.5834   -2893.6517   -338.54338    11523.846 
    8940    312.62913   -3355.7466   -2890.7345   -445.53697    11523.601 
    8950    315.80299   -3359.0224   -2889.2894     -525.818    11523.346 
    8960    315.88398   -3359.7745    -2889.921   -541.75986    11523.081 
    8970     313.2025    -3358.606    -2892.741   -503.00064    11522.806 
    8980    309.83322   -3356.2057   -2895.3523   -438.12601    11522.521 
    8990    307.75264   -3354.7757    -2897.017   -392.17012    11522.227 
    9000    307.40965   -3354.2102   -2896.9616   -369.61187    11521.925 
    9010    308.09248    -3354.839   -2896.5747   -368.59021    11521.615 
    9020    308.53578   -3355.5811   -2896.6575   -364.14449    11521.298 
    9030    307.24075   -3353.3562   -2896.3588   -308.75491    11520.974 
    9040    304.29503     -3351.25   -2898.6342   -241.06798    11520.643 
    9050    301.80372   -3349.7028   -2900.7926    -191.1793    11520.308 
    9060     302.4306   -3349.7821   -2899.9395   -199.74602    11519.968 
    9070    307.16468   -3354.2341   -2897.3499   -309.15085    11519.624 
    9080    314.72831   -3359.6142   -2891.4797   -465.93442    11519.273 
    9090    322.37965   -3365.9898   -2886.4745    -638.2709    11518.913 
    9100    327.16421   -3366.8339    -2880.202   -716.00069    11518.541 
    9110    327.18118    -3369.195   -2882.5378   -753.42631    11518.154 
    9120    322.26008   -3367.4288   -2888.0913   -683.51655    11517.753 
    9130    314.58369    -3363.218   -2895.2986   -550.97628    11517.338 
    9140    308.14737   -3360.0774   -2901.7315   -436.99754    11516.911 
    9150    305.50965   -3359.6664   -2905.2439   -387.29682    11516.476 
    9160    305.25737   -3358.1748   -2904.1276   -350.52217    11516.033 
    9170    304.21321   -3358.4051    -2905.911   -333.00613    11515.583 
    9180    301.30043   -3356.3724   -2908.2109   -279.08188    11515.125 
    9190    297.70421   -3355.2106   -2912.3981   -234.60068    11514.662 
    9200    294.72864   -3352.8745   -2914.4879   -190.01759    11514.194 
    9210    293.52937   -3350.5029   -2913.9003   -171.12443    11513.722 
    9220    295.56729   -3352.3325   -2912.6986   -234.14175    11513.245 
    9230    300.16589   -3357.4066   -2910.9325   -356.14708    11512.764 
    9240    304.43295   -3359.7747   -2906.9537    -437.6243    11512.275 
    9250    305.70803   -3360.0752   -2905.3577   -458.53257    11511.777 
    9260    303.83978   -3358.8637    -2906.925   -423.08933     11511.27 
    9270    300.66142   -3356.0164   -2908.8053    -348.9794    11510.755 
    9280    297.62179   -3354.8346   -2912.1447   -292.70075    11510.231 
    9290    295.28593   -3352.2637   -2913.0483    -230.9581    11509.702 
    9300    294.75163   -3352.3032   -2913.8825   -223.02087    11509.167 
    9310    297.64337    -3354.431    -2911.709   -274.89398    11508.628 
    9320    303.57215   -3359.5873   -2908.0467   -390.42084    11508.082 
    9330    309.79552   -3364.5511   -2903.7538   -503.91945    11507.529 
    9340     313.2733   -3368.2661   -2902.2958   -569.87496    11506.965 
    9350    312.51189    -3367.786   -2902.9483   -538.43272    11506.389 
    9360    308.18974   -3362.7557   -2904.3468   -410.87833    11505.803 
    9370    301.64777    -3358.914   -2910.2358    -268.2767    11505.208 
    9380    294.01535   -3354.0969   -2916.7713   -102.26455    11504.608 
    9390    286.42885   -3349.6998   -2923.6586    51.691325    11504.005 
    9400    280.79559   -3346.5602    -2928.898    161.85019    11503.402 
    9410    278.51774   -3344.5321    -2930.258    214.09562    11502.801 
    9420    279.98353    -3346.102   -2929.6477     175.5397    11502.204 
    9430     285.3047   -3350.2985   -2925.9293    58.929268    11501.609 
    9440    294.12097   -3355.9771   -2918.4945   -113.13272    11501.015 
    9450    304.52346   -3364.1479   -2911.1923   -327.60612    11500.418 
    9460    313.17065   -3370.4081   -2904.5905   -499.91157    11499.815 
    9470    317.70096   -3373.6085   -2901.0524   -591.33903    11499.201 
    9480    317.96088   -3374.5599   -2901.6172    -608.3187    11498.575 
    9490    315.15546   -3372.4647   -2903.6948   -552.03024    11497.937 
    9500    310.14563   -3369.1965   -2907.8783   -456.47625    11497.287 
    9510    304.02294    -3365.332   -2913.1209   -345.09093    11496.628 
    9520    298.64511   -3362.3416   -2918.1296   -253.58254    11495.962 
    9530    295.35504      -3360.7   -2921.3818   -202.11227    11495.289 
    9540    294.95012   -3361.8491   -2923.1332   -215.83415    11494.612 
    9550    297.65034   -3363.9567   -2921.2244   -273.55846     11493.93 
    9560    302.50211   -3368.2547   -2918.3057   -377.18332    11493.242 
    9570    307.41371   -3370.4918   -2913.2373   -454.17068    11492.546 
    9580    309.54755   -3371.0591   -2910.6306   -476.92796    11491.841 
    9590    307.01513   -3370.6921   -2914.0304   -433.68138    11491.125 
    9600     300.7544   -3365.6611   -2918.3117   -293.25954    11490.401 
    9610    293.83973   -3361.6451   -2924.5808   -152.08169     11489.67 
    9620    288.72838    -3357.746   -2928.2844    -29.79723    11488.935 
    9630    286.46956   -3354.5058    -2928.404    49.429412    11488.199 
    9640    287.18314   -3354.8959   -2927.7327    46.989267    11487.463 
    9650    290.47734    -3357.742    -2925.679   -16.148741    11486.727 
    9660    295.04968   -3360.1042   -2921.2402   -89.101723     11485.99 
    9670    298.89774   -3363.3137    -2918.726   -163.41949     11485.25 
    9680    300.53559   -3366.2722   -2919.2483   -210.72101    11484.506 
    9690    300.21874   -3366.3815   -2919.8288   -201.85445    11483.757 
    9700    298.63409    -3366.584   -2922.3885   -178.18559    11483.004 
    9710    296.05685   -3366.0075   -2925.6454   -135.16147    11482.247 
    9720    292.70828   -3364.2666   -2928.8852   -73.563179    11481.486 
    9730    289.58604   -3362.5351   -2931.7978   -19.522852    11480.722 
    9740     289.1845   -3363.3526   -2933.2126   -25.750398    11479.958 
    9750    292.69332   -3365.1292     -2929.77   -82.067448    11479.192 
    9760    297.26289   -3367.5963   -2925.4402   -156.30534    11478.424 
    9770    300.17108   -3367.9325   -2921.4507    -186.0603    11477.652 
    9780    300.90451   -3366.9822   -2919.4095   -169.43615    11476.875 
    9790    299.24006   -3366.4471   -2921.3501   -124.78377    11476.095 
    9800    295.56249   -3365.1255   -2925.4986   -48.818019    11475.311 
    9810    292.10883   -3362.3646   -2927.8748    38.209423    11474.526 
    9820     291.6892   -3363.1483   -2929.2827    49.070773     11473.74 
    9830    294.80999   -3365.9657   -2927.4581     -5.18692    11472.954 
    9840    299.01823   -3368.3079   -2923.5409   -71.924901    11472.167 
    9850    301.21865   -3370.0005   -2921.9606   -118.83457    11471.378 
    9860    300.44714   -3370.2869   -2923.3945   -125.01076    11470.586 
    9870    298.10238    -3368.497   -2925.0923   -92.599089    11469.791 
    9880    296.49009   -3368.8889   -2927.8824    -87.05363    11468.993 
    9890    296.76867   -3370.5074   -2929.0865   -108.41595    11468.192 
    9900    299.02008   -3372.0904   -2927.3207   -142.19146    11467.389 
    9910    301.69925   -3372.9022   -2924.1474   -164.99169    11466.581 
    9920    302.02903   -3373.2367   -2923.9914   -158.48598     11465.77 
    9930     298.8742   -3370.2488   -2925.6961   -83.917419    11464.955 
    9940    294.48045   -3367.8988   -2929.8814   -10.603467    11464.137 
    9950    292.64582   -3367.2075   -2931.9191    17.258365    11463.318 
    9960    294.32226   -3369.3233   -2931.5413   -19.926455    11462.498 
    9970    297.41187   -3370.3834   -2928.0058   -56.315037    11461.678 
    9980    299.45194   -3373.5209   -2928.1088   -100.19731    11460.855 
    9990    299.07253   -3374.9531   -2930.1054   -94.065799    11460.029 
   10000    296.53057   -3373.7946   -2932.7278   -32.299057    11459.201 
Loop time of 3.44538 on 1 procs for 10000 steps with 500 atoms

Performance: 250.770 ns/day, 0.096 hours/ns, 2902.433 timesteps/s
100.0% CPU use with 1 MPI tasks x no OpenMP threads

MPI task timing breakdown:
Section |  min time  |  avg time  |  max time  |%varavg| %total
---------------------------------------------------------------
Pair    | 2.5497     | 2.5497     | 2.5497     |   0.0 | 74.00
Bond    | 0.00071812 | 0.00071812 | 0.00071812 |   0.0 |  0.02
Neigh   | 0.029731   | 0.029731   | 0.029731   |   0.0 |  0.86
Comm    | 0.088721   | 0.088721   | 0.088721   |   0.0 |  2.58
Output  | 0.0089715  | 0.0089715  | 0.0089715  |   0.0 |  0.26
Modify  | 0.34232    | 0.34232    | 0.34232    |   0.0 |  9.94
Other   |            | 0.4253     |            |       | 12.34

Nlocal:    500 ave 500 max 500 min
Histogram: 1 0 0 0 0 0 0 0 0 0
Nghost:    1636 ave 1636 max 1636 min
Histogram: 1 0 0 0 0 0 0 0 0 0
Neighs:    14844 ave 14844 max 14844 min
Histogram: 1 0 0 0 0 0 0 0 0 0

Total # of neighbors = 14844
Ave neighs/atom = 29.688
Ave special neighs/atom = 0
Neighbor list builds = 31
Dangerous builds = 0

#write_data      ${rep}/lj-out.data
Total wall time: 0:00:03
