LAMMPS (22 Sep 2017)
# biaxial NPT deformation of WCA fluid

units		lj
atom_style	atomic


pair_style	lj/cut 1.122562
read_data       data.wca
  orthogonal box = (0 0 0) to (8.39798 8.39798 8.39798)
  1 by 2 by 2 MPI processor grid
  reading atoms ...
  500 atoms
  reading velocities ...
  500 velocities
pair_coeff	1 1 1.0 1.0
pair_modify     shift yes

neighbor	0.5 bin
neigh_modify	delay 0

change_box      all triclinic
  triclinic box = (0 0 0) to (8.39798 8.39798 8.39798) with tilt (0 0 0)

# these commads show the different methods that may be used to impose
# a constant stress through isotropic or anisotropic coupling
fix		1 all npt/uef temp 0.722 0.722 0.5 iso 10 10 5 erate 0.5 0.5 ext z
#fix		1 all npt/uef temp 0.722 0.722 0.5 z 10 10 5  erate 0.5 0.5 ext xyz

fix             2 all momentum 100 linear 1 1 1

#dump		1 all atom 25 dump.lammpstrj

#dump		2 all cfg/uef 25 dump.*.cfg mass type xs ys zs

thermo_style    custom step c_1_press[1] c_1_press[2] c_1_press[3]

thermo		50
run		10000
Neighbor list info ...
  update every 1 steps, delay 0 steps, check yes
  max neighbors/atom: 2000, page size: 100000
  master list distance cutoff = 1.62256
  ghost atom cutoff = 1.62256
  binsize = 0.811281, bins = 11 11 11
  1 neighbor lists, perpetual/occasional/extra = 1 0 0
  (1) pair lj/cut, perpetual
      attributes: half, newton on
      pair build: half/bin/newton/tri
      stencil: half/bin/3d/newton/tri
      bin: standard
Per MPI rank memory allocation (min/avg/max) = 2.71 | 2.71 | 2.71 Mbytes
Step c_1_press[1] c_1_press[2] c_1_press[3] 
       0    6.3937851    7.0436438    6.4461087 
      50     8.656807    7.9950197    15.884241 
     100    11.492654    12.329741    17.658703 
     150    8.6981119    8.6206624    14.114117 
     200    6.1456927    6.4457399    11.199275 
     250    5.5832485    5.5648091    10.400142 
     300    6.1328799    6.3010248    12.010437 
     350    7.1731722    7.5434426    14.588724 
     400    9.3347098    8.6490053    16.710495 
     450    9.5796766    8.9745197    18.230488 
     500    8.4810279    7.6334377    15.050771 
     550    6.5621497     7.401369    12.711355 
     600    6.5868791    6.4912059    13.361745 
     650    7.8188208    7.1180707     14.27939 
     700    7.6714427    7.8664221    14.845323 
     750    7.1545214    8.1596642    14.255973 
     800    8.1950867    8.6441653    15.642584 
     850    8.5624856    8.4004153    15.303218 
     900    7.2513726     7.522694    12.951416 
     950    6.9147537    7.4166804    13.712135 
    1000    7.9356647    7.9447497    14.787788 
    1050    8.0049909    8.3262071    15.736553 
    1100      7.47785    7.8850623    15.063921 
    1150    7.5982542    7.3264305    14.300792 
    1200    7.7141298    7.2955704    14.347839 
    1250     7.421808    7.0057566    13.701565 
    1300    8.0349263    7.8960785    14.360692 
    1350    7.6034411    8.1859894    15.296327 
    1400    7.7403226    7.7959668    15.155558 
    1450    8.0224022    7.2883482    14.979638 
    1500    7.4472686    7.4123823    14.065575 
    1550    7.8838674    7.3268327      14.0089 
    1600    7.7051065    7.6970609    15.025602 
    1650    8.3761114    7.8808173    16.143239 
    1700    7.8493638    7.9974325    15.369229 
    1750    6.7616091    6.9586731    13.253666 
    1800    6.7881829    6.4387333    13.293849 
    1850    7.4819924     8.113677    15.259022 
    1900    7.7619407     7.345373    14.252099 
    1950    9.1160797    8.6024027    16.442885 
    2000    8.8133522    8.1946233    15.676227 
    2050    7.9252468    7.5817269    14.615024 
    2100    7.3824657    7.2766684    15.063532 
    2150    6.8894956    6.7372708    13.607409 
    2200     7.039392     6.685916    13.545476 
    2250    8.0218429    7.5526941    15.263216 
    2300    8.0069299    7.9230893    16.349675 
    2350    7.8564415    8.2913478     14.62257 
    2400    7.4027437    7.0289244    14.244477 
    2450    8.1596868    6.9974968    13.956696 
    2500    7.3792516    6.7751363    13.897864 
    2550    8.7661201    7.9457114      15.3879 
    2600    8.3077502    7.4606043    15.518229 
    2650    7.5270266    8.1888278    14.833414 
    2700    7.9433204     7.872351    15.415577 
    2750    6.9284646    7.2785928    14.175083 
    2800    7.5239578    7.4370418    13.774583 
    2850    6.8456524    7.1993417     13.82663 
    2900    7.9547454    7.8797239    14.967569 
    2950    8.1366854     7.989168    15.722064 
    3000    7.7915591    7.7902194    14.887574 
    3050    8.3076915    8.5022034    15.966604 
    3100    7.3679745    7.2951683    15.032507 
    3150    6.3983597    7.1922179    14.248095 
    3200    7.3135998    7.6677326    14.588216 
    3250    7.7051677    7.4126323    13.935215 
    3300    7.8377055    7.7808126    15.481713 
    3350    8.4304815    8.5666028     14.52102 
    3400     8.090996     7.722647    15.150921 
    3450    8.3389456    7.5739975     14.33015 
    3500    7.6623037    7.2930598    14.361376 
    3550    7.6117545    6.9106485    13.851755 
    3600    7.1508283    7.6269826    13.535534 
    3650    7.4910852    7.9176295    15.691413 
    3700    8.4802801    8.6324769    16.762136 
    3750     7.022402    7.3282804    14.110888 
    3800    7.5627539    7.0503911     14.55662 
    3850    7.2787215    7.2608067    15.046768 
    3900    7.5355799    6.4532442    14.167082 
    3950     8.048962    7.8525579    15.059109 
    4000    7.3175513    8.1005178    14.269317 
    4050     7.520408    8.2682863    14.522748 
    4100    7.6146474    7.7910616    15.199754 
    4150    7.3099191    7.3588162    14.685704 
    4200    7.7659083    7.2886996     14.33525 
    4250    7.5326919    7.4415236    13.874457 
    4300    7.6950275    8.0507821    14.302796 
    4350    7.7170173    8.8246914    14.911061 
    4400    8.0055097    8.4924898    16.225929 
    4450    7.4405645    8.6425584      14.0991 
    4500    6.4050093     6.813939    13.138703 
    4550      6.47962    7.1644972    14.236311 
    4600    7.8672141    7.2404922    15.653959 
    4650    8.1942529    7.4061361    14.232369 
    4700    7.8827633    7.9150952    15.400505 
    4750    7.5095565    7.5093531    15.016387 
    4800      7.75753    7.5830004    14.189254 
    4850     7.840715    7.4954187    15.121937 
    4900    7.5058956    7.5009855    13.389342 
    4950    7.9778116    7.5810052    14.869835 
    5000    8.0941013    7.5222021    15.321999 
    5050    8.6041139    8.3498159    16.208856 
    5100    7.8357702    7.8500124    14.954782 
    5150    8.1036917    7.5357815    15.714879 
    5200    7.4868525    7.4885485    14.167469 
    5250    6.9392666    6.3711563    13.014779 
    5300    7.7294001    7.5681854     14.60363 
    5350    8.2947591    7.5597033    15.076707 
    5400    7.8365134    8.3559985    14.451289 
    5450    7.6577176    7.8573581    14.649332 
    5500    7.6344288    7.6731281    14.411212 
    5550    7.2854884    7.2377463    14.580478 
    5600    7.6332558    7.5037409    14.809068 
    5650    7.2491454    7.5479013    15.196638 
    5700    7.5027918    8.0434388    14.006705 
    5750    8.4679702    7.2893309    15.600406 
    5800      8.11675    8.7790839    15.150116 
    5850    7.8571033    7.1044939    14.730559 
    5900    7.4555155    6.8841813    13.743156 
    5950    7.4269873    7.4363562    13.722307 
    6000     7.014144    7.2841802    14.010536 
    6050    8.2802859     8.741796    16.724881 
    6100    7.9607544    8.2594316    14.965005 
    6150    7.7505098    7.6437264    14.941281 
    6200    7.2637841    7.2845655    14.922083 
    6250    7.4781943    7.3184749    14.627774 
    6300    7.0053246    7.6973025     14.77968 
    6350    6.9682271    7.2193417    13.261589 
    6400    7.6344736    7.5178683    15.586197 
    6450    8.1803746    8.9186636    15.298001 
    6500    7.9535931    8.0466048    15.058292 
    6550     8.056327    8.7108507    15.645091 
    6600    7.3980755     7.087917    13.188502 
    6650    7.3835052    7.2608077     13.95146 
    6700      7.65293    7.0795957    13.742847 
    6750    7.3562754    7.9842502      14.9349 
    6800    8.2494698    8.1508069    15.314676 
    6850    8.1303284    7.8202726     14.50709 
    6900    6.8743362     7.177725    13.485731 
    6950    7.9101459    7.9096716    14.503653 
    7000    7.8164436    8.3236187    16.081817 
    7050    7.7467975    8.7347369      14.9306 
    7100    7.7324222    7.1489428    14.130705 
    7150    6.7791769    6.9011542    14.121399 
    7200    7.6561999    7.5106057    15.234413 
    7250    8.1336506    8.2347678     15.24865 
    7300    6.9098706    7.1934869    14.762268 
    7350    7.1656572    7.7495163    13.867435 
    7400    7.4777956    7.0012888    14.888226 
    7450    8.3176523    7.7845549    15.400925 
    7500    8.2660801    7.5249967    15.313452 
    7550    7.8682936    7.2724016    15.760637 
    7600    7.3975227    7.5654528    13.588662 
    7650    6.7264804    7.1183131    13.219998 
    7700    7.5072355    7.5540796     15.22008 
    7750    7.7421897    8.0113389    14.385238 
    7800    7.6120438    7.9292888     14.66559 
    7850    8.1731646    7.7092319    15.005626 
    7900    8.2285993    8.0637538     15.54714 
    7950    7.7466424    8.3179588     15.10088 
    8000    6.9988726    7.2092201    12.502859 
    8050    7.0919479    7.0585849    14.613424 
    8100    8.0428791    7.8888417    15.945665 
    8150    8.5677024    8.6618742    15.592526 
    8200    7.5972541    7.6902215    14.030522 
    8250    6.8185307    7.1945156    14.452569 
    8300    7.6384046    7.9698235     13.64607 
    8350    7.8378987     7.547662    15.437631 
    8400    8.2496937    7.8279926    14.684647 
    8450    7.5583846    7.5449624    13.393606 
    8500    7.9690263    7.4398188    15.172533 
    8550    8.9148619    8.1181912    14.965998 
    8600    7.9055582    7.8323691    14.778383 
    8650     7.846331    7.3302071    13.812249 
    8700    7.2669615    6.9949093    14.232954 
    8750    7.7494364    7.4431371    13.748379 
    8800    7.9660017    7.6941365    14.366261 
    8850    7.6599154    7.8343017    14.753737 
    8900     7.623307    7.5207726    15.324822 
    8950    7.4784899    7.7901163    15.290832 
    9000      7.93144    8.1349231     16.08637 
    9050    7.7550193    7.6966669    14.554758 
    9100    7.7952657    7.6029648    13.828782 
    9150    7.2915866    7.2140714    13.882209 
    9200    6.8619177    7.2210075    13.702975 
    9250    8.0756482    7.5893593    15.954582 
    9300     8.022774    7.5747016    14.507683 
    9350    7.4993526    8.1111805    14.917379 
    9400    8.8254745    8.0723829    15.717736 
    9450    7.1983725    7.6626286     13.97487 
    9500    7.0602895    7.6733732    13.883137 
    9550    6.5519083    7.4242978    13.607039 
    9600    8.4732891    7.4177194    15.533846 
    9650    8.9193417    8.5982503    16.110043 
    9700    7.8935173    7.8222315     14.42615 
    9750    7.2393047     7.545224    14.557362 
    9800    6.8495209    7.0841522    13.812737 
    9850    6.9791315    7.5743519    13.013286 
    9900    7.4984681    7.8699746    14.977208 
    9950    8.2030761    8.9314031     17.23834 
   10000    9.3670418    8.2034985    15.902349 
Loop time of 1.5138 on 4 procs for 10000 steps with 500 atoms

Performance: 2853736.392 tau/day, 6605.871 timesteps/s
98.4% CPU use with 4 MPI tasks x no OpenMP threads

MPI task timing breakdown:
Section |  min time  |  avg time  |  max time  |%varavg| %total
---------------------------------------------------------------
Pair    | 0.16778    | 0.17518    | 0.17885    |   1.0 | 11.57
Neigh   | 0.55898    | 0.57272    | 0.59026    |   1.6 | 37.83
Comm    | 0.31971    | 0.33993    | 0.36759    |   3.1 | 22.46
Output  | 0.003036   | 0.0033901  | 0.0042133  |   0.8 |  0.22
Modify  | 0.34512    | 0.35303    | 0.35965    |   0.9 | 23.32
Other   |            | 0.06956    |            |       |  4.60

Nlocal:    125 ave 132 max 121 min
Histogram: 2 0 0 0 1 0 0 0 0 1
Nghost:    478 ave 488 max 470 min
Histogram: 1 1 0 0 0 0 1 0 0 1
Neighs:    915.25 ave 981 max 889 min
Histogram: 3 0 0 0 0 0 0 0 0 1

Total # of neighbors = 3661
Ave neighs/atom = 7.322
Neighbor list builds = 4485
Dangerous builds = 0

Please see the log.cite file for references relevant to this simulation

Total wall time: 0:00:01
