LAMMPS (18 Jun 2019)
variable number	equal 2
variable ofreq	equal 1000
variable efreq	equal 1000
variable T      equal 0.1

units lj

dimension 3

newton off

boundary  p p p

atom_style hybrid bond ellipsoid
atom_modify sort 0 1.0

# Pair interactions require lists of neighbours to be calculated
neighbor 1.0 bin
neigh_modify every 1 delay 0 check yes

read_data data.duplex2
  orthogonal box = (-20 -20 -20) to (20 20 20)
  1 by 2 by 2 MPI processor grid
  reading atoms ...
  16 atoms
  reading velocities ...
  16 velocities
  16 ellipsoids
  scanning bonds ...
  2 = max bonds/atom
  reading bonds ...
  13 bonds
  2 = max # of 1-2 neighbors
  2 = max # of 1-3 neighbors
  4 = max # of 1-4 neighbors
  6 = max # of special neighbors
  special bonds CPU = 0.000189 secs
  read_data CPU = 0.003505 secs

set atom * mass 3.1575
  16 settings made for mass

group all type 1 4
16 atoms in group all

# oxDNA bond interactions - FENE backbone
bond_style oxdna/fene
bond_coeff * 2.0 0.25 0.7525

# oxDNA pair interactions
pair_style hybrid/overlay oxdna/excv oxdna/stk oxdna/hbond oxdna/xstk oxdna/coaxstk
pair_coeff * * oxdna/excv    2.0 0.7 0.675 2.0 0.515 0.5 2.0 0.33 0.32
pair_coeff * * oxdna/stk     seqav ${T} 1.3448 2.6568 6.0 0.4 0.9 0.32 0.6 1.3 0 0.8 0.9 0 0.95 0.9 0 0.95 2.0 0.65 2.0 0.65
pair_coeff * * oxdna/stk     seqav 0.1 1.3448 2.6568 6.0 0.4 0.9 0.32 0.6 1.3 0 0.8 0.9 0 0.95 0.9 0 0.95 2.0 0.65 2.0 0.65
pair_coeff * * oxdna/hbond   seqav 0.0   8.0 0.4 0.75 0.34 0.7 1.5 0 0.7 1.5 0 0.7 1.5 0 0.7 0.46 3.141592653589793 0.7 4.0 1.5707963267948966 0.45 4.0 1.5707963267948966 0.45
pair_coeff 1 4 oxdna/hbond   seqav 1.077 8.0 0.4 0.75 0.34 0.7 1.5 0 0.7 1.5 0 0.7 1.5 0 0.7 0.46 3.141592653589793 0.7 4.0 1.5707963267948966 0.45 4.0 1.5707963267948966 0.45
pair_coeff 2 3 oxdna/hbond   seqav 1.077 8.0 0.4 0.75 0.34 0.7 1.5 0 0.7 1.5 0 0.7 1.5 0 0.7 0.46 3.141592653589793 0.7 4.0 1.5707963267948966 0.45 4.0 1.5707963267948966 0.45
pair_coeff * * oxdna/xstk    47.5 0.575 0.675 0.495 0.655 2.25 0.791592653589793 0.58 1.7 1.0 0.68 1.7 1.0 0.68 1.5 0 0.65 1.7 0.875 0.68 1.7 0.875 0.68
pair_coeff * * oxdna/coaxstk 46.0 0.4 0.6 0.22 0.58 2.0 2.541592653589793 0.65 1.3 0 0.8 0.9 0 0.95 0.9 0 0.95 2.0 -0.65 2.0 -0.65

# NVE ensemble
#fix 1 all nve/dot
fix 1 all nve/dotc/langevin ${T} ${T} 0.03 457145 angmom 10
fix 1 all nve/dotc/langevin 0.1 ${T} 0.03 457145 angmom 10
fix 1 all nve/dotc/langevin 0.1 0.1 0.03 457145 angmom 10
#fix 1 all nve/asphere
#fix 2 all langevin ${T} ${T} 0.03 457145 angmom 10

timestep 1e-5

#comm_style tiled
#fix 3 all balance 10000 1.1 rcb

#compute mol all chunk/atom molecule
#compute mychunk all vcm/chunk mol
#fix 4 all ave/time 10000 1 10000 c_mychunk[1] c_mychunk[2] c_mychunk[3] file vcm.txt mode vector

#dump pos all xyz ${ofreq} traj.${number}.xyz

#compute quat all property/atom quatw quati quatj quatk
#dump quat all custom ${ofreq} quat.${number}.txt id c_quat[1] c_quat[2] c_quat[3] c_quat[4]
#dump_modify quat sort id
#dump_modify quat format line "%d  %13.6le  %13.6le  %13.6le  %13.6le"

compute erot all erotate/asphere
compute ekin all ke
compute epot all pe
variable erot equal c_erot
variable ekin equal c_ekin
variable epot equal c_epot
variable etot equal c_erot+c_ekin+c_epot
fix 5 all print ${efreq} "$(step)  ekin = ${ekin} |  erot = ${erot} | epot = ${epot} | etot = ${etot}" screen yes
fix 5 all print 1000 "$(step)  ekin = ${ekin} |  erot = ${erot} | epot = ${epot} | etot = ${etot}" screen yes

#dump out all custom ${ofreq} out.${number}.txt id x y z vx vy vz fx fy fz tqx tqy tqz
#dump_modify out sort id
#dump_modify out format line "%d   %13.6le %13.6le %13.6le  %13.6le %13.6le %13.6le  %13.6le %13.6le %13.6le  %13.6le %13.6le %13.6le"

run 1000000
Neighbor list info ...
  update every 1 steps, delay 0 steps, check yes
  max neighbors/atom: 2000, page size: 100000
  master list distance cutoff = 1.92828
  ghost atom cutoff = 1.92828
  binsize = 0.964142, bins = 42 42 42
  5 neighbor lists, perpetual/occasional/extra = 5 0 0
  (1) pair oxdna/excv, perpetual
      attributes: half, newton off
      pair build: half/bin/newtoff
      stencil: half/bin/3d/newtoff
      bin: standard
  (2) pair oxdna/stk, perpetual, copy from (1)
      attributes: half, newton off
      pair build: copy
      stencil: none
      bin: none
  (3) pair oxdna/hbond, perpetual, copy from (1)
      attributes: half, newton off
      pair build: copy
      stencil: none
      bin: none
  (4) pair oxdna/xstk, perpetual, copy from (1)
      attributes: half, newton off
      pair build: copy
      stencil: none
      bin: none
  (5) pair oxdna/coaxstk, perpetual, copy from (1)
      attributes: half, newton off
      pair build: copy
      stencil: none
      bin: none
Per MPI rank memory allocation (min/avg/max) = 7.466 | 7.648 | 7.83 Mbytes
Step Temp E_pair E_mol TotEng Press 
       0            0   -1.5402493 0.0070469125   -1.5332024 6.0760034e-06 
1000  ekin = 1.34565986428024 |  erot = 2.31051421234078 | epot = -24.5061991591502 | etot = -20.8500250825292
2000  ekin = 2.15911766687235 |  erot = 2.16031365874706 | epot = -24.4723177103698 | etot = -20.1528863847504
3000  ekin = 3.26561948796015 |  erot = 2.75651822936605 | epot = -24.412573068346 | etot = -18.3904353510198
4000  ekin = 1.92438809241066 |  erot = 2.12016940074985 | epot = -24.3496233970111 | etot = -20.3050659038505
5000  ekin = 1.35986357015476 |  erot = 1.99413493074226 | epot = -24.2789445616949 | etot = -20.9249460607979
6000  ekin = 2.19432475124593 |  erot = 1.74281260409078 | epot = -24.2128064295788 | etot = -20.2756690742421
7000  ekin = 2.65619274477635 |  erot = 1.74094257048458 | epot = -24.1673462333493 | etot = -19.7702109180883
8000  ekin = 2.51333548501169 |  erot = 2.34649854571052 | epot = -24.0812769481836 | etot = -19.2214429174614
9000  ekin = 2.24506493169711 |  erot = 2.0652555461504 | epot = -23.9906736063989 | etot = -19.6803531285514
10000  ekin = 2.36632635249862 |  erot = 1.79592471761529 | epot = -23.9002627850602 | etot = -19.7380117149463
11000  ekin = 2.03296432220126 |  erot = 1.687070009478 | epot = -23.8527188138995 | etot = -20.1326844822202
12000  ekin = 2.65352743446956 |  erot = 2.50226345616878 | epot = -23.8480805937578 | etot = -18.6922897031194
13000  ekin = 1.89067421214403 |  erot = 2.35043092595414 | epot = -23.7714712440931 | etot = -19.5303661059949
14000  ekin = 1.90680463918722 |  erot = 2.127459870274 | epot = -23.7545354032947 | etot = -19.7202708938335
15000  ekin = 2.40428667481004 |  erot = 2.06172433796653 | epot = -23.6726347642127 | etot = -19.2066237514361
16000  ekin = 2.7510166356243 |  erot = 1.18896277635345 | epot = -23.5745121257654 | etot = -19.6345327137876
17000  ekin = 2.44090826892662 |  erot = 2.38166706806442 | epot = -23.5888433865641 | etot = -18.766268049573
18000  ekin = 2.16977970545217 |  erot = 2.46915729098831 | epot = -23.6023194416344 | etot = -18.9633824451939
19000  ekin = 2.19378610033861 |  erot = 2.45183819484608 | epot = -23.5449084745393 | etot = -18.8992841793546
20000  ekin = 2.07734013817241 |  erot = 1.81448496219961 | epot = -23.5782673056894 | etot = -19.6864422053173
21000  ekin = 2.27781532351243 |  erot = 2.76369118136087 | epot = -23.5986545956161 | etot = -18.5571480907428
22000  ekin = 2.69375785791379 |  erot = 1.86436952967315 | epot = -23.5521083325077 | etot = -18.9939809449208
23000  ekin = 1.99952884103097 |  erot = 2.28032953163858 | epot = -23.4448504933921 | etot = -19.1649921207226
24000  ekin = 2.19993258930349 |  erot = 2.97916455146846 | epot = -23.365299008021 | etot = -18.1862018672491
25000  ekin = 2.28089469652686 |  erot = 2.97627567077201 | epot = -23.2873526827526 | etot = -18.0301823154537
26000  ekin = 1.99390998801618 |  erot = 2.79250495479073 | epot = -23.1859723519608 | etot = -18.3995574091539
27000  ekin = 2.00992865272585 |  erot = 2.66533768693446 | epot = -23.0781687640813 | etot = -18.402902424421
28000  ekin = 2.00322172723407 |  erot = 2.36418499091004 | epot = -23.0032647032354 | etot = -18.6358579850913
29000  ekin = 2.52361436071784 |  erot = 2.06140753694879 | epot = -22.9685706338047 | etot = -18.383548736138
30000  ekin = 1.94969919616482 |  erot = 2.13601590002587 | epot = -22.8657664932105 | etot = -18.7800513970198
31000  ekin = 1.81286761012387 |  erot = 2.31717861791922 | epot = -22.8372197907213 | etot = -18.7071735626782
32000  ekin = 1.88389491638451 |  erot = 2.00512246825909 | epot = -22.9321024454487 | etot = -19.0430850608051
33000  ekin = 1.78524470387102 |  erot = 1.83154598239148 | epot = -22.9538943248059 | etot = -19.3371036385434
34000  ekin = 2.28023843988047 |  erot = 3.11357086039976 | epot = -23.0617618407572 | etot = -17.6679525404769
35000  ekin = 2.88795920533174 |  erot = 1.81662227096288 | epot = -23.1342233361349 | etot = -18.4296418598403
36000  ekin = 2.40018487148211 |  erot = 2.59182059399979 | epot = -23.2153198761915 | etot = -18.2233144107096
37000  ekin = 2.22699211630433 |  erot = 1.73889017332476 | epot = -23.2291614908027 | etot = -19.2632792011736
38000  ekin = 2.13593461964592 |  erot = 3.07590136326317 | epot = -23.1607724763685 | etot = -17.9489364934594
39000  ekin = 2.08839393640823 |  erot = 2.80471150509565 | epot = -23.1352878747759 | etot = -18.242182433272
40000  ekin = 2.94982054413846 |  erot = 2.19484102372242 | epot = -23.1842229043853 | etot = -18.0395613365244
41000  ekin = 2.47855373480178 |  erot = 3.46795094832273 | epot = -23.1698888629099 | etot = -17.2233841797854
42000  ekin = 2.57225931171306 |  erot = 3.11160980977123 | epot = -23.0914425999525 | etot = -17.4075734784682
43000  ekin = 2.16695829201326 |  erot = 2.67063324875933 | epot = -22.9841690345739 | etot = -18.1465774938013
44000  ekin = 2.3251045436594 |  erot = 3.31069456451417 | epot = -22.9099977707014 | etot = -17.2741986625278
45000  ekin = 1.8593572517472 |  erot = 3.48256913429863 | epot = -22.7853293556222 | etot = -17.4434029695763
46000  ekin = 2.59906260222482 |  erot = 2.2320785378511 | epot = -22.67184319375 | etot = -17.8407020536741
47000  ekin = 1.9041935097682 |  erot = 3.39352467596442 | epot = -22.5624536061979 | etot = -17.2647354204653
48000  ekin = 2.46191536162938 |  erot = 2.50024189038396 | epot = -22.5888330081063 | etot = -17.626675756093
49000  ekin = 3.18008619674965 |  erot = 2.18329398142911 | epot = -22.6110647388653 | etot = -17.2476845606865
50000  ekin = 2.92380640638808 |  erot = 1.5483538313346 | epot = -22.6682279672282 | etot = -18.1960677295055
51000  ekin = 2.86729503225236 |  erot = 2.67529217516738 | epot = -22.6748886664557 | etot = -17.132301459036
52000  ekin = 2.30283827457731 |  erot = 1.82645474029553 | epot = -22.6607030819086 | etot = -18.5314100670358
53000  ekin = 3.18697616339313 |  erot = 1.67211265049679 | epot = -22.7158951183044 | etot = -17.8568063044145
54000  ekin = 2.63274995193146 |  erot = 1.96664130685844 | epot = -22.7877787224364 | etot = -18.1883874636465
55000  ekin = 3.18311630681888 |  erot = 2.85127254864952 | epot = -22.8390589862477 | etot = -16.8046701307793
56000  ekin = 2.55275960671527 |  erot = 3.05720384772627 | epot = -22.8187750450683 | etot = -17.2088115906267
57000  ekin = 2.43682051944963 |  erot = 3.45782031837861 | epot = -22.7770565571277 | etot = -16.8824157192995
58000  ekin = 1.93888380963701 |  erot = 2.51321017005842 | epot = -22.7135987564736 | etot = -18.2615047767781
59000  ekin = 2.5584899615086 |  erot = 3.52166542523796 | epot = -22.6623202639297 | etot = -16.5821648771831
60000  ekin = 2.80661395039301 |  erot = 2.89055248290059 | epot = -22.5801959967487 | etot = -16.8830295634551
61000  ekin = 2.68598657973729 |  erot = 2.54741083070049 | epot = -22.4806361765055 | etot = -17.2472387660677
62000  ekin = 2.74493324548126 |  erot = 2.23648307303268 | epot = -22.4129547813458 | etot = -17.4315384628319
63000  ekin = 2.65627195091608 |  erot = 2.46107949280746 | epot = -22.3986334001314 | etot = -17.2812819564079
64000  ekin = 2.12379240032878 |  erot = 2.79203441675508 | epot = -22.3495990435982 | etot = -17.4337722265143
65000  ekin = 1.86782238979936 |  erot = 2.70277079938775 | epot = -22.3710220966341 | etot = -17.800428907447
66000  ekin = 2.74983103317414 |  erot = 1.93532287297328 | epot = -22.3642892005435 | etot = -17.6791352943961
67000  ekin = 2.51092055125345 |  erot = 2.46618624666164 | epot = -22.3997780561407 | etot = -17.4226712582257
68000  ekin = 2.95469759114172 |  erot = 1.97026833535316 | epot = -22.465077041847 | etot = -17.5401111153521
69000  ekin = 2.60179538487173 |  erot = 2.27022574694886 | epot = -22.4013876082186 | etot = -17.529366476398
70000  ekin = 2.38624525335423 |  erot = 2.82124637267728 | epot = -22.3329612644329 | etot = -17.1254696384013
71000  ekin = 2.62641919853461 |  erot = 2.89332429923839 | epot = -22.3324946257813 | etot = -16.8127511280083
72000  ekin = 2.93199679301318 |  erot = 2.83600213853038 | epot = -22.4418753486332 | etot = -16.6738764170897
73000  ekin = 2.20521324648382 |  erot = 3.0506384171445 | epot = -22.5078076718832 | etot = -17.2519560082549
74000  ekin = 2.16594519672766 |  erot = 2.82993872672918 | epot = -22.5187768617569 | etot = -17.5228929383001
75000  ekin = 1.52753824412461 |  erot = 1.91758574309003 | epot = -22.6434864113427 | etot = -19.198362424128
76000  ekin = 1.89477517532868 |  erot = 2.83145375092217 | epot = -22.7507099037207 | etot = -18.0244809774699
77000  ekin = 2.84722966394523 |  erot = 3.20523918524771 | epot = -22.8263123696514 | etot = -16.7738435204585
78000  ekin = 2.44900478430451 |  erot = 2.80964787966682 | epot = -22.8119237303111 | etot = -17.5532710663397
79000  ekin = 2.16549328835506 |  erot = 1.67531288307153 | epot = -22.8278994273521 | etot = -18.9870932559255
80000  ekin = 2.38929173610466 |  erot = 2.58355997375491 | epot = -22.7453472674483 | etot = -17.7724955575887
81000  ekin = 2.74182188148999 |  erot = 1.92580771183151 | epot = -22.6872721828913 | etot = -18.0196425895698
82000  ekin = 1.90254633515813 |  erot = 1.70958501101745 | epot = -22.5904815431895 | etot = -18.9783501970139
83000  ekin = 1.63862423461032 |  erot = 1.87668722448406 | epot = -22.5030898166236 | etot = -18.9877783575292
84000  ekin = 1.65768128899531 |  erot = 2.10186039233844 | epot = -22.4199436013011 | etot = -18.6604019199674
85000  ekin = 2.40787065796921 |  erot = 2.04965431830703 | epot = -22.3401854879212 | etot = -17.882660511645
86000  ekin = 2.51073542405177 |  erot = 1.79768841940749 | epot = -22.3948638623201 | etot = -18.0864400188608
87000  ekin = 2.13729284484532 |  erot = 1.97886338867606 | epot = -22.4457225556767 | etot = -18.3295663221553
88000  ekin = 1.7511616822056 |  erot = 2.36434608342924 | epot = -22.4232555875236 | etot = -18.3077478218887
89000  ekin = 1.85498863251071 |  erot = 3.29466014836527 | epot = -22.4615925106509 | etot = -17.3119437297749
90000  ekin = 2.22730928223451 |  erot = 2.36761183779185 | epot = -22.5498488806969 | etot = -17.9549277606706
91000  ekin = 2.40026068010467 |  erot = 3.1312454261103 | epot = -22.5445138059197 | etot = -17.0130076997047
92000  ekin = 2.69184894487886 |  erot = 3.01111638487596 | epot = -22.5488335054242 | etot = -16.8458681756693
93000  ekin = 3.04452081584098 |  erot = 3.0289315825034 | epot = -22.4857514998612 | etot = -16.4122991015169
94000  ekin = 3.21054020599498 |  erot = 1.87554208928457 | epot = -22.58235617796 | etot = -17.4962738826805
95000  ekin = 3.49164555041805 |  erot = 2.89107259754101 | epot = -22.651746211573 | etot = -16.2690280636139
96000  ekin = 2.8961145983777 |  erot = 2.38403691628048 | epot = -22.6376886129393 | etot = -17.3575370982811
97000  ekin = 1.94001816357315 |  erot = 2.09603205774619 | epot = -22.6212143095229 | etot = -18.5851640882036
98000  ekin = 2.21812472183551 |  erot = 3.66512951907029 | epot = -22.5400207863669 | etot = -16.6567665454611
99000  ekin = 1.96304801418099 |  erot = 2.78092002528644 | epot = -22.4500077741119 | etot = -17.7060397346444
100000  ekin = 1.78146596589238 |  erot = 2.66087063973067 | epot = -22.3806285021859 | etot = -17.9382918965629
101000  ekin = 2.13576431486591 |  erot = 2.39189697670582 | epot = -22.3671198416411 | etot = -17.8394585500694
102000  ekin = 1.54265458925823 |  erot = 2.31301627489861 | epot = -22.3596033820568 | etot = -18.5039325179
103000  ekin = 1.6493299781162 |  erot = 2.82700146777614 | epot = -22.4044472055819 | etot = -17.9281157596895
104000  ekin = 1.88425130865015 |  erot = 3.36695629589132 | epot = -22.4614117565727 | etot = -17.2102041520312
105000  ekin = 2.0873628063424 |  erot = 1.99902589912497 | epot = -22.4857870795246 | etot = -18.3993983740572
106000  ekin = 2.85192200005481 |  erot = 1.96124421177818 | epot = -22.4885148263279 | etot = -17.6753486144949
107000  ekin = 2.27699301124082 |  erot = 1.54572940373457 | epot = -22.4328687856414 | etot = -18.610146370666
108000  ekin = 2.43341212242248 |  erot = 1.7101452395327 | epot = -22.4750159709763 | etot = -18.3314586090212
109000  ekin = 2.3240302459673 |  erot = 2.92730273400661 | epot = -22.4544447404649 | etot = -17.203111760491
110000  ekin = 2.75939007795593 |  erot = 2.3726124845783 | epot = -22.4066316113363 | etot = -17.2746290488021
111000  ekin = 2.30202775259985 |  erot = 2.09098171366697 | epot = -22.340628179725 | etot = -17.9476187134581
112000  ekin = 2.89672803093986 |  erot = 1.84536318388285 | epot = -22.189229344937 | etot = -17.4471381301143
113000  ekin = 2.802868120203 |  erot = 1.68317583122193 | epot = -22.1739192926257 | etot = -17.6878753412008
114000  ekin = 3.41134331362353 |  erot = 2.66279011393036 | epot = -22.2993892060878 | etot = -16.2252557785339
115000  ekin = 3.04096848543598 |  erot = 1.72164164793761 | epot = -22.3101669297006 | etot = -17.547556796327
116000  ekin = 3.18249263106367 |  erot = 3.21872780579631 | epot = -22.3766120310369 | etot = -15.975391594177
117000  ekin = 3.04033644338918 |  erot = 2.4163277414929 | epot = -22.3406101341932 | etot = -16.8839459493111
118000  ekin = 3.2297663279461 |  erot = 1.46870208555873 | epot = -22.262910646297 | etot = -17.5644422327922
119000  ekin = 2.35815331598994 |  erot = 3.07464675916892 | epot = -22.21629705762 | etot = -16.7834969824611
120000  ekin = 1.93901604028919 |  erot = 2.21087803685818 | epot = -22.1596747789505 | etot = -18.0097807018031
121000  ekin = 1.94791988346889 |  erot = 3.06697908719322 | epot = -22.1473490758084 | etot = -17.1324501051462
122000  ekin = 1.69642311218451 |  erot = 1.71065948591522 | epot = -22.235021693017 | etot = -18.8279390949172
123000  ekin = 1.74537927001903 |  erot = 2.31042772730644 | epot = -22.3250546948603 | etot = -18.2692476975348
124000  ekin = 2.74229806685692 |  erot = 1.94346011848795 | epot = -22.3376426377462 | etot = -17.6518844524013
125000  ekin = 2.77628031613761 |  erot = 1.95737420539167 | epot = -22.3561899601979 | etot = -17.6225354386686
126000  ekin = 2.05898577806786 |  erot = 1.47493157618749 | epot = -22.3918669376121 | etot = -18.8579495833568
127000  ekin = 1.88620727578863 |  erot = 1.58698481884328 | epot = -22.3753405588623 | etot = -18.9021484642304
128000  ekin = 1.65027256647601 |  erot = 1.87589048163674 | epot = -22.3576574967822 | etot = -18.8314944486694
129000  ekin = 2.51771860981078 |  erot = 2.38745668871875 | epot = -22.3622404512641 | etot = -17.4570651527346
130000  ekin = 1.60778116741171 |  erot = 2.81983062254802 | epot = -22.3043401463426 | etot = -17.8767283563829
131000  ekin = 2.27966529707091 |  erot = 2.29465997580789 | epot = -22.1860056729234 | etot = -17.6116804000446
132000  ekin = 2.94605151024306 |  erot = 2.34727265039698 | epot = -22.1004107829512 | etot = -16.8070866223112
133000  ekin = 2.00184520718143 |  erot = 2.13597622566089 | epot = -22.0860804435183 | etot = -17.948259010676
134000  ekin = 1.54536260297594 |  erot = 2.86019181856985 | epot = -22.0324797134652 | etot = -17.6269252919194
135000  ekin = 1.7899169229158 |  erot = 2.40585579784188 | epot = -22.0564792277569 | etot = -17.8607065069992
136000  ekin = 1.63315069688348 |  erot = 2.13968964990471 | epot = -22.0645410751455 | etot = -18.2917007283573
137000  ekin = 2.36475220491125 |  erot = 1.93075105476848 | epot = -22.101884847306 | etot = -17.8063815876262
138000  ekin = 2.9554682114977 |  erot = 1.58329215843879 | epot = -22.158920719349 | etot = -17.6201603494125
139000  ekin = 3.18559985564368 |  erot = 2.24978247982886 | epot = -22.2766713145625 | etot = -16.84128897909
140000  ekin = 2.25331500051846 |  erot = 3.04264261269698 | epot = -22.4413209794807 | etot = -17.1453633662653
141000  ekin = 1.8939664036255 |  erot = 3.12730191483887 | epot = -22.6943708703895 | etot = -17.6731025519251
142000  ekin = 2.48698722341786 |  erot = 2.50204475841097 | epot = -22.8022645411412 | etot = -17.8132325593124
143000  ekin = 2.39031114354901 |  erot = 2.72027514737474 | epot = -22.7789363640121 | etot = -17.6683500730884
144000  ekin = 1.93009742932803 |  erot = 2.68112648713777 | epot = -22.6600942975092 | etot = -18.0488703810434
145000  ekin = 1.81543048110687 |  erot = 1.73927524532866 | epot = -22.6290694904769 | etot = -19.0743637640413
146000  ekin = 2.4125202126428 |  erot = 2.0856902293417 | epot = -22.560764077018 | etot = -18.0625536350335
147000  ekin = 1.44642974398304 |  erot = 1.86921415702345 | epot = -22.4437745695725 | etot = -19.128130668566
148000  ekin = 1.94224767107089 |  erot = 2.57935525538892 | epot = -22.4110987100046 | etot = -17.8894957835448
149000  ekin = 2.03195649040454 |  erot = 3.31786202502786 | epot = -22.312227106758 | etot = -16.9624085913256
150000  ekin = 2.47792894576431 |  erot = 2.68612874200302 | epot = -22.1392843642772 | etot = -16.9752266765099
151000  ekin = 2.75692645092955 |  erot = 1.88122565848133 | epot = -21.9329416416722 | etot = -17.2947895322613
152000  ekin = 2.7753834344323 |  erot = 1.78115734250796 | epot = -21.745072490984 | etot = -17.1885317140438
153000  ekin = 3.09316888168833 |  erot = 1.80744228044955 | epot = -21.6451473427313 | etot = -16.7445361805934
154000  ekin = 2.31433640945477 |  erot = 2.19304386678896 | epot = -21.5946356595636 | etot = -17.0872553833199
155000  ekin = 1.94169881401553 |  erot = 2.67959698479411 | epot = -21.6941053409436 | etot = -17.0728095421339
156000  ekin = 2.69151609119638 |  erot = 2.25048211983205 | epot = -21.7610571974251 | etot = -16.8190589863966
157000  ekin = 3.89507004263776 |  erot = 2.74501587672577 | epot = -21.8157728797742 | etot = -15.1756869604107
158000  ekin = 2.88173407476086 |  erot = 2.69702262693026 | epot = -21.8854957137509 | etot = -16.3067390120597
159000  ekin = 3.15173323195919 |  erot = 2.61743473710129 | epot = -21.8245251626835 | etot = -16.055357193623
160000  ekin = 2.54983562435716 |  erot = 3.26037467643908 | epot = -21.8527884226329 | etot = -16.0425781218366
161000  ekin = 2.47569624391789 |  erot = 2.44418416527208 | epot = -21.7973550812186 | etot = -16.8774746720287
162000  ekin = 2.9422872213738 |  erot = 2.59784970938383 | epot = -21.7813251561028 | etot = -16.2411882253452
163000  ekin = 3.25812805712343 |  erot = 2.2523933100784 | epot = -21.820089307521 | etot = -16.3095679403192
164000  ekin = 3.52786799143084 |  erot = 2.22392713421413 | epot = -21.7646946348872 | etot = -16.0128995092422
165000  ekin = 2.47839548873417 |  erot = 2.58744140761171 | epot = -21.679095294504 | etot = -16.6132583981582
166000  ekin = 2.14435847552791 |  erot = 3.04732688845808 | epot = -21.6219995979976 | etot = -16.4303142340116
167000  ekin = 2.77664659649902 |  erot = 2.89037999868329 | epot = -21.5339928834654 | etot = -15.8669662882831
168000  ekin = 1.74464407802389 |  erot = 2.78052653338967 | epot = -21.4288999288374 | etot = -16.9037293174239
169000  ekin = 1.80689129093329 |  erot = 2.46391033708927 | epot = -21.4128285618694 | etot = -17.1420269338468
170000  ekin = 1.6949814594151 |  erot = 2.88911238881154 | epot = -21.4319269866203 | etot = -16.8478331383937
171000  ekin = 2.15326316196645 |  erot = 1.61346547801869 | epot = -21.2861470779283 | etot = -17.5194184379432
172000  ekin = 1.67904916339532 |  erot = 2.36509147316375 | epot = -21.1250864759441 | etot = -17.080945839385
173000  ekin = 2.05349972960735 |  erot = 2.1886466510775 | epot = -21.0744450592631 | etot = -16.8322986785782
174000  ekin = 2.49402795941962 |  erot = 3.10392317000879 | epot = -20.9332609664624 | etot = -15.335309837034
175000  ekin = 2.60611029063986 |  erot = 2.90993176119182 | epot = -20.8533230180668 | etot = -15.3372809662352
176000  ekin = 2.14535974511637 |  erot = 2.67710511021539 | epot = -20.8508037764829 | etot = -16.0283389211511
177000  ekin = 2.82654664242577 |  erot = 2.80647819657321 | epot = -20.9303681620826 | etot = -15.2973433230836
178000  ekin = 3.17006270723388 |  erot = 1.88204403688962 | epot = -21.0665744865168 | etot = -16.0144677423933
179000  ekin = 2.33834827123178 |  erot = 2.84870047825869 | epot = -21.1082901606943 | etot = -15.9212414112039
180000  ekin = 2.39362550925045 |  erot = 2.94575326168227 | epot = -21.1089731290028 | etot = -15.7695943580701
181000  ekin = 2.78703231260152 |  erot = 3.29998898392537 | epot = -21.0761138110654 | etot = -14.9890925145385
182000  ekin = 3.02338391239199 |  erot = 2.32533107462881 | epot = -21.0444377426861 | etot = -15.6957227556653
183000  ekin = 2.44126401356994 |  erot = 2.19853056632819 | epot = -20.8846280234405 | etot = -16.2448334435424
184000  ekin = 2.56448211253962 |  erot = 2.77267067014066 | epot = -20.6657911214549 | etot = -15.3286383387746
185000  ekin = 2.16427057092672 |  erot = 1.95880146934286 | epot = -20.5647658775173 | etot = -16.4416938372477
186000  ekin = 2.06536030915311 |  erot = 3.14593463137772 | epot = -20.4537584304771 | etot = -15.2424634899463
187000  ekin = 2.43846121057803 |  erot = 1.93593042270703 | epot = -20.4775765627296 | etot = -16.1031849294445
188000  ekin = 2.28827356508696 |  erot = 2.89699235589217 | epot = -20.6028880527163 | etot = -15.4176221317372
189000  ekin = 1.67206333515898 |  erot = 3.05807378739729 | epot = -20.6184572736204 | etot = -15.8883201510642
190000  ekin = 1.96995062226968 |  erot = 2.94301967439401 | epot = -20.6150380630742 | etot = -15.7020677664105
191000  ekin = 2.31558303301195 |  erot = 2.65062200614568 | epot = -20.5845049099943 | etot = -15.6182998708367
192000  ekin = 3.58105122568799 |  erot = 2.89866835149675 | epot = -20.555036456006 | etot = -14.0753168788213
193000  ekin = 2.69738971383614 |  erot = 3.08390984677749 | epot = -20.5718609412494 | etot = -14.7905613806358
194000  ekin = 2.65963556416735 |  erot = 2.28486501061268 | epot = -20.4488832942326 | etot = -15.5043827194526
195000  ekin = 1.85289053427901 |  erot = 2.65318671222087 | epot = -20.3816844231208 | etot = -15.8756071766209
196000  ekin = 2.28257181147918 |  erot = 2.31175601065462 | epot = -20.4051132325268 | etot = -15.810785410393
197000  ekin = 2.49770460330585 |  erot = 2.55587879440511 | epot = -20.4716020539923 | etot = -15.4180186562814
198000  ekin = 2.01700960777427 |  erot = 1.51922008609382 | epot = -20.4907970823156 | etot = -16.9545673884475
199000  ekin = 1.50027537520987 |  erot = 2.19604462463446 | epot = -20.5138434458212 | etot = -16.8175234459769
200000  ekin = 1.64850512926723 |  erot = 2.4596633548257 | epot = -20.4934420686449 | etot = -16.385273584552
201000  ekin = 2.62997533994907 |  erot = 2.61637339049483 | epot = -20.5569645618355 | etot = -15.3106158313916
202000  ekin = 2.3089517547524 |  erot = 2.5565329388766 | epot = -20.6262537118088 | etot = -15.7607690181798
203000  ekin = 1.64768887888551 |  erot = 2.11556417528285 | epot = -20.6617888215465 | etot = -16.8985357673782
204000  ekin = 2.01924097320136 |  erot = 1.97748949636931 | epot = -20.7002685556682 | etot = -16.7035380860975
205000  ekin = 2.97656554045711 |  erot = 3.25408007971553 | epot = -20.9425038008424 | etot = -14.7118581806698
206000  ekin = 2.56613069661945 |  erot = 2.21624244224461 | epot = -21.0621833598182 | etot = -16.2798102209542
207000  ekin = 3.44850636848559 |  erot = 2.48816050856267 | epot = -21.2038849430867 | etot = -15.2672180660384
208000  ekin = 2.54208934028226 |  erot = 2.22605232144502 | epot = -21.3476404533667 | etot = -16.5794987916394
209000  ekin = 3.84151461096732 |  erot = 2.16534559513903 | epot = -21.4932373455843 | etot = -15.486377139478
210000  ekin = 3.06873591712904 |  erot = 2.24760815652574 | epot = -21.6427793540355 | etot = -16.3264352803807
211000  ekin = 1.64176280869923 |  erot = 2.17721976802011 | epot = -21.8130439048272 | etot = -17.9940613281078
212000  ekin = 2.5985934050661 |  erot = 2.41520703335869 | epot = -21.9964648294563 | etot = -16.9826643910315
213000  ekin = 2.51136104390039 |  erot = 1.99503544560738 | epot = -22.161492842604 | etot = -17.6550963530962
214000  ekin = 2.77089845962619 |  erot = 3.17247228684199 | epot = -22.208715104286 | etot = -16.2653443578179
215000  ekin = 2.53408528186206 |  erot = 1.84963848601798 | epot = -22.1148567901871 | etot = -17.7311330223071
216000  ekin = 2.52671619876928 |  erot = 2.77873014449688 | epot = -22.1370884570131 | etot = -16.8316421137469
217000  ekin = 2.50171921508545 |  erot = 1.89238935467003 | epot = -22.226079201001 | etot = -17.8319706312455
218000  ekin = 2.43936294263937 |  erot = 2.41974828067303 | epot = -22.2447049583244 | etot = -17.385593735012
219000  ekin = 2.30221269367205 |  erot = 2.65120674162376 | epot = -22.2807164841742 | etot = -17.3272970488784
220000  ekin = 1.70065256620687 |  erot = 2.34758543213915 | epot = -22.2809933538228 | etot = -18.2327553554768
221000  ekin = 2.09298237125575 |  erot = 2.47886481595909 | epot = -22.267957001012 | etot = -17.6961098137972
222000  ekin = 1.58469709510937 |  erot = 2.14490786301286 | epot = -22.1867412404881 | etot = -18.4571362823659
223000  ekin = 1.83926923346352 |  erot = 1.89456034969536 | epot = -22.131893392038 | etot = -18.3980638088791
224000  ekin = 2.59583657132575 |  erot = 2.93869915115497 | epot = -22.1425986650605 | etot = -16.6080629425798
225000  ekin = 3.29351563254165 |  erot = 2.8433953581414 | epot = -22.12757310355 | etot = -15.9906621128669
226000  ekin = 3.03135339447922 |  erot = 2.08293143143602 | epot = -22.15283624886 | etot = -17.0385514229448
227000  ekin = 2.50176282992082 |  erot = 3.15084128846394 | epot = -22.2250438959744 | etot = -16.5724397775897
228000  ekin = 2.32013498351673 |  erot = 2.67554406359439 | epot = -22.3177515383563 | etot = -17.3220724912452
229000  ekin = 2.89545450975319 |  erot = 2.90735055857068 | epot = -22.4361496683348 | etot = -16.6333446000109
230000  ekin = 2.28321229485933 |  erot = 3.48420465632866 | epot = -22.548785995051 | etot = -16.781369043863
231000  ekin = 2.0778632375453 |  erot = 3.10673973696436 | epot = -22.5896609633152 | etot = -17.4050579888055
232000  ekin = 2.1202374109541 |  erot = 1.98747810033065 | epot = -22.5738924334392 | etot = -18.4661769221544
233000  ekin = 2.33571877855589 |  erot = 2.83585090202738 | epot = -22.5402065195541 | etot = -17.3686368389708
234000  ekin = 2.10578223747154 |  erot = 2.07381218733635 | epot = -22.5507693150833 | etot = -18.3711748902754
235000  ekin = 2.44321041214394 |  erot = 2.80846352304318 | epot = -22.5606929563186 | etot = -17.3090190211315
236000  ekin = 2.93630791731799 |  erot = 3.0631591853173 | epot = -22.4860653874722 | etot = -16.4865982848369
237000  ekin = 3.21264879506079 |  erot = 3.26866508478298 | epot = -22.3683553437862 | etot = -15.8870414639424
238000  ekin = 2.46595539123277 |  erot = 2.32502019506664 | epot = -22.3144456769666 | etot = -17.5234700906672
239000  ekin = 2.10325864915823 |  erot = 2.47631139904042 | epot = -22.3011392921811 | etot = -17.7215692439825
240000  ekin = 1.77270999777839 |  erot = 2.60141429112664 | epot = -22.2344206081543 | etot = -17.8602963192493
241000  ekin = 1.94952922244078 |  erot = 1.39715216866764 | epot = -22.2207225048761 | etot = -18.8740411137677
242000  ekin = 3.05687991591411 |  erot = 2.00862394928705 | epot = -22.2213200390944 | etot = -17.1558161738932
243000  ekin = 2.86735711945299 |  erot = 1.79948118674678 | epot = -22.2697610280427 | etot = -17.6029227218429
244000  ekin = 2.00525854269389 |  erot = 2.36445341214555 | epot = -22.2726788994494 | etot = -17.90296694461
245000  ekin = 2.28011102404838 |  erot = 2.787005205328 | epot = -22.2995433574618 | etot = -17.2324271280854
246000  ekin = 2.06819738789813 |  erot = 2.24624952782285 | epot = -22.2551680110138 | etot = -17.9407210952928
247000  ekin = 1.69964711256213 |  erot = 3.22260619239827 | epot = -22.1916408256116 | etot = -17.2693875206512
248000  ekin = 1.92997585194759 |  erot = 3.61155944514373 | epot = -22.0096484177853 | etot = -16.4681131206939
249000  ekin = 2.16278530892653 |  erot = 3.27771891456709 | epot = -21.8856058980727 | etot = -16.4451016745791
250000  ekin = 2.32204054211024 |  erot = 2.46317574116847 | epot = -21.8028762710592 | etot = -17.0176599877804
251000  ekin = 1.23768964067254 |  erot = 2.24150533762101 | epot = -21.763065707404 | etot = -18.2838707291104
252000  ekin = 1.79818833522214 |  erot = 2.12556386664128 | epot = -21.7586349357285 | etot = -17.8348827338651
253000  ekin = 2.12809689846393 |  erot = 2.59685639208402 | epot = -21.7226495687758 | etot = -16.9976962782278
254000  ekin = 2.46813261968532 |  erot = 2.00391812662869 | epot = -21.7113918037362 | etot = -17.2393410574222
255000  ekin = 2.3156672908729 |  erot = 2.03619058028117 | epot = -21.7265453183257 | etot = -17.3746874471716
256000  ekin = 2.87223929491326 |  erot = 2.61790933826624 | epot = -21.659332511914 | etot = -16.1691838787345
257000  ekin = 2.85756762932927 |  erot = 2.081746739162 | epot = -21.6161821054731 | etot = -16.6768677369819
258000  ekin = 2.06111021157734 |  erot = 2.32748664972428 | epot = -21.5132485706727 | etot = -17.124651709371
259000  ekin = 2.23305784057759 |  erot = 2.88843859953735 | epot = -21.5040039667855 | etot = -16.3825075266705
260000  ekin = 2.49862397932476 |  erot = 2.38336885848389 | epot = -21.488210637319 | etot = -16.6062177995103
261000  ekin = 2.09280296934734 |  erot = 2.39632540029205 | epot = -21.4325331777953 | etot = -16.9434048081559
262000  ekin = 2.33576913564289 |  erot = 2.67273419354397 | epot = -21.3832241450035 | etot = -16.3747208158166
263000  ekin = 2.20536189489354 |  erot = 2.71530627040565 | epot = -21.4329409070981 | etot = -16.5122727417989
264000  ekin = 2.2858247573423 |  erot = 2.76839346219664 | epot = -21.39310844316 | etot = -16.338890223621
265000  ekin = 1.70928536820409 |  erot = 1.79395423442894 | epot = -21.2682341921474 | etot = -17.7649945895144
266000  ekin = 2.48721735474525 |  erot = 2.08745460533224 | epot = -21.1746995817337 | etot = -16.6000276216562
267000  ekin = 2.69283567987773 |  erot = 2.10301910407211 | epot = -21.1705161290062 | etot = -16.3746613450564
268000  ekin = 3.00000233743719 |  erot = 2.80954585635721 | epot = -21.164752112651 | etot = -15.3552039188566
269000  ekin = 3.50713810468527 |  erot = 2.35763817348003 | epot = -21.1537110688984 | etot = -15.2889347907331
270000  ekin = 3.50686942248863 |  erot = 1.86462765875888 | epot = -21.1925508822801 | etot = -15.8210538010326
271000  ekin = 3.57026082273992 |  erot = 2.08172467795384 | epot = -21.2775817182941 | etot = -15.6255962176003
272000  ekin = 2.4484752533773 |  erot = 3.08466485039761 | epot = -21.3619851902072 | etot = -15.8288450864322
273000  ekin = 2.39748176307241 |  erot = 3.13355050446718 | epot = -21.4386234252579 | etot = -15.9075911577183
274000  ekin = 2.48208144431863 |  erot = 2.00552494041967 | epot = -21.4476232953882 | etot = -16.9600169106499
275000  ekin = 2.48721081149369 |  erot = 3.05413598233603 | epot = -21.4713984309062 | etot = -15.9300516370765
276000  ekin = 2.82709589676966 |  erot = 2.88384306577856 | epot = -21.4434590118161 | etot = -15.7325200492679
277000  ekin = 2.23479555963313 |  erot = 2.20310851955638 | epot = -21.3883073251199 | etot = -16.9504032459304
278000  ekin = 2.81418916407429 |  erot = 3.24537052192613 | epot = -21.3155364074003 | etot = -15.2559767213999
279000  ekin = 2.57366525203699 |  erot = 1.81705578305929 | epot = -21.2862101233851 | etot = -16.8954890882888
280000  ekin = 2.41063464320149 |  erot = 1.76282693004731 | epot = -21.2549625280961 | etot = -17.0815009548473
281000  ekin = 2.58126226070487 |  erot = 2.29258221702166 | epot = -21.306394928225 | etot = -16.4325504504985
282000  ekin = 3.02016903398222 |  erot = 2.43094523890341 | epot = -21.4340900724633 | etot = -15.9829757995777
283000  ekin = 2.59269149790331 |  erot = 2.11330689541033 | epot = -21.6296517079942 | etot = -16.9236533146806
284000  ekin = 2.51704243107537 |  erot = 3.13156683036761 | epot = -21.7452694753527 | etot = -16.0966602139097
285000  ekin = 2.4236537221525 |  erot = 1.77228258125507 | epot = -21.8557019037769 | etot = -17.6597656003693
286000  ekin = 1.9446719552166 |  erot = 2.0366097411672 | epot = -21.901435736722 | etot = -17.9201540403382
287000  ekin = 2.56319670376172 |  erot = 2.60867050510166 | epot = -21.90675099349 | etot = -16.7348837846266
288000  ekin = 2.19574207425738 |  erot = 1.69805542160023 | epot = -21.8143855675961 | etot = -17.9205880717385
289000  ekin = 2.35326278833027 |  erot = 1.65840109676146 | epot = -21.6976038565284 | etot = -17.6859399714367
290000  ekin = 2.3519456177505 |  erot = 1.99444238353744 | epot = -21.6551012116075 | etot = -17.3087132103195
291000  ekin = 1.48585281531715 |  erot = 2.66475825861554 | epot = -21.56036793472 | etot = -17.4097568607873
292000  ekin = 2.10739944756451 |  erot = 2.42809824662638 | epot = -21.4451596117638 | etot = -16.9096619175729
293000  ekin = 2.11618090223716 |  erot = 1.86694554151198 | epot = -21.3593625692767 | etot = -17.3762361255276
294000  ekin = 2.06078090566332 |  erot = 2.13941873359476 | epot = -21.2326233100941 | etot = -17.032423670836
295000  ekin = 2.11467178034793 |  erot = 2.3267343667518 | epot = -21.1123588667461 | etot = -16.6709527196464
296000  ekin = 1.53087058859331 |  erot = 2.94008409149153 | epot = -21.2112197533848 | etot = -16.7402650732999
297000  ekin = 2.52732986791196 |  erot = 2.18380855337858 | epot = -21.1955190508786 | etot = -16.4843806295881
298000  ekin = 1.89033945823196 |  erot = 2.02521913176001 | epot = -21.2593750718296 | etot = -17.3438164818376
299000  ekin = 1.87142873048436 |  erot = 1.66404563221549 | epot = -21.2919162310488 | etot = -17.7564418683489
300000  ekin = 2.23872615546788 |  erot = 1.50807257618897 | epot = -21.3339204593826 | etot = -17.5871217277258
301000  ekin = 1.99965506724558 |  erot = 2.00145094516844 | epot = -21.4707589194325 | etot = -17.4696529070184
302000  ekin = 1.76370349732521 |  erot = 2.23787708901487 | epot = -21.5675275978257 | etot = -17.5659470114856
303000  ekin = 2.69610887251788 |  erot = 1.6995722142974 | epot = -21.5563765448092 | etot = -17.1606954579939
304000  ekin = 2.55447143501921 |  erot = 2.02060813090349 | epot = -21.5692327321341 | etot = -16.9941531662114
305000  ekin = 2.38230604232717 |  erot = 2.31489374428114 | epot = -21.5335950166329 | etot = -16.8363952300246
306000  ekin = 2.07785475765118 |  erot = 2.4523066068597 | epot = -21.4550895345847 | etot = -16.9249281700738
307000  ekin = 3.17130424567278 |  erot = 3.29574614566806 | epot = -21.4151535289883 | etot = -14.9481031376474
308000  ekin = 3.40959217051674 |  erot = 2.68389483402973 | epot = -21.4778643688409 | etot = -15.3843773642944
309000  ekin = 2.36068264180093 |  erot = 2.91715332823342 | epot = -21.5794336507741 | etot = -16.3015976807398
310000  ekin = 2.4995235722922 |  erot = 2.36028950896138 | epot = -21.5982142524176 | etot = -16.738401171164
311000  ekin = 2.53288726180906 |  erot = 2.29596940545851 | epot = -21.6418553661547 | etot = -16.8129986988871
312000  ekin = 2.05123272208704 |  erot = 2.92023923411834 | epot = -21.7377547517075 | etot = -16.7662827955022
313000  ekin = 1.80834719374888 |  erot = 2.29357283142125 | epot = -21.7993116362532 | etot = -17.6973916110831
314000  ekin = 2.30684015099018 |  erot = 2.20859462712272 | epot = -21.8029398081388 | etot = -17.2875050300259
315000  ekin = 1.86413924486173 |  erot = 2.14748794238475 | epot = -21.8550418960799 | etot = -17.8434147088335
316000  ekin = 2.20558056533516 |  erot = 3.03447287931582 | epot = -21.8868412075709 | etot = -16.6467877629199
317000  ekin = 2.47820931125479 |  erot = 3.56870099099487 | epot = -21.9902146748519 | etot = -15.9433043726022
318000  ekin = 2.36582343801679 |  erot = 3.01887804681552 | epot = -22.1178732891163 | etot = -16.733171804284
319000  ekin = 2.40464629760758 |  erot = 3.15910789488741 | epot = -22.2289401281565 | etot = -16.6651859356615
320000  ekin = 1.80206494109346 |  erot = 2.83527990295434 | epot = -22.3120263401861 | etot = -17.6746814961383
321000  ekin = 2.91146951948762 |  erot = 2.25772268449837 | epot = -22.3029455835947 | etot = -17.1337533796087
322000  ekin = 2.8226351296685 |  erot = 2.67950826833977 | epot = -22.3041650189947 | etot = -16.8020216209865
323000  ekin = 2.067323568424 |  erot = 2.319752847753 | epot = -22.3338840353559 | etot = -17.9468076191789
324000  ekin = 2.6012747278288 |  erot = 2.58351861537749 | epot = -22.3215168526944 | etot = -17.1367235094881
325000  ekin = 3.45560055552843 |  erot = 2.50162515355505 | epot = -22.1825527777624 | etot = -16.2253270686789
326000  ekin = 3.51422890604519 |  erot = 2.84426061018012 | epot = -22.0201095272525 | etot = -15.6616200110272
327000  ekin = 2.63551490316295 |  erot = 2.20570805472231 | epot = -21.9384479867007 | etot = -17.0972250288154
328000  ekin = 1.8043914440792 |  erot = 2.37599512200968 | epot = -21.861980397642 | etot = -17.6815938315531
329000  ekin = 2.15766181563134 |  erot = 2.45286496267961 | epot = -21.8518523862112 | etot = -17.2413256079002
330000  ekin = 1.8483425992464 |  erot = 2.03367429366601 | epot = -21.768409525242 | etot = -17.8863926323296
331000  ekin = 2.3531484336258 |  erot = 1.80165819621476 | epot = -21.7197009414848 | etot = -17.5648943116443
332000  ekin = 1.67855936307207 |  erot = 2.5334121965131 | epot = -21.7336434355881 | etot = -17.5216718760029
333000  ekin = 1.60376334688456 |  erot = 2.14058675025446 | epot = -21.835637958395 | etot = -18.091287861256
334000  ekin = 2.26551990081779 |  erot = 2.62486254825415 | epot = -21.8794971078471 | etot = -16.9891146587751
335000  ekin = 2.91208137486081 |  erot = 3.11052870452009 | epot = -21.9161692767172 | etot = -15.8935591973363
336000  ekin = 2.73132973682385 |  erot = 2.56213100489412 | epot = -21.8312488568505 | etot = -16.5377881151325
337000  ekin = 3.15411918141902 |  erot = 3.87512819831194 | epot = -21.9061152574783 | etot = -14.8768678777473
338000  ekin = 2.33141760424507 |  erot = 2.13211945089677 | epot = -21.913746111238 | etot = -17.4502090560962
339000  ekin = 1.71915361945719 |  erot = 2.31270220754042 | epot = -21.904207477372 | etot = -17.8723516503744
340000  ekin = 1.62199393011804 |  erot = 3.16990972384471 | epot = -21.8898233676232 | etot = -17.0979197136604
341000  ekin = 1.71588704296646 |  erot = 3.17642860992459 | epot = -21.8345558128149 | etot = -16.9422401599239
342000  ekin = 1.82178091247658 |  erot = 2.58875985611024 | epot = -21.7161502950573 | etot = -17.3056095264705
343000  ekin = 3.08559255942693 |  erot = 2.94813449265471 | epot = -21.7030445300997 | etot = -15.669317478018
344000  ekin = 2.95985387154984 |  erot = 3.1154751585035 | epot = -21.6815483295521 | etot = -15.6062192994987
345000  ekin = 2.33428072266864 |  erot = 2.88044431283017 | epot = -21.6567075042343 | etot = -16.4419824687355
346000  ekin = 2.02077664062698 |  erot = 3.45936833964707 | epot = -21.5877268821218 | etot = -16.1075819018478
347000  ekin = 2.34924784800441 |  erot = 1.93056350805623 | epot = -21.4896151766055 | etot = -17.2098038205448
348000  ekin = 2.79839267202794 |  erot = 2.79408776517963 | epot = -21.4682057474678 | etot = -15.8757253102602
349000  ekin = 2.33820470114614 |  erot = 3.12966318670513 | epot = -21.5603039389198 | etot = -16.0924360510685
350000  ekin = 2.22383234890832 |  erot = 2.38886870388011 | epot = -21.5375784703117 | etot = -16.9248774175233
351000  ekin = 2.33329735253339 |  erot = 2.84447430695179 | epot = -21.5078106306152 | etot = -16.33003897113
352000  ekin = 2.74923373919408 |  erot = 2.76796181793625 | epot = -21.5537134920816 | etot = -16.0365179349512
353000  ekin = 1.76111836153717 |  erot = 2.12255592617518 | epot = -21.5037017999955 | etot = -17.6200275122832
354000  ekin = 2.29967358188085 |  erot = 2.37615363620183 | epot = -21.559257977819 | etot = -16.8834307597364
355000  ekin = 2.32956787601564 |  erot = 2.41406261152025 | epot = -21.5311925684016 | etot = -16.7875620808657
356000  ekin = 2.99536507165417 |  erot = 3.0133786789017 | epot = -21.461213826164 | etot = -15.4524700756081
357000  ekin = 1.79487551861702 |  erot = 2.14781775756832 | epot = -21.4425100027869 | etot = -17.4998167266016
358000  ekin = 2.06856992699964 |  erot = 1.9158505155371 | epot = -21.4597512525557 | etot = -17.475330810019
359000  ekin = 2.03457633089973 |  erot = 2.13725650388114 | epot = -21.434584367242 | etot = -17.2627515324611
360000  ekin = 2.64289898809605 |  erot = 2.45722294398598 | epot = -21.3798303659973 | etot = -16.2797084339152
361000  ekin = 2.44681633772951 |  erot = 2.40323525392197 | epot = -21.4535746870958 | etot = -16.6035230954443
362000  ekin = 2.27284400709389 |  erot = 2.04866562998477 | epot = -21.4444048899961 | etot = -17.1228952529175
363000  ekin = 3.23945885057604 |  erot = 1.79247859381387 | epot = -21.4992698914106 | etot = -16.4673324470207
364000  ekin = 3.01124200487831 |  erot = 2.16495867321708 | epot = -21.5330648567406 | etot = -16.3568641786452
365000  ekin = 2.51472285580867 |  erot = 2.29864111879035 | epot = -21.6252096459669 | etot = -16.8118456713679
366000  ekin = 2.59356655410022 |  erot = 2.21031948632573 | epot = -21.6397726115723 | etot = -16.8358865711464
367000  ekin = 2.23422490605626 |  erot = 1.85375489374336 | epot = -21.7036464131406 | etot = -17.615666613341
368000  ekin = 2.47747707853682 |  erot = 2.36511710555106 | epot = -21.7442459693683 | etot = -16.9016517852804
369000  ekin = 2.03854183495619 |  erot = 2.80790943599038 | epot = -21.829546112742 | etot = -16.9830948417954
370000  ekin = 2.08495509326204 |  erot = 2.15717784784087 | epot = -21.8579547558588 | etot = -17.6158218147559
371000  ekin = 2.1649158804987 |  erot = 2.10731342711637 | epot = -21.750730287247 | etot = -17.4785009796319
372000  ekin = 1.83416420958724 |  erot = 1.90082367490453 | epot = -21.6784224725519 | etot = -17.9434345880602
373000  ekin = 1.97176482573297 |  erot = 1.77796007890949 | epot = -21.6393712386778 | etot = -17.8896463340354
374000  ekin = 2.89940710658305 |  erot = 1.91194262525378 | epot = -21.5337545453636 | etot = -16.7224048135267
375000  ekin = 2.32339676163341 |  erot = 1.92362318361284 | epot = -21.4217091025191 | etot = -17.1746891572728
376000  ekin = 2.59047552311153 |  erot = 2.32394149083979 | epot = -21.4139727856534 | etot = -16.4995557717021
377000  ekin = 2.24598863840517 |  erot = 1.65770205797294 | epot = -21.3405339068232 | etot = -17.4368432104451
378000  ekin = 2.38351514056703 |  erot = 2.54156262207207 | epot = -21.3122380587448 | etot = -16.3871602961057
379000  ekin = 2.08457212928958 |  erot = 2.11819645676889 | epot = -21.2663127721437 | etot = -17.0635441860853
380000  ekin = 2.62168026009058 |  erot = 2.36576073073357 | epot = -21.2469701231192 | etot = -16.259529132295
381000  ekin = 2.42554871977308 |  erot = 2.21588725182519 | epot = -21.2594018196931 | etot = -16.6179658480948
382000  ekin = 2.04454090532126 |  erot = 3.35199327879852 | epot = -21.3507561156204 | etot = -15.9542219315006
383000  ekin = 2.57756769789846 |  erot = 1.58356833947095 | epot = -21.4206473136967 | etot = -17.2595112763272
384000  ekin = 2.32411392435712 |  erot = 2.07034159075996 | epot = -21.425401700327 | etot = -17.03094618521
385000  ekin = 1.93815279071873 |  erot = 3.29970374476252 | epot = -21.4993838182002 | etot = -16.2615272827189
386000  ekin = 2.10645704249442 |  erot = 2.94380940917572 | epot = -21.5050572923383 | etot = -16.4547908406681
387000  ekin = 2.28625118399721 |  erot = 2.404880226949 | epot = -21.4350466670762 | etot = -16.74391525613
388000  ekin = 2.84183807689895 |  erot = 2.72440789072405 | epot = -21.448767296848 | etot = -15.882521329225
389000  ekin = 3.39750799106372 |  erot = 3.08194517695386 | epot = -21.6559630447603 | etot = -15.1765098767427
390000  ekin = 2.82211920760115 |  erot = 2.04880343622589 | epot = -21.7229608878358 | etot = -16.8520382440088
391000  ekin = 2.25113345866117 |  erot = 2.45876014532077 | epot = -21.7793475672488 | etot = -17.0694539632668
392000  ekin = 2.6777973992177 |  erot = 2.75278604715789 | epot = -21.9200377033298 | etot = -16.4894542569542
393000  ekin = 2.07336639249413 |  erot = 1.66102921524042 | epot = -22.0500496423094 | etot = -18.3156540345748
394000  ekin = 2.1138614951422 |  erot = 2.4065490584156 | epot = -22.0647062581752 | etot = -17.5442957046174
395000  ekin = 2.46967791557607 |  erot = 2.46187607744978 | epot = -22.0113006362931 | etot = -17.0797466432672
396000  ekin = 3.17858061422168 |  erot = 1.60030928107608 | epot = -21.9570022338792 | etot = -17.1781123385814
397000  ekin = 2.37483507726776 |  erot = 2.17387816921976 | epot = -21.8769234701935 | etot = -17.3282102237059
398000  ekin = 2.29815779154461 |  erot = 2.2014862703049 | epot = -21.8293641014529 | etot = -17.3297200396034
399000  ekin = 2.66620669497936 |  erot = 2.78316441348845 | epot = -21.7420307764657 | etot = -16.2926596679979
400000  ekin = 1.8196142363994 |  erot = 2.77573291920477 | epot = -21.7225828560707 | etot = -17.1272357004666
401000  ekin = 2.39347596566753 |  erot = 3.11237720134102 | epot = -21.7632198127751 | etot = -16.2573666457665
402000  ekin = 4.01379092525261 |  erot = 3.58756310879361 | epot = -21.6952307126456 | etot = -14.0938766785994
403000  ekin = 3.64238723358271 |  erot = 3.44210139074533 | epot = -21.6932224157202 | etot = -14.6087337913922
404000  ekin = 2.52116102522202 |  erot = 2.99286839639893 | epot = -21.7395466120138 | etot = -16.2255171903929
405000  ekin = 2.80514548558626 |  erot = 3.09807228440149 | epot = -21.809681120553 | etot = -15.9064633505653
406000  ekin = 2.32696376764902 |  erot = 2.03572639782902 | epot = -21.9111381639248 | etot = -17.5484479984468
407000  ekin = 2.33504128016395 |  erot = 1.91320949168965 | epot = -21.9359478399848 | etot = -17.6876970681312
408000  ekin = 1.90942025822265 |  erot = 2.20375631379574 | epot = -21.9849314014528 | etot = -17.8717548294344
409000  ekin = 1.98818542800297 |  erot = 1.95540808206523 | epot = -22.0378349759701 | etot = -18.0942414659019
410000  ekin = 1.59823476401333 |  erot = 1.91272967852491 | epot = -22.0830507565096 | etot = -18.5720863139714
411000  ekin = 1.87320182179615 |  erot = 2.46575148951076 | epot = -22.1911106440468 | etot = -17.8521573327399
412000  ekin = 2.51909186028136 |  erot = 2.65534868642724 | epot = -22.281680067606 | etot = -17.1072395208974
413000  ekin = 2.80929435327118 |  erot = 3.19888285052217 | epot = -22.1907679968741 | etot = -16.1825907930808
414000  ekin = 2.79014519733558 |  erot = 2.7251519541093 | epot = -22.144863024243 | etot = -16.6295658727981
415000  ekin = 2.46789019087319 |  erot = 2.24891720770208 | epot = -22.1977268949425 | etot = -17.4809194963672
416000  ekin = 3.30766536008866 |  erot = 1.55878918639505 | epot = -22.1694878213559 | etot = -17.3030332748722
417000  ekin = 3.95074944679108 |  erot = 2.44780201516577 | epot = -22.1018895242095 | etot = -15.7033380622526
418000  ekin = 2.77340936693415 |  erot = 2.68993840817536 | epot = -21.977327562767 | etot = -16.5139797876575
419000  ekin = 2.38275203991917 |  erot = 2.97769109273478 | epot = -21.9010102007429 | etot = -16.5405670680889
420000  ekin = 1.80397709765343 |  erot = 1.82715488758969 | epot = -21.8849019003165 | etot = -18.2537699150734
421000  ekin = 1.35294173647286 |  erot = 1.7746327595132 | epot = -21.8324727162455 | etot = -18.7048982202595
422000  ekin = 1.39101035408781 |  erot = 2.74626781088313 | epot = -21.8922044238521 | etot = -17.7549262588811
423000  ekin = 1.58313118355036 |  erot = 3.0798858727609 | epot = -21.9303489156376 | etot = -17.2673318593263
424000  ekin = 2.38308976422853 |  erot = 2.0290563283423 | epot = -22.0003513420112 | etot = -17.5882052494403
425000  ekin = 2.32292982636642 |  erot = 2.54472792699355 | epot = -22.0461884305753 | etot = -17.1785306772154
426000  ekin = 2.07274921207622 |  erot = 3.12068562025985 | epot = -21.9899604929779 | etot = -16.7965256606419
427000  ekin = 2.16499158921497 |  erot = 2.43609860560844 | epot = -21.883756502818 | etot = -17.2826663079946
428000  ekin = 1.81001230881454 |  erot = 1.6518491031194 | epot = -21.8651168729134 | etot = -18.4032554609795
429000  ekin = 1.67080799563552 |  erot = 2.55829004033943 | epot = -21.823203822061 | etot = -17.5941057860861
430000  ekin = 2.68658781224627 |  erot = 2.8591925337156 | epot = -21.8545360487503 | etot = -16.3087557027885
431000  ekin = 2.77334901985549 |  erot = 1.57746917070686 | epot = -21.8360353910944 | etot = -17.485217200532
432000  ekin = 2.50244674166436 |  erot = 1.60779258881598 | epot = -21.7381087453319 | etot = -17.6278694148516
433000  ekin = 1.85649371322473 |  erot = 2.4917335891794 | epot = -21.7919912827364 | etot = -17.4437639803323
434000  ekin = 2.89302367450635 |  erot = 2.7989004560269 | epot = -21.923157505168 | etot = -16.2312333746348
435000  ekin = 3.67647442700572 |  erot = 1.38588132381276 | epot = -22.1019777057281 | etot = -17.0396219549097
436000  ekin = 3.05510329104703 |  erot = 2.00142902882896 | epot = -22.1034257027066 | etot = -17.0468933828306
437000  ekin = 3.2334117289381 |  erot = 1.78346855436481 | epot = -22.1137020887251 | etot = -17.0968218054222
438000  ekin = 2.86378458795303 |  erot = 1.84588842157479 | epot = -22.072414124752 | etot = -17.3627411152242
439000  ekin = 2.41407153953135 |  erot = 2.70066632790346 | epot = -22.0535011599236 | etot = -16.9387632924888
440000  ekin = 2.22110309163132 |  erot = 3.0167468581899 | epot = -22.0773629228072 | etot = -16.839512972986
441000  ekin = 2.8952003347941 |  erot = 2.87911130379518 | epot = -22.2098492363511 | etot = -16.4355375977618
442000  ekin = 2.05598301233622 |  erot = 1.73562369066667 | epot = -22.2689079268812 | etot = -18.4773012238783
443000  ekin = 1.86650631344267 |  erot = 2.00816178040311 | epot = -22.3072964279925 | etot = -18.4326283341467
444000  ekin = 2.06088560705618 |  erot = 2.15265011198712 | epot = -22.3186686701219 | etot = -18.1051329510786
445000  ekin = 2.10029110633057 |  erot = 2.2800331405132 | epot = -22.3739249314238 | etot = -17.9936006845801
446000  ekin = 2.42121462246176 |  erot = 2.85365097104764 | epot = -22.4030820729314 | etot = -17.128216479422
447000  ekin = 2.19905370994782 |  erot = 2.98216231903379 | epot = -22.4760062523442 | etot = -17.2947902233625
448000  ekin = 2.35344530580996 |  erot = 2.94496431571713 | epot = -22.4927466941727 | etot = -17.1943370726456
449000  ekin = 2.39032460069844 |  erot = 2.92889137252356 | epot = -22.5027878081879 | etot = -17.1835718349659
450000  ekin = 1.87543018481826 |  erot = 1.69603328668916 | epot = -22.4562462785528 | etot = -18.8847828070454
451000  ekin = 2.01850498861611 |  erot = 1.92812989993404 | epot = -22.4817672986218 | etot = -18.5351324100716
452000  ekin = 1.36652609658347 |  erot = 1.87105620810406 | epot = -22.4501755877893 | etot = -19.2125932831018
453000  ekin = 2.0599225820261 |  erot = 2.56027964608567 | epot = -22.2765869721545 | etot = -17.6563847440428
454000  ekin = 1.47421749728914 |  erot = 2.19120144206327 | epot = -22.1381671023588 | etot = -18.4727481630064
455000  ekin = 1.65550022307771 |  erot = 2.72165814308168 | epot = -21.9904394751434 | etot = -17.613281108984
456000  ekin = 2.34827062603187 |  erot = 2.00722438151074 | epot = -21.9105114729144 | etot = -17.5550164653718
457000  ekin = 2.01338249991754 |  erot = 2.37170378033695 | epot = -21.8819790372449 | etot = -17.4968927569904
458000  ekin = 1.72815421955305 |  erot = 2.26329746701056 | epot = -21.9116044050661 | etot = -17.9201527185024
459000  ekin = 2.48347398227002 |  erot = 2.32376196929941 | epot = -21.9949404038568 | etot = -17.1877044522874
460000  ekin = 2.18770854699575 |  erot = 2.00081662918322 | epot = -21.9585322440375 | etot = -17.7700070678586
461000  ekin = 2.27716435663744 |  erot = 2.9019565626907 | epot = -21.8877682177659 | etot = -16.7086472984378
462000  ekin = 2.61244889701715 |  erot = 1.79757533309513 | epot = -21.9143949779912 | etot = -17.5043707478789
463000  ekin = 2.55684814656524 |  erot = 3.31200610027657 | epot = -21.8497749242034 | etot = -15.9809206773616
464000  ekin = 2.15312235839157 |  erot = 2.38947690136822 | epot = -21.7825241097983 | etot = -17.2399248500385
465000  ekin = 2.5257577253008 |  erot = 3.61331808321477 | epot = -21.70727052519 | etot = -15.5681947166744
466000  ekin = 1.97943618964772 |  erot = 2.88688528337621 | epot = -21.7222514097774 | etot = -16.8559299367535
467000  ekin = 1.62882257493983 |  erot = 2.60892282315519 | epot = -21.8080861041928 | etot = -17.5703407060978
468000  ekin = 1.09823854644375 |  erot = 3.35073251937299 | epot = -21.8523811012329 | etot = -17.4034100354162
469000  ekin = 1.70229597385131 |  erot = 2.7588984072639 | epot = -21.8665756757502 | etot = -17.405381294635
470000  ekin = 1.85844768422772 |  erot = 2.8706546217625 | epot = -21.9036130079376 | etot = -17.1745107019474
471000  ekin = 2.74399539924327 |  erot = 2.34943354955083 | epot = -21.9543989717239 | etot = -16.8609700229298
472000  ekin = 2.7182617922689 |  erot = 2.13581917182001 | epot = -22.0449294707038 | etot = -17.1908485066149
473000  ekin = 2.29380642077304 |  erot = 2.07595163501546 | epot = -22.0706135180041 | etot = -17.7008554622156
474000  ekin = 2.22690782122656 |  erot = 2.1647059901395 | epot = -22.0704871162386 | etot = -17.6788733048726
475000  ekin = 2.4978679533329 |  erot = 2.09510196885223 | epot = -22.0509742163569 | etot = -17.4580042941718
476000  ekin = 2.20264299239668 |  erot = 1.76757923556403 | epot = -21.9427521555982 | etot = -17.9725299276375
477000  ekin = 2.45872237399503 |  erot = 2.38426997478539 | epot = -21.9051474088983 | etot = -17.0621550601178
478000  ekin = 1.89905964030889 |  erot = 2.04864356713722 | epot = -21.9114508304737 | etot = -17.9637476230276
479000  ekin = 2.27133902137491 |  erot = 3.08755197682257 | epot = -21.8872829373266 | etot = -16.5283919391291
480000  ekin = 1.67015605151468 |  erot = 2.76560365045837 | epot = -21.8968158425889 | etot = -17.4610561406158
481000  ekin = 1.81882995680354 |  erot = 2.94136105971067 | epot = -21.8571304925407 | etot = -17.0969394760265
482000  ekin = 2.15305069632653 |  erot = 2.07327897823918 | epot = -21.8152992914385 | etot = -17.5889696168728
483000  ekin = 1.50004535981758 |  erot = 1.99364343935404 | epot = -21.7843644990947 | etot = -18.2906756999231
484000  ekin = 1.85234844255529 |  erot = 2.34000231202781 | epot = -21.8614293841666 | etot = -17.6690786295835
485000  ekin = 1.64682178328831 |  erot = 2.50437862576679 | epot = -21.8969405008956 | etot = -17.7457400918405
486000  ekin = 1.86104257115938 |  erot = 2.15995925522771 | epot = -21.8879397421696 | etot = -17.8669379157825
487000  ekin = 2.34639026339217 |  erot = 3.11622773972825 | epot = -21.9707194220382 | etot = -16.5081014189178
488000  ekin = 2.27484994031488 |  erot = 3.28147617368226 | epot = -21.9426475486812 | etot = -16.3863214346841
489000  ekin = 2.38811933287365 |  erot = 2.56070014238266 | epot = -21.8600861168089 | etot = -16.9112666415526
490000  ekin = 2.12976254880773 |  erot = 3.54525746010289 | epot = -21.7617637919249 | etot = -16.0867437830143
491000  ekin = 2.20850764560417 |  erot = 2.48919239454317 | epot = -21.6468680069132 | etot = -16.9491679667658
492000  ekin = 2.43957739853024 |  erot = 2.76323186690378 | epot = -21.6230951653168 | etot = -16.4202858998828
493000  ekin = 1.79391622496105 |  erot = 2.29052518470042 | epot = -21.6945975278841 | etot = -17.6101561182226
494000  ekin = 2.11542949642227 |  erot = 3.01313865872481 | epot = -21.7637004472039 | etot = -16.6351322920568
495000  ekin = 2.1568591957283 |  erot = 2.49005677705245 | epot = -21.8783556810053 | etot = -17.2314397082246
496000  ekin = 2.06037552826019 |  erot = 2.60698629104699 | epot = -21.9276220332962 | etot = -17.260260213989
497000  ekin = 2.52228141248763 |  erot = 1.710130192768 | epot = -21.8769629373864 | etot = -17.6445513321307
498000  ekin = 2.15394500805411 |  erot = 1.78777085700022 | epot = -21.8243748366056 | etot = -17.8826589715513
499000  ekin = 3.01296343053108 |  erot = 1.73934813146708 | epot = -21.8392632680439 | etot = -17.0869517060458
500000  ekin = 2.76642119718551 |  erot = 2.50182215373002 | epot = -21.830671988603 | etot = -16.5624286376875
501000  ekin = 2.69367571720338 |  erot = 2.99042817784739 | epot = -21.7039103667138 | etot = -16.0198064716631
502000  ekin = 1.91666556639459 |  erot = 3.89815239299714 | epot = -21.5845300715443 | etot = -15.7697121121525
503000  ekin = 1.80513448090424 |  erot = 2.94463129244922 | epot = -21.408846856306 | etot = -16.6590810829525
504000  ekin = 1.70082883689617 |  erot = 3.04312463877848 | epot = -21.3315058298563 | etot = -16.5875523541817
505000  ekin = 2.75953000022913 |  erot = 2.14635942194519 | epot = -21.3525103549444 | etot = -16.4466209327701
506000  ekin = 2.29728093923375 |  erot = 2.04403144683579 | epot = -21.3794572010067 | etot = -17.0381448149372
507000  ekin = 3.17636857959624 |  erot = 2.42164349794529 | epot = -21.4731108320934 | etot = -15.8750987545519
508000  ekin = 2.53590109429522 |  erot = 2.52790695399208 | epot = -21.6300410847596 | etot = -16.5662330364723
509000  ekin = 2.12748393236722 |  erot = 2.83071060777933 | epot = -21.7781347526393 | etot = -16.8199402124927
510000  ekin = 2.16138023827908 |  erot = 1.44739524871434 | epot = -21.8661383228762 | etot = -18.2573628358828
511000  ekin = 2.5432337386743 |  erot = 2.77108674378182 | epot = -21.9670096484361 | etot = -16.65268916598
512000  ekin = 2.32820226144235 |  erot = 2.8042493163404 | epot = -22.0177071813425 | etot = -16.8852556035598
513000  ekin = 2.47700215188743 |  erot = 2.17127792631492 | epot = -22.0110285387343 | etot = -17.3627484605319
514000  ekin = 2.76651136580707 |  erot = 2.55680467976047 | epot = -22.0909970005814 | etot = -16.7676809550138
515000  ekin = 2.5202331965388 |  erot = 1.82499891391154 | epot = -22.1712715169565 | etot = -17.8260394065062
516000  ekin = 2.81741012640848 |  erot = 2.22255273815334 | epot = -22.2621950124766 | etot = -17.2222321479148
517000  ekin = 2.03287831599844 |  erot = 2.04932227860395 | epot = -22.2794486174447 | etot = -18.1972480228423
518000  ekin = 2.18753527424292 |  erot = 2.76011341951323 | epot = -22.2667176836093 | etot = -17.3190689898532
519000  ekin = 2.23127004412533 |  erot = 2.23036422155453 | epot = -22.3641437250361 | etot = -17.9025094593562
520000  ekin = 1.88835704965194 |  erot = 2.20137678015021 | epot = -22.4547788180201 | etot = -18.365044988218
521000  ekin = 2.57911594310157 |  erot = 1.87216207270883 | epot = -22.6071563154982 | etot = -18.1558782996878
522000  ekin = 3.47551915105823 |  erot = 1.7762374523623 | epot = -22.6852629490162 | etot = -17.4335063455956
523000  ekin = 2.84545293485784 |  erot = 2.47507537559667 | epot = -22.727728352182 | etot = -17.4072000417275
524000  ekin = 2.40278895519472 |  erot = 2.37529684497552 | epot = -22.6643160930411 | etot = -17.8862302928709
525000  ekin = 1.59507033575009 |  erot = 2.61508341973268 | epot = -22.5633164974795 | etot = -18.3531627419968
526000  ekin = 1.67007684014044 |  erot = 1.59545284095808 | epot = -22.511319978416 | etot = -19.2457902973175
527000  ekin = 2.19667533945247 |  erot = 1.93330231246752 | epot = -22.4181345854017 | etot = -18.2881569334817
528000  ekin = 2.6386695788743 |  erot = 2.84200507572115 | epot = -22.4271496272375 | etot = -16.946474972642
529000  ekin = 2.71685924097597 |  erot = 3.01195511036354 | epot = -22.4607209136928 | etot = -16.7319065623533
530000  ekin = 2.59646038482582 |  erot = 2.1317692819235 | epot = -22.3209630404852 | etot = -17.5927333737358
531000  ekin = 2.96818211550215 |  erot = 2.35836906019033 | epot = -22.2240561584028 | etot = -16.8975049827103
532000  ekin = 2.54400448114086 |  erot = 2.32266423688292 | epot = -22.2383323718678 | etot = -17.3716636538441
533000  ekin = 2.47235456553948 |  erot = 2.96337386592411 | epot = -22.2434312615742 | etot = -16.8077028301106
534000  ekin = 2.104894788263 |  erot = 2.03894640697441 | epot = -22.2624131617689 | etot = -18.1185719665315
535000  ekin = 3.76811893478762 |  erot = 2.64694643296526 | epot = -22.2342741399369 | etot = -15.819208772184
536000  ekin = 2.78932048770646 |  erot = 1.95046774407585 | epot = -22.1710588414062 | etot = -17.4312706096239
537000  ekin = 2.84547413963846 |  erot = 2.6235440651257 | epot = -22.0792539675812 | etot = -16.610235762817
538000  ekin = 2.67615418297317 |  erot = 2.08962546790895 | epot = -21.9560559397441 | etot = -17.190276288862
539000  ekin = 2.73041224389434 |  erot = 2.35761678189143 | epot = -22.0360310245606 | etot = -16.9480019987748
540000  ekin = 2.45513520817505 |  erot = 2.4980712479617 | epot = -22.1997448500024 | etot = -17.2465383938656
541000  ekin = 3.48268229748523 |  erot = 2.77797330372245 | epot = -22.2939060084685 | etot = -16.0332504072608
542000  ekin = 2.48960436886327 |  erot = 2.87332479229809 | epot = -22.3004887690915 | etot = -16.9375596079301
543000  ekin = 2.34699181381528 |  erot = 2.86167842257193 | epot = -22.3027783678197 | etot = -17.0941081314325
544000  ekin = 2.22918134297116 |  erot = 1.4682792461716 | epot = -22.2757921511235 | etot = -18.5783315619807
545000  ekin = 2.45393652663684 |  erot = 2.14178562937392 | epot = -22.2696521197313 | etot = -17.6739299637206
546000  ekin = 1.98434977645849 |  erot = 2.24144093113159 | epot = -22.232171992891 | etot = -18.0063812853009
547000  ekin = 2.56230350196472 |  erot = 1.8957462591202 | epot = -22.2013923967025 | etot = -17.7433426356176
548000  ekin = 1.72907614338158 |  erot = 1.64127030305735 | epot = -22.1897325934373 | etot = -18.8193861469984
549000  ekin = 1.95696682165776 |  erot = 2.64539988943055 | epot = -22.3281210018679 | etot = -17.7257542907796
550000  ekin = 1.80672944936439 |  erot = 1.58554489058937 | epot = -22.4379557312283 | etot = -19.0456813912745
551000  ekin = 2.19785864069661 |  erot = 2.26344341600386 | epot = -22.4944444264338 | etot = -18.0331423697333
552000  ekin = 2.074442528674 |  erot = 2.49246441473273 | epot = -22.5313734934249 | etot = -17.9644665500182
553000  ekin = 2.94841939583913 |  erot = 2.1230978630074 | epot = -22.5870982488507 | etot = -17.5155809900042
554000  ekin = 2.86687820100223 |  erot = 1.9428729838172 | epot = -22.755332978123 | etot = -17.9455817933036
555000  ekin = 2.43102414091851 |  erot = 2.28708167460996 | epot = -22.8409516497233 | etot = -18.1228458341949
556000  ekin = 2.31020008885682 |  erot = 2.55815314755913 | epot = -22.8777743355338 | etot = -18.0094210991179
557000  ekin = 2.81359485404958 |  erot = 1.42586137655665 | epot = -22.93912738 | etot = -18.6996711493938
558000  ekin = 2.7970970853355 |  erot = 1.99545051650404 | epot = -22.9823826800611 | etot = -18.1898350782216
559000  ekin = 3.34842854089643 |  erot = 2.30939572175805 | epot = -23.0558646505447 | etot = -17.3980403878902
560000  ekin = 3.12583165184862 |  erot = 2.33613566970363 | epot = -23.0537007225862 | etot = -17.591733401034
561000  ekin = 2.9127609673679 |  erot = 2.07459481236913 | epot = -22.982260765434 | etot = -17.994904985697
562000  ekin = 3.33017095598494 |  erot = 2.52215992853225 | epot = -22.8889363116257 | etot = -17.0366054271086
563000  ekin = 2.70200701416854 |  erot = 1.64770113379199 | epot = -22.8712722594835 | etot = -18.521564111523
564000  ekin = 2.82953631474813 |  erot = 2.52900560163798 | epot = -22.8387855460795 | etot = -17.4802436296934
565000  ekin = 2.67999888917708 |  erot = 2.05091800967453 | epot = -22.7937507048715 | etot = -18.0628338060199
566000  ekin = 2.32986557500305 |  erot = 2.16379904557213 | epot = -22.8028233873669 | etot = -18.3091587667917
567000  ekin = 1.92319601586312 |  erot = 2.83258522428556 | epot = -22.7588270107033 | etot = -18.0030457705546
568000  ekin = 2.1767237164987 |  erot = 2.23391201707386 | epot = -22.7857243432792 | etot = -18.3750886097066
569000  ekin = 2.44197408396629 |  erot = 2.6515953630557 | epot = -22.7197314796374 | etot = -17.6261620326154
570000  ekin = 2.43177406209051 |  erot = 1.89764945519458 | epot = -22.6963472615904 | etot = -18.3669237443054
571000  ekin = 2.86160521289847 |  erot = 2.96804382024775 | epot = -22.6961835038031 | etot = -16.8665344706569
572000  ekin = 1.92662919536387 |  erot = 3.79135909534691 | epot = -22.6587081618987 | etot = -16.940719871188
573000  ekin = 2.40137439242946 |  erot = 2.29982613356341 | epot = -22.6365074046858 | etot = -17.935306878693
574000  ekin = 1.68882589350908 |  erot = 2.3209740449249 | epot = -22.6783832960445 | etot = -18.6685833576105
575000  ekin = 1.85490665091732 |  erot = 1.8564080891142 | epot = -22.7444448136904 | etot = -19.0331300736588
576000  ekin = 3.24775679594035 |  erot = 2.9556926821431 | epot = -22.6991990620437 | etot = -16.4957495839603
577000  ekin = 2.89423151645282 |  erot = 2.87486712706735 | epot = -22.628436560802 | etot = -16.8593379172818
578000  ekin = 2.4046091667757 |  erot = 2.78216711024699 | epot = -22.4348874817265 | etot = -17.2481112047039
579000  ekin = 2.40580528046576 |  erot = 1.9955781448253 | epot = -22.288913673667 | etot = -17.887530248376
580000  ekin = 2.69817090358906 |  erot = 1.94741864170502 | epot = -22.1754486864787 | etot = -17.5298591411846
581000  ekin = 2.06309668646281 |  erot = 2.97621367011722 | epot = -22.0670098600828 | etot = -17.0276995035027
582000  ekin = 2.33869527454826 |  erot = 3.07898324506955 | epot = -21.9478320300713 | etot = -16.5301535104535
583000  ekin = 2.23428959741495 |  erot = 2.68476693088864 | epot = -21.837983720672 | etot = -16.9189271923684
584000  ekin = 2.94321016295282 |  erot = 2.59995039730549 | epot = -21.7517635625832 | etot = -16.2086030023248
585000  ekin = 2.36063475490835 |  erot = 2.49112677628938 | epot = -21.7173359488816 | etot = -16.8655744176839
586000  ekin = 3.56583702163525 |  erot = 2.02487858259688 | epot = -21.7707868137138 | etot = -16.1800712094817
587000  ekin = 3.53727585853243 |  erot = 1.9725893265202 | epot = -21.7665121756112 | etot = -16.2566469905585
588000  ekin = 2.82339556293757 |  erot = 1.59340504807046 | epot = -21.7545319340972 | etot = -17.3377313230892
589000  ekin = 2.31627310139818 |  erot = 2.20582604523299 | epot = -21.8199173705563 | etot = -17.2978182239252
590000  ekin = 2.57616671531331 |  erot = 1.72768273328208 | epot = -21.8427138199642 | etot = -17.5388643713688
591000  ekin = 1.91473306171853 |  erot = 3.80604384238379 | epot = -21.9351393124187 | etot = -16.2143624083164
592000  ekin = 2.11222958764659 |  erot = 2.84208333850205 | epot = -21.9639458839076 | etot = -17.0096329577589
593000  ekin = 1.66462149590471 |  erot = 2.46217253451014 | epot = -21.9921445323971 | etot = -17.8653505019822
594000  ekin = 1.86314045588476 |  erot = 2.37275936142268 | epot = -22.1149191228505 | etot = -17.879019305543
595000  ekin = 1.6397125755004 |  erot = 2.1497024679856 | epot = -22.2960530768755 | etot = -18.5066380333895
596000  ekin = 1.86247376576131 |  erot = 1.5693809542787 | epot = -22.4014957466218 | etot = -18.9696410265818
597000  ekin = 2.210739014067 |  erot = 2.3087175693751 | epot = -22.4599242604733 | etot = -17.9404676770312
598000  ekin = 1.8660134932493 |  erot = 3.02311727399809 | epot = -22.5165298316334 | etot = -17.627399064386
599000  ekin = 2.86271635930755 |  erot = 2.19928854437227 | epot = -22.536599708025 | etot = -17.4745948043452
600000  ekin = 2.65062163067179 |  erot = 2.14533898812782 | epot = -22.4620537969303 | etot = -17.6660931781307
601000  ekin = 2.97018864875202 |  erot = 3.19824090103877 | epot = -22.3271949752462 | etot = -16.1587654254554
602000  ekin = 2.93416893709001 |  erot = 2.68627449040958 | epot = -22.2245183728173 | etot = -16.6040749453177
603000  ekin = 2.5987545006459 |  erot = 2.71301833029982 | epot = -22.1705323477201 | etot = -16.8587595167744
604000  ekin = 1.79059859762797 |  erot = 2.11515305424796 | epot = -22.1931056020217 | etot = -18.2873539501458
605000  ekin = 1.82914051863723 |  erot = 2.27656979248766 | epot = -22.2183915784731 | etot = -18.1126812673482
606000  ekin = 2.33864125390345 |  erot = 2.204164937778 | epot = -22.1617656383863 | etot = -17.6189594467048
607000  ekin = 2.72666217259876 |  erot = 2.97710334336218 | epot = -22.1572786906588 | etot = -16.4535131746978
608000  ekin = 2.45226937954678 |  erot = 2.41232790919959 | epot = -22.1263051367364 | etot = -17.2617078479901
609000  ekin = 1.91032127854288 |  erot = 2.62712516529567 | epot = -22.0127581830193 | etot = -17.4753117391807
610000  ekin = 3.01319055031108 |  erot = 2.17098104720965 | epot = -21.930499629869 | etot = -16.7463280323483
611000  ekin = 2.44410994437293 |  erot = 2.75159061185424 | epot = -21.9258193850468 | etot = -16.7301188288197
612000  ekin = 2.50271115837174 |  erot = 2.16817640692169 | epot = -21.9676183236645 | etot = -17.2967307583711
613000  ekin = 3.01842230632868 |  erot = 2.12784419676567 | epot = -22.0277467117807 | etot = -16.8814802086864
614000  ekin = 2.25331711369829 |  erot = 2.99334048390158 | epot = -22.0701464667307 | etot = -16.8234888691309
615000  ekin = 1.66376443031995 |  erot = 2.63613776051569 | epot = -21.9985978951916 | etot = -17.698695704356
616000  ekin = 1.89454248699046 |  erot = 2.87318355169532 | epot = -22.0041678369046 | etot = -17.2364417982189
617000  ekin = 2.14789714287838 |  erot = 2.51249074123957 | epot = -22.0251474680604 | etot = -17.3647595839425
618000  ekin = 3.11174934178844 |  erot = 2.74374306269141 | epot = -21.980284295602 | etot = -16.1247918911221
619000  ekin = 3.41036213968179 |  erot = 2.10616794159728 | epot = -21.9557959924962 | etot = -16.4392659112171
620000  ekin = 4.28430989238205 |  erot = 2.19572475327593 | epot = -21.9033881020935 | etot = -15.4233534564355
621000  ekin = 3.095687767491 |  erot = 2.55794040804605 | epot = -21.8286763731363 | etot = -16.1750481975993
622000  ekin = 2.76030419206697 |  erot = 2.60754397958254 | epot = -21.7459002641757 | etot = -16.3780520925262
623000  ekin = 2.87269212022169 |  erot = 2.90401311950186 | epot = -21.5853226709315 | etot = -15.8086174312079
624000  ekin = 2.01889500087932 |  erot = 3.41825755609791 | epot = -21.4095311686242 | etot = -15.972378611647
625000  ekin = 2.87966631754697 |  erot = 2.69115421564283 | epot = -21.2859406043045 | etot = -15.7151200711147
626000  ekin = 2.56087279949319 |  erot = 2.15801254335177 | epot = -21.2329175358055 | etot = -16.5140321929606
627000  ekin = 2.30197939613517 |  erot = 2.40176668957967 | epot = -21.2932794652839 | etot = -16.589533379569
628000  ekin = 2.23988628353727 |  erot = 2.75332535542195 | epot = -21.4558642198861 | etot = -16.4626525809268
629000  ekin = 2.20891060851904 |  erot = 1.97036896055006 | epot = -21.6109313731644 | etot = -17.4316518040953
630000  ekin = 2.48711004105954 |  erot = 2.14055508379566 | epot = -21.6286281269545 | etot = -17.0009630020993
631000  ekin = 2.05035510102044 |  erot = 1.78519131042561 | epot = -21.633635046353 | etot = -17.798088634907
632000  ekin = 1.65439924450982 |  erot = 3.28310987077496 | epot = -21.6999899301469 | etot = -16.7624808148621
633000  ekin = 2.34657988531209 |  erot = 2.34109631044869 | epot = -21.8317647703271 | etot = -17.1440885745664
634000  ekin = 2.31570267703931 |  erot = 2.471293173825 | epot = -21.8814211467029 | etot = -17.0944252958386
635000  ekin = 1.99068848818427 |  erot = 3.35493927676214 | epot = -21.9111632351734 | etot = -16.565535470227
636000  ekin = 2.5015676385862 |  erot = 2.48847742334419 | epot = -21.8752689055209 | etot = -16.8852238435905
637000  ekin = 2.76558055064046 |  erot = 2.80410341825293 | epot = -21.7874464522772 | etot = -16.2177624833838
638000  ekin = 2.45488734924466 |  erot = 2.81516363335622 | epot = -21.897362338598 | etot = -16.6273113559971
639000  ekin = 1.89221088715375 |  erot = 2.13319565970052 | epot = -21.932098303477 | etot = -17.9066917566227
640000  ekin = 2.12173400886946 |  erot = 3.32302167857403 | epot = -21.8808288554836 | etot = -16.4360731680401
641000  ekin = 2.09554541112562 |  erot = 2.23098450754968 | epot = -21.9203390995502 | etot = -17.5938091808749
642000  ekin = 2.28696138506763 |  erot = 2.67378976619349 | epot = -21.9723604262128 | etot = -17.0116092749517
643000  ekin = 2.74450005384908 |  erot = 2.20403941809548 | epot = -21.9235240791533 | etot = -16.9749846072088
644000  ekin = 2.87909523138453 |  erot = 3.40688779630214 | epot = -21.9417833997402 | etot = -15.6558003720535
645000  ekin = 2.38284095628021 |  erot = 2.10846397463902 | epot = -21.8306349073152 | etot = -17.339329976396
646000  ekin = 2.68568471833193 |  erot = 1.8085210536706 | epot = -21.6853054888873 | etot = -17.1910997168848
647000  ekin = 2.44462012552757 |  erot = 2.00446720103467 | epot = -21.4974635292911 | etot = -17.0483762027288
648000  ekin = 2.22150753159449 |  erot = 1.69679185313772 | epot = -21.5947311257684 | etot = -17.6764317410362
649000  ekin = 2.55943952639507 |  erot = 1.77203724563615 | epot = -22.016770390185 | etot = -17.6852936181538
650000  ekin = 2.7234725572106 |  erot = 2.20418229003755 | epot = -22.1594214535889 | etot = -17.2317666063407
651000  ekin = 2.25383373914402 |  erot = 3.26326768595798 | epot = -22.2274805933885 | etot = -16.7103791682865
652000  ekin = 2.35810253390822 |  erot = 2.29591208392313 | epot = -22.2332195197311 | etot = -17.5792049018997
653000  ekin = 2.06421004499471 |  erot = 2.1417184547457 | epot = -22.2265612208312 | etot = -18.0206327210908
654000  ekin = 2.30460304373657 |  erot = 1.85567946278894 | epot = -22.2521914868228 | etot = -18.0919089802973
655000  ekin = 2.11188824015111 |  erot = 1.79072614414006 | epot = -22.2262193909715 | etot = -18.3236050066803
656000  ekin = 2.44561836830367 |  erot = 2.32567811025775 | epot = -22.1872376286341 | etot = -17.4159411500727
657000  ekin = 2.45751083141108 |  erot = 2.86439216413734 | epot = -22.1805503246548 | etot = -16.8586473291064
658000  ekin = 2.49955432693124 |  erot = 2.85472680235227 | epot = -22.1390040132353 | etot = -16.7847228839518
659000  ekin = 3.37980090980363 |  erot = 2.77552992994233 | epot = -21.9898923341708 | etot = -15.8345614944249
660000  ekin = 2.6941462621918 |  erot = 1.99094454704574 | epot = -21.839770569098 | etot = -17.1546797598605
661000  ekin = 2.21049176877594 |  erot = 2.52393650500608 | epot = -21.6857326790217 | etot = -16.9513044052397
662000  ekin = 2.06962867519899 |  erot = 2.53976085175021 | epot = -21.6239147287108 | etot = -17.0145252017616
663000  ekin = 2.27770295544224 |  erot = 2.30124717941155 | epot = -21.5870186127932 | etot = -17.0080684779394
664000  ekin = 2.39061717453214 |  erot = 1.87616423363735 | epot = -21.4930500427881 | etot = -17.2262686346187
665000  ekin = 2.66924405123179 |  erot = 2.29240983153227 | epot = -21.4402310096658 | etot = -16.4785771269017
666000  ekin = 1.66318176263893 |  erot = 2.30827907651666 | epot = -21.3477804932103 | etot = -17.3763196540548
667000  ekin = 1.65573830146343 |  erot = 2.8261361193353 | epot = -21.2651811028886 | etot = -16.7833066820899
668000  ekin = 2.50126196238916 |  erot = 3.29062396521939 | epot = -21.1310768281354 | etot = -15.3391909005269
[...]
835000  ekin = 2.77558903596269 |  erot = 2.73757154391999 | epot = -20.4022293845421 | etot = -14.8890688046595
836000  ekin = 2.57713146919653 |  erot = 2.85322310545496 | epot = -20.5403137141641 | etot = -15.1099591395126
837000  ekin = 1.78075406754283 |  erot = 1.97503243561096 | epot = -20.5889142070484 | etot = -16.8331277038946
838000  ekin = 1.98032617531701 |  erot = 2.7982946707394 | epot = -20.6049667376349 | etot = -15.8263458915785
839000  ekin = 2.0003179521848 |  erot = 2.70198331564815 | epot = -20.5921495833285 | etot = -15.8898483154955
840000  ekin = 1.70031236242703 |  erot = 2.95685689490568 | epot = -20.6678372916037 | etot = -16.010668034271
841000  ekin = 2.77705100359315 |  erot = 2.84742847205069 | epot = -20.7929304121763 | etot = -15.1684509365325
842000  ekin = 2.54393458307436 |  erot = 2.87172695192627 | epot = -20.8173418291016 | etot = -15.401680294101
843000  ekin = 2.00273625390939 |  erot = 2.63437491598434 | epot = -20.8053999188197 | etot = -16.1682887489259
844000  ekin = 1.52900749569349 |  erot = 1.92882434140971 | epot = -20.8427655387949 | etot = -17.3849337016917
845000  ekin = 2.27176799938834 |  erot = 2.308436365406 | epot = -20.9384881501645 | etot = -16.3582837853702
846000  ekin = 2.06718804989496 |  erot = 2.33108662324981 | epot = -21.008503215967 | etot = -16.6102285428222
847000  ekin = 2.457310325364 |  erot = 2.64112097293887 | epot = -20.9624761048838 | etot = -15.8640448065809
848000  ekin = 2.13894899278459 |  erot = 1.46487099434192 | epot = -20.9909626022984 | etot = -17.3871426151719
849000  ekin = 2.0007946308419 |  erot = 2.48568109050424 | epot = -20.9995492646628 | etot = -16.5130735433167
850000  ekin = 2.54186297995285 |  erot = 2.66929613872204 | epot = -20.9906717645298 | etot = -15.7795126458549
851000  ekin = 2.16443404123472 |  erot = 2.92830981454153 | epot = -20.9932718794597 | etot = -15.9005280236835
852000  ekin = 2.48255398040851 |  erot = 2.46238001266592 | epot = -21.018749118108 | etot = -16.0738151250336
853000  ekin = 2.41541467016921 |  erot = 2.97520224443385 | epot = -20.9598722543997 | etot = -15.5692553397966
854000  ekin = 2.35150751079563 |  erot = 2.85453387569363 | epot = -20.8693696367608 | etot = -15.6633282502715
855000  ekin = 2.36749640703667 |  erot = 2.0675340835823 | epot = -20.8980197782034 | etot = -16.4629892875844
856000  ekin = 2.52164598863741 |  erot = 2.75265020302047 | epot = -20.800830948998 | etot = -15.5265347573401
857000  ekin = 2.55862872070476 |  erot = 3.03030828592914 | epot = -20.6910887919773 | etot = -15.1021517853434
858000  ekin = 3.12628251408762 |  erot = 2.1455460426107 | epot = -20.6394579492303 | etot = -15.367629392532
859000  ekin = 2.91259413572113 |  erot = 2.23773675238284 | epot = -20.6611486479508 | etot = -15.5108177598468
860000  ekin = 2.88318377110752 |  erot = 1.51972062646443 | epot = -20.6828066069552 | etot = -16.2799022093833
861000  ekin = 2.33529167415754 |  erot = 2.85116617791259 | epot = -20.6796212139896 | etot = -15.4931633619195
862000  ekin = 3.06091745354043 |  erot = 1.86960550588563 | epot = -20.7257485328209 | etot = -15.7952255733949
863000  ekin = 2.88295223464283 |  erot = 1.77743902656171 | epot = -20.8340328987095 | etot = -16.173641637505
864000  ekin = 2.95602292127633 |  erot = 2.6505641071531 | epot = -21.016295456145 | etot = -15.4097084277156
865000  ekin = 3.3172549369506 |  erot = 2.24347319046513 | epot = -21.1441095096619 | etot = -15.5833813822461
866000  ekin = 2.8446879555804 |  erot = 3.16802464112883 | epot = -21.2275167371632 | etot = -15.214804140454
867000  ekin = 2.74149808612435 |  erot = 3.09628634794253 | epot = -21.2140642048229 | etot = -15.376279770756
868000  ekin = 2.19141484864809 |  erot = 2.23765996064101 | epot = -21.1661691183494 | etot = -16.7370943090603
869000  ekin = 2.92726848075923 |  erot = 2.49663936074752 | epot = -21.1109612585256 | etot = -15.6870534170189
870000  ekin = 2.47986538741064 |  erot = 2.11907230969515 | epot = -21.0900293946685 | etot = -16.4910916975627
871000  ekin = 2.18342640526418 |  erot = 2.37474045896628 | epot = -20.9804914418025 | etot = -16.422324577572
872000  ekin = 1.52873571215978 |  erot = 2.08908078804674 | epot = -20.9343176993392 | etot = -17.3165011991327
873000  ekin = 1.39281578471524 |  erot = 2.29034780878957 | epot = -21.0007866828842 | etot = -17.3176230893794
874000  ekin = 1.40786554880768 |  erot = 2.77007970032348 | epot = -21.160084274243 | etot = -16.9821390251118
875000  ekin = 1.18320018517441 |  erot = 2.7305884288351 | epot = -21.2959059488291 | etot = -17.3821173348196
876000  ekin = 1.8300189393038 |  erot = 2.99586941144887 | epot = -21.3298635968753 | etot = -16.5039752461226
877000  ekin = 2.38032906471076 |  erot = 2.03722695211227 | epot = -21.4152790752831 | etot = -16.99772305846
878000  ekin = 2.1293851684127 |  erot = 1.75666654131943 | epot = -21.412657760354 | etot = -17.5266060506219
879000  ekin = 2.23837299177368 |  erot = 2.71307243504657 | epot = -21.4006541150457 | etot = -16.4492086882254
880000  ekin = 2.68032631557358 |  erot = 2.78439945590096 | epot = -21.4462782448912 | etot = -15.9815524734167
881000  ekin = 2.86810525851389 |  erot = 2.35959915589952 | epot = -21.4314549447334 | etot = -16.20375053032
882000  ekin = 2.33172283615115 |  erot = 2.17176020371467 | epot = -21.369535469283 | etot = -16.8660524294172
883000  ekin = 2.36331150998289 |  erot = 1.97634374053966 | epot = -21.1748990104138 | etot = -16.8352437598913
884000  ekin = 2.53782271833829 |  erot = 2.25243670168427 | epot = -21.0795767771653 | etot = -16.2893173571427
885000  ekin = 2.86057103069745 |  erot = 2.27462544190307 | epot = -21.0782171958267 | etot = -15.9430207232262
886000  ekin = 3.17034195996096 |  erot = 1.74832646729409 | epot = -21.1280719510453 | etot = -16.2094035237903
887000  ekin = 2.66023408534638 |  erot = 2.49426802108016 | epot = -21.1909579488462 | etot = -16.0364558424197
888000  ekin = 2.14156056158802 |  erot = 2.83065920295552 | epot = -21.2749898508176 | etot = -16.302770086274
889000  ekin = 2.13776380125426 |  erot = 2.19994227158624 | epot = -21.1902576201104 | etot = -16.8525515472699
890000  ekin = 1.76446650263826 |  erot = 2.97354753014624 | epot = -21.2518724314555 | etot = -16.513858398671
891000  ekin = 1.64433607192947 |  erot = 2.28044235221045 | epot = -21.3759471910581 | etot = -17.4511687669181
892000  ekin = 1.97381907006142 |  erot = 2.35969977765342 | epot = -21.5200869372681 | etot = -17.1865680895533
893000  ekin = 1.77998159671209 |  erot = 1.83959134574388 | epot = -21.5960425863495 | etot = -17.9764696438935
894000  ekin = 2.8098996128374 |  erot = 2.80337844303785 | epot = -21.6896955865519 | etot = -16.0764175306767
895000  ekin = 2.03570642281182 |  erot = 2.73641442629084 | epot = -21.77632807541 | etot = -17.0042072263074
896000  ekin = 1.6670401968188 |  erot = 2.55842313387756 | epot = -21.9079691828366 | etot = -17.6825058521403
897000  ekin = 1.79364820755772 |  erot = 2.35937074837063 | epot = -22.0466195733302 | etot = -17.8936006174018
898000  ekin = 1.84103348909591 |  erot = 2.4159698011209 | epot = -22.0792153246985 | etot = -17.8222120344817
899000  ekin = 1.6644807831865 |  erot = 3.06295573986192 | epot = -22.0050930291629 | etot = -17.2776565061145
900000  ekin = 2.15301263014261 |  erot = 2.62503812958044 | epot = -21.9769631774149 | etot = -17.1989124176918
901000  ekin = 2.43323525076021 |  erot = 2.69661561775585 | epot = -22.0455467285607 | etot = -16.9156958600446
902000  ekin = 2.57983518470479 |  erot = 2.40634661051271 | epot = -22.0504126836938 | etot = -17.0642308884763
903000  ekin = 2.38804084084236 |  erot = 2.40369143268286 | epot = -22.0548572254258 | etot = -17.2631249519006
904000  ekin = 1.9975679938241 |  erot = 3.15736733739655 | epot = -22.0783783499621 | etot = -16.9234430187414
905000  ekin = 2.28042135995781 |  erot = 2.20746001153526 | epot = -22.092475444409 | etot = -17.604594072916
906000  ekin = 2.49914497220395 |  erot = 1.67106173041057 | epot = -22.0649292741971 | etot = -17.8947225715826
907000  ekin = 2.34170753461351 |  erot = 2.16830189815579 | epot = -21.9182395193391 | etot = -17.4082300865698
908000  ekin = 2.83101675354561 |  erot = 2.39226452568031 | epot = -21.9393923471479 | etot = -16.7161110679219
909000  ekin = 3.13519044247878 |  erot = 2.07053636961478 | epot = -22.044039894957 | etot = -16.8383130828634
910000  ekin = 2.91492350277448 |  erot = 3.54269221448408 | epot = -22.1774209001616 | etot = -15.719805182903
911000  ekin = 1.86299522014884 |  erot = 2.75425299355676 | epot = -22.2318842654016 | etot = -17.614636051696
912000  ekin = 2.64270620869814 |  erot = 1.86916034984858 | epot = -22.2816929482531 | etot = -17.7698263897064
913000  ekin = 2.45835259040075 |  erot = 2.03343540339216 | epot = -22.4051980318983 | etot = -17.9134100381054
914000  ekin = 2.01630257583653 |  erot = 3.01931541129968 | epot = -22.505580829989 | etot = -17.4699628428528
915000  ekin = 2.73550820750709 |  erot = 2.14051989379169 | epot = -22.5067223019054 | etot = -17.6306942006067
916000  ekin = 2.38833694849903 |  erot = 3.26236542376325 | epot = -22.5299732656691 | etot = -16.8792708934068
917000  ekin = 2.21211072529667 |  erot = 2.24425221182159 | epot = -22.5175498112378 | etot = -18.0611868741195
918000  ekin = 2.11721632678553 |  erot = 2.05681940825278 | epot = -22.4485798442659 | etot = -18.2745441092275
919000  ekin = 2.6606540164524 |  erot = 2.41853759346262 | epot = -22.4819256778217 | etot = -17.4027340679066
920000  ekin = 3.26471044916532 |  erot = 2.75531911342505 | epot = -22.5858600689149 | etot = -16.5658305063245
921000  ekin = 2.72028388628927 |  erot = 1.9696059637128 | epot = -22.639440275186 | etot = -17.949550425184
922000  ekin = 1.43428549123066 |  erot = 1.52428475569853 | epot = -22.6914991306332 | etot = -19.732928883704
923000  ekin = 1.67603986848274 |  erot = 1.86522020655464 | epot = -22.7510571233686 | etot = -19.2097970483313
924000  ekin = 2.15000311118185 |  erot = 1.53327070095755 | epot = -22.722341324193 | etot = -19.0390675120536
925000  ekin = 2.27769316315993 |  erot = 1.3558291477729 | epot = -22.6317669747038 | etot = -18.9982446637709
926000  ekin = 2.0037075380337 |  erot = 2.07123237010034 | epot = -22.5811533157097 | etot = -18.5062134075756
927000  ekin = 2.5163142824884 |  erot = 1.98711239136866 | epot = -22.6957752134474 | etot = -18.1923485395904
928000  ekin = 2.57502157703452 |  erot = 2.51449316644151 | epot = -22.8486668477058 | etot = -17.7591521042298
929000  ekin = 2.66015175923782 |  erot = 1.82991995656989 | epot = -22.8894816710891 | etot = -18.3994099552814
930000  ekin = 2.41758548277495 |  erot = 2.00977019739402 | epot = -22.9023129289068 | etot = -18.4749572487378
931000  ekin = 3.01936517399357 |  erot = 2.11115283295647 | epot = -22.8598478032752 | etot = -17.7293297963252
932000  ekin = 2.34904883629147 |  erot = 1.87134929534042 | epot = -22.900230384769 | etot = -18.6798322531371
933000  ekin = 2.16775611540091 |  erot = 2.83796264813669 | epot = -22.9075292968864 | etot = -17.9018105333488
934000  ekin = 2.17428610858913 |  erot = 2.11891276299501 | epot = -22.9275911153101 | etot = -18.634392243726
935000  ekin = 2.35380058127247 |  erot = 2.22719757040085 | epot = -22.9178791070039 | etot = -18.3368809553306
936000  ekin = 2.29398857252167 |  erot = 2.52122883801967 | epot = -23.0254587453496 | etot = -18.2102413348082
937000  ekin = 2.32405492839276 |  erot = 2.82571975062453 | epot = -23.1134869099967 | etot = -17.9637122309794
938000  ekin = 2.46190818228192 |  erot = 1.99586541720566 | epot = -23.1690855883853 | etot = -18.7113119888978
939000  ekin = 2.99494633358444 |  erot = 2.1120057997909 | epot = -23.1621265982256 | etot = -18.0551744648503
940000  ekin = 3.76773061527755 |  erot = 2.67954167018356 | epot = -23.1020260319689 | etot = -16.6547537465078
941000  ekin = 3.15108874053801 |  erot = 2.26610050109568 | epot = -23.0042404655517 | etot = -17.587051223918
942000  ekin = 3.50311245643907 |  erot = 1.88373602143018 | epot = -22.9671180112669 | etot = -17.5802695333976
943000  ekin = 3.82043792465856 |  erot = 2.71285823250348 | epot = -22.9404059827705 | etot = -16.4071098256085
944000  ekin = 2.68278476017665 |  erot = 2.75585489458161 | epot = -22.919058077481 | etot = -17.4804184227228
945000  ekin = 2.55880828345198 |  erot = 2.02741981318914 | epot = -22.8232630911495 | etot = -18.2370349945083
946000  ekin = 2.47548691870273 |  erot = 1.66864059361738 | epot = -22.6586979544826 | etot = -18.5145704421625
947000  ekin = 2.41867478100658 |  erot = 1.99274780926995 | epot = -22.5542133657 | etot = -18.1427907754235
948000  ekin = 3.54970439277899 |  erot = 2.57756240201333 | epot = -22.4104376157296 | etot = -16.2831708209373
949000  ekin = 2.98589976166071 |  erot = 2.44208964275302 | epot = -22.1971411230011 | etot = -16.7691517185873
950000  ekin = 1.82147308870195 |  erot = 3.05083899379338 | epot = -22.0435130221227 | etot = -17.1712009396274
951000  ekin = 2.20031505253436 |  erot = 2.38004890424644 | epot = -22.0174402075992 | etot = -17.4370762508184
952000  ekin = 2.14165422682636 |  erot = 1.67045420750585 | epot = -21.9875031647927 | etot = -18.1753947304605
953000  ekin = 2.2983346942831 |  erot = 1.97349532600851 | epot = -21.9532851584681 | etot = -17.6814551381765
954000  ekin = 1.48835290094507 |  erot = 3.35692451991831 | epot = -21.8812774176255 | etot = -17.0359999967621
955000  ekin = 1.87513794155827 |  erot = 2.65898918540887 | epot = -21.7919528937348 | etot = -17.2578257667677
956000  ekin = 1.6947359470094 |  erot = 2.15427252360414 | epot = -21.7268035908356 | etot = -17.877795120222
957000  ekin = 1.75579814865835 |  erot = 1.63901039608816 | epot = -21.700727032202 | etot = -18.3059184874555
958000  ekin = 1.59869777656518 |  erot = 2.20104985114387 | epot = -21.7023937250484 | etot = -17.9026460973393
959000  ekin = 2.58438881562724 |  erot = 2.4897790743314 | epot = -21.7153511733982 | etot = -16.6411832834396
960000  ekin = 2.53916903929276 |  erot = 2.05995138561213 | epot = -21.7134163297425 | etot = -17.1142959048376
961000  ekin = 2.28282707786747 |  erot = 2.18347157951504 | epot = -21.7152390799838 | etot = -17.2489404226013
962000  ekin = 1.65520100959905 |  erot = 3.51416445242775 | epot = -21.7329558565076 | etot = -16.5635903944808
963000  ekin = 1.99568689924178 |  erot = 1.50126173817713 | epot = -21.6847527677603 | etot = -18.1878041303413
964000  ekin = 2.18616111169191 |  erot = 2.27601428306196 | epot = -21.621271673579 | etot = -17.1590962788252
965000  ekin = 2.12688674785305 |  erot = 2.31141713690626 | epot = -21.6018715374842 | etot = -17.1635676527249
966000  ekin = 3.18043989665769 |  erot = 3.42455452205085 | epot = -21.638305203769 | etot = -15.0333107850605
967000  ekin = 3.07300409154252 |  erot = 2.17511749698304 | epot = -21.5951488445701 | etot = -16.3470272560445
968000  ekin = 2.08663150655529 |  erot = 2.13997027735021 | epot = -21.5232721871232 | etot = -17.2966704032177
969000  ekin = 2.26951411936363 |  erot = 2.21822796004341 | epot = -21.4611553284775 | etot = -16.9734132490705
970000  ekin = 2.49167396599781 |  erot = 2.62083774678039 | epot = -21.4077353682587 | etot = -16.2952236554805
971000  ekin = 2.497450596106 |  erot = 2.64553775005007 | epot = -21.3712924820092 | etot = -16.2283041358532
972000  ekin = 3.2069302084461 |  erot = 2.4701129448845 | epot = -21.3144344371103 | etot = -15.6373912837797
973000  ekin = 3.35935448087941 |  erot = 2.62917582888825 | epot = -21.2433830591837 | etot = -15.254852749416
974000  ekin = 2.71069552226069 |  erot = 2.13944446989067 | epot = -21.1404268855179 | etot = -16.2902868933666
975000  ekin = 1.81165819781674 |  erot = 2.10218924092727 | epot = -21.0499905566304 | etot = -17.1361431178864
976000  ekin = 2.36984742020937 |  erot = 1.38488988265325 | epot = -20.9803229653515 | etot = -17.2255856624889
977000  ekin = 2.83728662155799 |  erot = 3.02976542728586 | epot = -21.086860961914 | etot = -15.2198089130701
978000  ekin = 3.14169266917128 |  erot = 3.0279981203262 | epot = -21.1408187166748 | etot = -14.9711279271773
979000  ekin = 3.63725915757345 |  erot = 2.47075910077982 | epot = -21.0348329782418 | etot = -14.9268147198885
980000  ekin = 3.42622785415583 |  erot = 3.24164435781272 | epot = -20.9604411583362 | etot = -14.2925689463677
981000  ekin = 2.9282364939793 |  erot = 2.44516658563954 | epot = -20.999389015838 | etot = -15.6259859362192
982000  ekin = 2.0455891107008 |  erot = 2.21302288881361 | epot = -21.0172581853275 | etot = -16.7586461858131
983000  ekin = 2.56053983213181 |  erot = 1.98406283304104 | epot = -21.0054554868711 | etot = -16.4608528216982
984000  ekin = 2.31455025377678 |  erot = 2.58584391470351 | epot = -21.0528748947299 | etot = -16.1524807262496
985000  ekin = 2.31703817263368 |  erot = 2.99965025262552 | epot = -21.1270579315131 | etot = -15.8103695062539
986000  ekin = 2.05103854432386 |  erot = 2.1535155091137 | epot = -21.2182405597612 | etot = -17.0136865063236
987000  ekin = 2.41899263793244 |  erot = 1.58416150281503 | epot = -21.1906087726859 | etot = -17.1874546319384
988000  ekin = 2.75135283132848 |  erot = 2.70498731016258 | epot = -21.09026978368 | etot = -15.633929642189
989000  ekin = 2.29408577956131 |  erot = 2.85656205344493 | epot = -21.0178170251465 | etot = -15.8671691921403
990000  ekin = 2.23414139649767 |  erot = 2.58987928207187 | epot = -20.9412338597721 | etot = -16.1172131812026
991000  ekin = 2.20140095465642 |  erot = 2.53421928109187 | epot = -20.8284298905317 | etot = -16.0928096547834
992000  ekin = 1.73516341340694 |  erot = 2.49726908126814 | epot = -20.8981414535471 | etot = -16.665708958872
993000  ekin = 1.38883779880922 |  erot = 1.96818984395137 | epot = -20.9939445972527 | etot = -17.6369169544921
994000  ekin = 1.48978908674571 |  erot = 2.95636513336706 | epot = -21.0608370227912 | etot = -16.6146828026784
995000  ekin = 2.31404204513712 |  erot = 1.67482961392509 | epot = -21.1264761824825 | etot = -17.1376045234203
996000  ekin = 2.89776504847011 |  erot = 2.85063328331353 | epot = -21.0879631716189 | etot = -15.3395648398353
997000  ekin = 3.12980664910277 |  erot = 2.14994147346883 | epot = -21.0789162715404 | etot = -15.7991681489688
998000  ekin = 2.21592279552962 |  erot = 3.03017611615784 | epot = -20.9989402817529 | etot = -15.7528413700654
999000  ekin = 2.60947995309596 |  erot = 1.73829419308785 | epot = -20.9136108602423 | etot = -16.5658367140585
1000000  ekin = 2.32269547490306 |  erot = 2.87794942105203 | epot = -20.9071852604882 | etot = -15.7065403645331
 1000000   0.10323091    -1.356822  0.050122912   -1.1615306 0.00013791576 
Loop time of 52.0267 on 4 procs for 1000000 steps with 16 atoms

Performance: 16606.850 tau/day, 19220.892 timesteps/s
96.4% CPU use with 4 MPI tasks x no OpenMP threads

MPI task timing breakdown:
Section |  min time  |  avg time  |  max time  |%varavg| %total
---------------------------------------------------------------
Pair    | 0.92946    | 16.932     | 31.787     | 338.2 | 32.55
Bond    | 0.12904    | 0.54878    | 0.89134    |  46.8 |  1.05
Neigh   | 0          | 0          | 0          |   0.0 |  0.00
Comm    | 4.2008     | 5.1678     | 6.1197     |  36.6 |  9.93
Output  | 2.1e-05    | 3.15e-05   | 3.6e-05    |   0.0 |  0.00
Modify  | 0.32128    | 3.4221     | 6.4024     | 143.6 |  6.58
Other   |            | 25.96      |            |       | 49.89

Nlocal:    4 ave 8 max 0 min
Histogram: 1 1 0 0 0 0 0 0 1 1
Nghost:    9 ave 10 max 8 min
Histogram: 1 0 0 0 0 2 0 0 0 1
Neighs:    34.5 ave 67 max 0 min
Histogram: 1 1 0 0 0 0 0 0 0 2

Total # of neighbors = 138
Ave neighs/atom = 8.625
Ave special neighs/atom = 3.75
Neighbor list builds = 0
Dangerous builds = 0

#write_restart config.${number}.*
Total wall time: 0:00:52
