LAMMPS (30 Jun 2020)
variable number	equal 2
variable ofreq	equal 1000
variable efreq	equal 1000
variable T      equal 0.1

units lj

dimension 3

newton off

boundary  p p p

atom_style hybrid bond ellipsoid
WARNING: Atom_style hybrid defines both pertype and peratom masses - both must be set, only peratom masses will be used (../atom_vec_hybrid.cpp:156)
atom_modify sort 0 1.0

# Pair interactions require lists of neighbours to be calculated
neighbor 1.0 bin
neigh_modify every 1 delay 0 check yes

read_data data.duplex2
  orthogonal box = (-20 -20 -20) to (20 20 20)
  1 by 1 by 1 MPI processor grid
  reading atoms ...
  16 atoms
  reading velocities ...
  16 velocities
  16 ellipsoids
  scanning bonds ...
  2 = max bonds/atom
  reading bonds ...
  13 bonds
  2 = max # of 1-2 neighbors
  2 = max # of 1-3 neighbors
  4 = max # of 1-4 neighbors
  6 = max # of special neighbors
  special bonds CPU = 0.000 seconds
  read_data CPU = 0.002 seconds

set atom * mass 3.1575
  16 settings made for mass

group all type 1 4
16 atoms in group all

# oxDNA bond interactions - FENE backbone
bond_style oxdna/fene
bond_coeff * 2.0 0.25 0.7525
special_bonds lj 0 1 1
  2 = max # of 1-2 neighbors
  2 = max # of 1-3 neighbors
  4 = max # of 1-4 neighbors
  6 = max # of special neighbors
  special bonds CPU = 0.000 seconds

# oxDNA pair interactions
pair_style hybrid/overlay oxdna/excv oxdna/stk oxdna/hbond oxdna/xstk oxdna/coaxstk
pair_coeff * * oxdna/excv    2.0 0.7 0.675 2.0 0.515 0.5 2.0 0.33 0.32
pair_coeff * * oxdna/stk     seqav ${T} 1.3448 2.6568 6.0 0.4 0.9 0.32 0.75 1.3 0 0.8 0.9 0 0.95 0.9 0 0.95 2.0 0.65 2.0 0.65
pair_coeff * * oxdna/stk     seqav 0.1 1.3448 2.6568 6.0 0.4 0.9 0.32 0.75 1.3 0 0.8 0.9 0 0.95 0.9 0 0.95 2.0 0.65 2.0 0.65
pair_coeff * * oxdna/hbond   seqav 0.0   8.0 0.4 0.75 0.34 0.7 1.5 0 0.7 1.5 0 0.7 1.5 0 0.7 0.46 3.141592653589793 0.7 4.0 1.5707963267948966 0.45 4.0 1.5707963267948966 0.45
pair_coeff 1 4 oxdna/hbond   seqav 1.077 8.0 0.4 0.75 0.34 0.7 1.5 0 0.7 1.5 0 0.7 1.5 0 0.7 0.46 3.141592653589793 0.7 4.0 1.5707963267948966 0.45 4.0 1.5707963267948966 0.45
pair_coeff 2 3 oxdna/hbond   seqav 1.077 8.0 0.4 0.75 0.34 0.7 1.5 0 0.7 1.5 0 0.7 1.5 0 0.7 0.46 3.141592653589793 0.7 4.0 1.5707963267948966 0.45 4.0 1.5707963267948966 0.45
pair_coeff * * oxdna/xstk    47.5 0.575 0.675 0.495 0.655 2.25 0.791592653589793 0.58 1.7 1.0 0.68 1.7 1.0 0.68 1.5 0 0.65 1.7 0.875 0.68 1.7 0.875 0.68
pair_coeff * * oxdna/coaxstk 46.0 0.4 0.6 0.22 0.58 2.0 2.541592653589793 0.65 1.3 0 0.8 0.9 0 0.95 0.9 0 0.95 2.0 -0.65 2.0 -0.65

# NVE ensemble
#fix 1 all nve/dot
#fix 1 all nve/dotc/langevin ${T} ${T} 0.03 457145 angmom 10
fix 1 all nve/asphere
fix 2 all langevin ${T} ${T} 0.03 457145 angmom 10
fix 2 all langevin 0.1 ${T} 0.03 457145 angmom 10
fix 2 all langevin 0.1 0.1 0.03 457145 angmom 10

timestep 1e-5

#comm_style tiled
#fix 3 all balance 10000 1.1 rcb
comm_modify cutoff 2.5

#compute mol all chunk/atom molecule
#compute mychunk all vcm/chunk mol
#fix 4 all ave/time 10000 1 10000 c_mychunk[1] c_mychunk[2] c_mychunk[3] file vcm.txt mode vector

#dump pos all xyz ${ofreq} traj.${number}.xyz

#compute quat all property/atom quatw quati quatj quatk
#dump quat all custom ${ofreq} quat.${number}.txt id c_quat[1] c_quat[2] c_quat[3] c_quat[4]
#dump_modify quat sort id
#dump_modify quat format line "%d  %13.6le  %13.6le  %13.6le  %13.6le"

compute erot all erotate/asphere
compute ekin all ke
compute epot all pe
variable erot equal c_erot
variable ekin equal c_ekin
variable epot equal c_epot
variable etot equal c_erot+c_ekin+c_epot
fix 5 all print ${efreq} "$(step)  ekin = ${ekin} |  erot = ${erot} | epot = ${epot} | etot = ${etot}" screen yes
fix 5 all print 1000 "$(step)  ekin = ${ekin} |  erot = ${erot} | epot = ${epot} | etot = ${etot}" screen yes

#dump out all custom ${ofreq} out.${number}.txt id x y z vx vy vz fx fy fz tqx tqy tqz
#dump_modify out sort id
#dump_modify out format line "%d   %13.6le %13.6le %13.6le  %13.6le %13.6le %13.6le  %13.6le %13.6le %13.6le  %13.6le %13.6le %13.6le"

run 1000000
Neighbor list info ...
  update every 1 steps, delay 0 steps, check yes
  max neighbors/atom: 2000, page size: 100000
  master list distance cutoff = 1.9560004
  ghost atom cutoff = 2.5
  binsize = 0.97800022, bins = 41 41 41
  5 neighbor lists, perpetual/occasional/extra = 5 0 0
  (1) pair oxdna/excv, perpetual
      attributes: half, newton off
      pair build: half/bin/newtoff
      stencil: half/bin/3d/newtoff
      bin: standard
  (2) pair oxdna/stk, perpetual, copy from (1)
      attributes: half, newton off
      pair build: copy
      stencil: none
      bin: none
  (3) pair oxdna/hbond, perpetual, copy from (1)
      attributes: half, newton off
      pair build: copy
      stencil: none
      bin: none
  (4) pair oxdna/xstk, perpetual, copy from (1)
      attributes: half, newton off
      pair build: copy
      stencil: none
      bin: none
  (5) pair oxdna/coaxstk, perpetual, copy from (1)
      attributes: half, newton off
      pair build: copy
      stencil: none
      bin: none
0  ekin = 0 |  erot = 0 | epot = -24.5312382023597 | etot = -24.5312382023597
Per MPI rank memory allocation (min/avg/max) = 8.008 | 8.008 | 8.008 Mbytes
Step Temp E_pair E_mol TotEng Press 
       0            0   -1.5402493 0.0070469125   -1.5332024 6.0760034e-06 
1000  ekin = 1.14690574396998 |  erot = 2.51569518930742 | epot = -24.5229788082339 | etot = -20.8603778749565
2000  ekin = 1.45399965653676 |  erot = 2.47529346761995 | epot = -24.5053413112924 | etot = -20.5760481871357
3000  ekin = 1.98748516841538 |  erot = 2.27869060236515 | epot = -24.479432022183 | etot = -20.2132562514025
4000  ekin = 1.64496816080429 |  erot = 1.81579764130658 | epot = -24.4776224042961 | etot = -21.0168566021853
5000  ekin = 1.84895966245555 |  erot = 2.72664609970378 | epot = -24.4004650506536 | etot = -19.8248592884943
6000  ekin = 2.81982646967251 |  erot = 2.27943933047792 | epot = -24.3708804580518 | etot = -19.2716146579014
7000  ekin = 3.4295488541453 |  erot = 3.06244546790251 | epot = -24.2894811609395 | etot = -17.7974868388917
8000  ekin = 3.46902364328651 |  erot = 1.87163076744154 | epot = -24.2046945377415 | etot = -18.8640401270135
9000  ekin = 3.42624221752733 |  erot = 2.19665328890067 | epot = -24.1061295133862 | etot = -18.4832340069582
10000  ekin = 3.47261688291849 |  erot = 2.11359627880933 | epot = -23.9936001795499 | etot = -18.4073870178221
11000  ekin = 2.94815134012461 |  erot = 1.68371787420979 | epot = -23.8824451066212 | etot = -19.2505758922868
12000  ekin = 2.91661369846828 |  erot = 2.44986569301244 | epot = -23.7971038712851 | etot = -18.4306244798044
13000  ekin = 2.90452877485052 |  erot = 3.15041912070996 | epot = -23.7183348836954 | etot = -17.6633869881349
14000  ekin = 3.03173396911322 |  erot = 3.20528252680661 | epot = -23.6395534566822 | etot = -17.4025369607624
15000  ekin = 3.10924339992056 |  erot = 2.34851811722898 | epot = -23.5718810747763 | etot = -18.1141195576268
16000  ekin = 2.21129165426584 |  erot = 2.77310226941398 | epot = -23.4674880203451 | etot = -18.4830940966653
17000  ekin = 1.64364291226705 |  erot = 2.11093006069599 | epot = -23.4464921197588 | etot = -19.6919191467958
18000  ekin = 1.71575404949661 |  erot = 2.18377153128382 | epot = -23.4394231359426 | etot = -19.5398975551621
19000  ekin = 2.74802968392513 |  erot = 3.43483629560937 | epot = -23.451104173519 | etot = -17.2682381939845
20000  ekin = 2.3643229041162 |  erot = 2.97756435312011 | epot = -23.4354516313364 | etot = -18.0935643741001
21000  ekin = 3.01197341291121 |  erot = 2.06047278730446 | epot = -23.4653464733578 | etot = -18.3929002731421
22000  ekin = 2.72181189461236 |  erot = 1.68043760380063 | epot = -23.499010600721 | etot = -19.0967611023081
23000  ekin = 2.78354866420193 |  erot = 2.27555762688526 | epot = -23.4149266394174 | etot = -18.3558203483302
24000  ekin = 2.70238951268775 |  erot = 2.77699460975588 | epot = -23.3727816681014 | etot = -17.8933975456577
25000  ekin = 2.79329314290743 |  erot = 1.72270284379168 | epot = -23.4092634474478 | etot = -18.8932674607487
26000  ekin = 2.12045088758989 |  erot = 2.56536846297423 | epot = -23.4001345199736 | etot = -18.7143151694095
27000  ekin = 2.13984384122857 |  erot = 2.80867896704025 | epot = -23.372540623668 | etot = -18.4240178153992
28000  ekin = 1.83987887691915 |  erot = 1.95066344021761 | epot = -23.3274470842878 | etot = -19.536904767151
29000  ekin = 1.89211705701482 |  erot = 2.1696768345372 | epot = -23.293062192394 | etot = -19.231268300842
30000  ekin = 2.14849041779036 |  erot = 2.16067509784504 | epot = -23.2773582752331 | etot = -18.9681927595977
31000  ekin = 2.67234738212361 |  erot = 2.86863391076037 | epot = -23.2995071870109 | etot = -17.7585258941269
32000  ekin = 2.53397631055537 |  erot = 2.90803809156287 | epot = -23.2362493660415 | etot = -17.7942349639233
33000  ekin = 3.08856443970765 |  erot = 2.77830373791794 | epot = -23.1957127399696 | etot = -17.328844562344
34000  ekin = 2.34758696559903 |  erot = 2.73235573196028 | epot = -23.1859092641964 | etot = -18.1059665666371
35000  ekin = 2.37656125971695 |  erot = 2.21670282442912 | epot = -23.2990352575428 | etot = -18.7057711733968
36000  ekin = 1.91500165278598 |  erot = 2.22479415969906 | epot = -23.3423509866966 | etot = -19.2025551742115
37000  ekin = 1.90416513806792 |  erot = 2.44362474415858 | epot = -23.4523097395397 | etot = -19.1045198573132
38000  ekin = 2.64855728429901 |  erot = 2.6250961281024 | epot = -23.4330562973534 | etot = -18.159402884952
39000  ekin = 2.47023253086004 |  erot = 2.94458438664745 | epot = -23.3886129152296 | etot = -17.9737959977221
40000  ekin = 2.36649278209599 |  erot = 2.21667374563979 | epot = -23.3060594391637 | etot = -18.722892911428
41000  ekin = 2.11640638984279 |  erot = 2.75431236003956 | epot = -23.296637047546 | etot = -18.4259182976636
42000  ekin = 2.19538989967685 |  erot = 2.80995153019434 | epot = -23.3287628829795 | etot = -18.3234214531083
43000  ekin = 2.28336241709741 |  erot = 1.91100961808481 | epot = -23.398154745965 | etot = -19.2037827107827
44000  ekin = 2.43910444561977 |  erot = 2.20967357150541 | epot = -23.3408075599757 | etot = -18.6920295428505
45000  ekin = 1.99725725495469 |  erot = 2.55697923716124 | epot = -23.2988802257869 | etot = -18.744643733671
46000  ekin = 2.80179143005448 |  erot = 3.94591979804991 | epot = -23.2634234091195 | etot = -16.5157121810151
47000  ekin = 2.00831918922489 |  erot = 1.99358498528542 | epot = -23.1997437408908 | etot = -19.1978395663805
48000  ekin = 2.65343777724262 |  erot = 3.19529693167641 | epot = -23.2752277173461 | etot = -17.4264930084271
49000  ekin = 3.08609210167617 |  erot = 3.098444131902 | epot = -23.3331562765622 | etot = -17.148620042984
50000  ekin = 2.79161045816108 |  erot = 3.87280243835105 | epot = -23.283716155905 | etot = -16.6193032593929
51000  ekin = 2.63041022395737 |  erot = 1.73292678860556 | epot = -23.2028735154881 | etot = -18.8395365029252
52000  ekin = 2.18205853362573 |  erot = 2.96101862628972 | epot = -23.1079417719452 | etot = -17.9648646120298
53000  ekin = 2.3943556604873 |  erot = 3.52800628354648 | epot = -23.0586505350936 | etot = -17.1362885910599
54000  ekin = 2.12390729593688 |  erot = 2.48502694765291 | epot = -22.9790932946842 | etot = -18.3701590510944
55000  ekin = 1.95245465404747 |  erot = 2.39606028736228 | epot = -23.0362462549527 | etot = -18.687731313543
56000  ekin = 2.078586656515 |  erot = 2.51006580668827 | epot = -23.0629170158575 | etot = -18.4742645526543
57000  ekin = 2.60842664676812 |  erot = 3.02172637784133 | epot = -23.0307524021856 | etot = -17.4005993775762
58000  ekin = 2.99447041104738 |  erot = 2.32823492888449 | epot = -23.0721969273868 | etot = -17.7494915874549
59000  ekin = 2.4566598353902 |  erot = 2.43942437937462 | epot = -23.0847799943358 | etot = -18.188695779571
60000  ekin = 2.6971497663209 |  erot = 1.66133214228194 | epot = -23.0332753747144 | etot = -18.6747934661116
61000  ekin = 2.11191914746267 |  erot = 1.6204782869367 | epot = -22.9667049822233 | etot = -19.234307547824
62000  ekin = 2.11717212979171 |  erot = 2.47796844210791 | epot = -22.8144212994634 | etot = -18.2192807275637
63000  ekin = 2.72171812217735 |  erot = 2.66368566253267 | epot = -22.7776567061626 | etot = -17.3922529214526
64000  ekin = 3.22835802379379 |  erot = 2.36781220330958 | epot = -22.7933861176758 | etot = -17.1972158905724
65000  ekin = 3.64756058058813 |  erot = 3.15015944023671 | epot = -22.7765851531231 | etot = -15.9788651322982
66000  ekin = 2.66639386198067 |  erot = 2.72112154754982 | epot = -22.7755021487188 | etot = -17.3879867391884
67000  ekin = 2.38306133316432 |  erot = 2.49378542212015 | epot = -22.7973748348603 | etot = -17.9205280795759
68000  ekin = 2.52481286112851 |  erot = 3.23872813661013 | epot = -22.8468557220554 | etot = -17.0833147243168
69000  ekin = 2.60430769391747 |  erot = 3.00968890211103 | epot = -22.8318824138615 | etot = -17.217885817833
70000  ekin = 2.72529278847958 |  erot = 2.96912272855297 | epot = -22.9182544554594 | etot = -17.2238389384268
71000  ekin = 2.30851064297996 |  erot = 2.44510178131689 | epot = -23.110146286175 | etot = -18.3565338618781
72000  ekin = 1.86333205174444 |  erot = 2.21918738219008 | epot = -23.2088713208781 | etot = -19.1263518869436
73000  ekin = 1.97363737837151 |  erot = 2.92039675389546 | epot = -23.3456188157452 | etot = -18.4515846834783
74000  ekin = 2.03973663696274 |  erot = 2.44352827046787 | epot = -23.3706565736274 | etot = -18.8873916661968
75000  ekin = 2.13029836638111 |  erot = 2.25069247013825 | epot = -23.3468514357058 | etot = -18.9658605991864
76000  ekin = 1.86911909276267 |  erot = 1.88174803064112 | epot = -23.3433063511182 | etot = -19.5924392277144
77000  ekin = 2.8311971230152 |  erot = 1.4764600924275 | epot = -23.3736217515866 | etot = -19.0659645361439
78000  ekin = 3.02331647633308 |  erot = 3.49408579644919 | epot = -23.4257428368656 | etot = -16.9083405640833
79000  ekin = 3.51133596793171 |  erot = 2.66043649565033 | epot = -23.4320673594166 | etot = -17.2602948958345
80000  ekin = 2.88371521187479 |  erot = 1.92272084366328 | epot = -23.4437991576283 | etot = -18.6373631020903
81000  ekin = 2.93345241699417 |  erot = 2.30354045717278 | epot = -23.4023767063862 | etot = -18.1653838322193
82000  ekin = 2.31364693930239 |  erot = 1.52107123456185 | epot = -23.332732976686 | etot = -19.4980148028218
83000  ekin = 2.79964810868887 |  erot = 3.01031848157711 | epot = -23.1805490994262 | etot = -17.3705825091602
84000  ekin = 3.14238697097954 |  erot = 2.54443984047462 | epot = -23.0036486008467 | etot = -17.3168217893925
85000  ekin = 3.11037170652329 |  erot = 2.81688612333738 | epot = -22.9040286513178 | etot = -16.9767708214572
86000  ekin = 3.24614571607055 |  erot = 2.4691668527709 | epot = -22.9115348786951 | etot = -17.1962223098536
87000  ekin = 3.15148333101924 |  erot = 2.81476071986705 | epot = -22.88497016051 | etot = -16.9187261096237
88000  ekin = 2.79204781171839 |  erot = 2.11551211421263 | epot = -22.9365333909989 | etot = -18.0289734650679
89000  ekin = 2.35289392365394 |  erot = 3.20722667156868 | epot = -22.838834182654 | etot = -17.2787135874314
90000  ekin = 2.37582791595297 |  erot = 2.35376824711544 | epot = -22.7759716111928 | etot = -18.0463754481244
91000  ekin = 2.11229902300038 |  erot = 2.49991596560396 | epot = -22.7428668079145 | etot = -18.1306518193102
92000  ekin = 2.18222080456226 |  erot = 2.12578389554434 | epot = -22.6742877211503 | etot = -18.3662830210437
93000  ekin = 2.21095150681925 |  erot = 3.26438303982222 | epot = -22.5594438754277 | etot = -17.0841093287862
94000  ekin = 2.12232737083461 |  erot = 3.41982221867449 | epot = -22.5731643271249 | etot = -17.0310147376158
95000  ekin = 1.85629034286763 |  erot = 1.96410759501716 | epot = -22.59538207669 | etot = -18.7749841388052
96000  ekin = 2.39869119547858 |  erot = 2.71927150056489 | epot = -22.6306283736797 | etot = -17.5126656776363
97000  ekin = 2.66273024813647 |  erot = 1.89080412966723 | epot = -22.6359449758314 | etot = -18.0824105980277
98000  ekin = 2.85072927082227 |  erot = 1.60816717415087 | epot = -22.7177273012906 | etot = -18.2588308563174
99000  ekin = 2.83238909889775 |  erot = 2.47205959733049 | epot = -22.8003244534363 | etot = -17.495875757208
100000  ekin = 2.41865993058067 |  erot = 2.0598579213647 | epot = -22.9852243238147 | etot = -18.5067064718694
101000  ekin = 2.54841697870327 |  erot = 2.36461883832458 | epot = -23.0633841926615 | etot = -18.1503483756336
102000  ekin = 2.54594946615645 |  erot = 2.86139475908785 | epot = -23.1098219772669 | etot = -17.7024777520226
103000  ekin = 2.13582591081888 |  erot = 2.12361330514722 | epot = -23.1354410963672 | etot = -18.8760018804011
104000  ekin = 2.21385815248422 |  erot = 2.29274274660023 | epot = -23.0865139718305 | etot = -18.5799130727461
105000  ekin = 2.44889646860174 |  erot = 2.75107727112909 | epot = -23.0544140778533 | etot = -17.8544403381225
106000  ekin = 1.95956756411726 |  erot = 2.3209345631325 | epot = -23.0430612833128 | etot = -18.7625591560631
107000  ekin = 2.27802020438547 |  erot = 2.08909400930221 | epot = -23.0686930034876 | etot = -18.7015787897999
108000  ekin = 1.90572708538444 |  erot = 3.13702334473575 | epot = -23.0271860838353 | etot = -17.9844356537151
109000  ekin = 2.39380259291066 |  erot = 2.22054516746467 | epot = -23.0249223512454 | etot = -18.41057459087
110000  ekin = 2.26587242950359 |  erot = 2.25607481649737 | epot = -23.039981892631 | etot = -18.51803464663
111000  ekin = 2.15727458703525 |  erot = 1.98358283370136 | epot = -23.0767942184013 | etot = -18.9359367976647
112000  ekin = 2.3828169618658 |  erot = 2.69686827828485 | epot = -23.1107895116834 | etot = -18.0311042715327
113000  ekin = 2.8101781075741 |  erot = 2.59950194588724 | epot = -23.0287341179313 | etot = -17.6190540644699
114000  ekin = 2.35455919019172 |  erot = 3.20470938308889 | epot = -22.9694690534849 | etot = -17.4102004802043
115000  ekin = 2.4406692440432 |  erot = 1.89109901084122 | epot = -22.9284259454167 | etot = -18.5966576905323
116000  ekin = 2.31064767487137 |  erot = 2.83979549060621 | epot = -22.9485617435445 | etot = -17.7981185780669
117000  ekin = 2.08937942523073 |  erot = 2.22599804456159 | epot = -22.8649871463364 | etot = -18.5496096765441
118000  ekin = 2.13839981510475 |  erot = 2.6042059558218 | epot = -22.7656872587424 | etot = -18.0230814878159
119000  ekin = 2.82390266451549 |  erot = 2.20939391190357 | epot = -22.7729728906623 | etot = -17.7396763142432
120000  ekin = 2.01401322106231 |  erot = 2.48866024138323 | epot = -22.6353588152779 | etot = -18.1326853528324
121000  ekin = 2.38145077479306 |  erot = 3.12007697133009 | epot = -22.5496980171072 | etot = -17.048170270984
122000  ekin = 3.27512287434745 |  erot = 3.22243197902324 | epot = -22.5766115874577 | etot = -16.079056734087
123000  ekin = 2.81132514620283 |  erot = 2.86307874434964 | epot = -22.6263844574797 | etot = -16.9519805669272
124000  ekin = 2.19849534367232 |  erot = 2.58327740029555 | epot = -22.632926922485 | etot = -17.8511541785171
125000  ekin = 1.9938456811927 |  erot = 1.90953618390393 | epot = -22.6331404835376 | etot = -18.7297586184409
126000  ekin = 2.42731825528385 |  erot = 2.87237001426948 | epot = -22.6106846507781 | etot = -17.3109963812248
127000  ekin = 1.95505736761304 |  erot = 2.81720121527978 | epot = -22.5579301674971 | etot = -17.7856715846043
128000  ekin = 2.10594260964226 |  erot = 2.01356984269814 | epot = -22.4981321684107 | etot = -18.3786197160703
129000  ekin = 2.55520588445759 |  erot = 2.57894735511156 | epot = -22.559207781978 | etot = -17.4250545424089
130000  ekin = 2.86259834978311 |  erot = 2.18965938451607 | epot = -22.5770466332128 | etot = -17.5247888989136
131000  ekin = 2.86321076870393 |  erot = 1.66847645340269 | epot = -22.529949359668 | etot = -17.9982621375613
132000  ekin = 2.93426604771556 |  erot = 3.00425629789163 | epot = -22.5601802720307 | etot = -16.6216579264235
133000  ekin = 3.65754901201543 |  erot = 1.43666262449492 | epot = -22.6237662747263 | etot = -17.529554638216
134000  ekin = 2.18898923715712 |  erot = 2.33049897457535 | epot = -22.7470394091699 | etot = -18.2275511974375
135000  ekin = 2.03823330514395 |  erot = 2.69291476269712 | epot = -22.8900275663634 | etot = -18.1588794985223
136000  ekin = 2.6538713732039 |  erot = 2.40958876583255 | epot = -22.9857440078583 | etot = -17.9222838688218
137000  ekin = 3.12283566057286 |  erot = 3.49983145404452 | epot = -23.0096984445474 | etot = -16.3870313299301
138000  ekin = 2.45014875520084 |  erot = 2.4508647359669 | epot = -23.0794084265037 | etot = -18.178394935336
139000  ekin = 2.03608492985731 |  erot = 1.97462403722722 | epot = -23.178945590097 | etot = -19.1682366230125
140000  ekin = 2.8375811142686 |  erot = 2.49376841321459 | epot = -23.298440206365 | etot = -17.9670906788818
141000  ekin = 2.83405987670134 |  erot = 2.48065309139941 | epot = -23.4226619452758 | etot = -18.107948977175
142000  ekin = 3.19333498685692 |  erot = 3.17336002986012 | epot = -23.3250285546098 | etot = -16.9583335378927
143000  ekin = 2.2053085459229 |  erot = 2.51795869911564 | epot = -23.4007031674318 | etot = -18.6774359223932
144000  ekin = 3.13477789699627 |  erot = 2.69612114268137 | epot = -23.3846120043903 | etot = -17.5537129647126
145000  ekin = 3.05703751181504 |  erot = 2.77857540632303 | epot = -23.3935227778029 | etot = -17.5579098596648
146000  ekin = 3.56567491078422 |  erot = 1.97456126200808 | epot = -23.3912044699534 | etot = -17.8509682971611
147000  ekin = 2.62692101320613 |  erot = 2.7990853604292 | epot = -23.4731299563114 | etot = -18.0471235826761
148000  ekin = 2.45471110479969 |  erot = 1.97948594654501 | epot = -23.5390482551317 | etot = -19.104851203787
149000  ekin = 2.91425191756495 |  erot = 2.34219263228086 | epot = -23.5494392195753 | etot = -18.2929946697295
150000  ekin = 2.11267470955651 |  erot = 3.15139951917672 | epot = -23.456213233303 | etot = -18.1921390045698
151000  ekin = 1.89283581343662 |  erot = 2.39812863380885 | epot = -23.3591999925057 | etot = -19.0682355452602
152000  ekin = 2.40790737144431 |  erot = 2.01427800135936 | epot = -23.2626112351643 | etot = -18.8404258623606
153000  ekin = 2.05155784053096 |  erot = 2.23618306870396 | epot = -23.2634856578898 | etot = -18.9757447486549
154000  ekin = 2.51778354567736 |  erot = 3.20314773898096 | epot = -23.2975528150325 | etot = -17.5766215303742
155000  ekin = 2.00284429469695 |  erot = 2.89937315438495 | epot = -23.3218945133551 | etot = -18.4196770642732
156000  ekin = 1.91144554872485 |  erot = 2.99821559619451 | epot = -23.2209466091476 | etot = -18.3112854642282
157000  ekin = 2.43182251041877 |  erot = 1.62406041783895 | epot = -23.1045847485264 | etot = -19.0487018202686
158000  ekin = 2.09298289420886 |  erot = 2.6766289229666 | epot = -23.031927214759 | etot = -18.2623153975835
159000  ekin = 2.20764198734381 |  erot = 2.83616967442204 | epot = -22.9227666897823 | etot = -17.8789550280164
160000  ekin = 2.21243983900826 |  erot = 2.20003736549807 | epot = -22.9543660393476 | etot = -18.5418888348412
161000  ekin = 2.45073410895006 |  erot = 2.43388496890226 | epot = -22.9636574775946 | etot = -18.0790383997422
162000  ekin = 2.17367299341061 |  erot = 2.69488535843695 | epot = -23.0527030224094 | etot = -18.1841446705618
163000  ekin = 1.6416624121019 |  erot = 2.84097373738807 | epot = -23.1292124278341 | etot = -18.6465762783441
164000  ekin = 1.67565049116239 |  erot = 2.68380704848371 | epot = -23.1590424140942 | etot = -18.7995848744481
165000  ekin = 2.42206226766745 |  erot = 2.72988204300635 | epot = -23.1799778993767 | etot = -18.0280335887029
166000  ekin = 3.14880802219226 |  erot = 2.84384837642053 | epot = -23.2429974571314 | etot = -17.2503410585186
167000  ekin = 2.25647190185324 |  erot = 2.22025584454645 | epot = -23.3152815140534 | etot = -18.8385537676537
168000  ekin = 2.05307577726746 |  erot = 1.92982813234681 | epot = -23.3121709078534 | etot = -19.3292669982392
169000  ekin = 2.25333032487684 |  erot = 2.03837973951729 | epot = -23.3314587534472 | etot = -19.0397486890531
170000  ekin = 3.24025514660291 |  erot = 2.68054613971874 | epot = -23.2656213247604 | etot = -17.3448200384388
171000  ekin = 3.26091283919611 |  erot = 2.31337270355485 | epot = -23.30671463487 | etot = -17.732429092119
172000  ekin = 3.71728985541098 |  erot = 2.37762994657772 | epot = -23.3035184476851 | etot = -17.2085986456964
173000  ekin = 3.15518229037533 |  erot = 2.74844421936228 | epot = -23.2758116201384 | etot = -17.3721851104007
174000  ekin = 2.99648976213193 |  erot = 1.71811302453253 | epot = -23.1981882260451 | etot = -18.4835854393806
175000  ekin = 2.57240965973333 |  erot = 2.55046855203897 | epot = -23.1014541624941 | etot = -17.9785759507218
176000  ekin = 1.93852156602125 |  erot = 2.47332967602318 | epot = -23.1368569455589 | etot = -18.7250057035145
177000  ekin = 2.80960374115401 |  erot = 1.95409121605924 | epot = -23.0982934782514 | etot = -18.3345985210382
178000  ekin = 2.33244636491393 |  erot = 2.27408462832222 | epot = -23.0825224910612 | etot = -18.4759914978251
179000  ekin = 2.13982176908862 |  erot = 2.89346836042849 | epot = -23.0763356798213 | etot = -18.0430455503042
180000  ekin = 2.207400927993 |  erot = 1.5562703232207 | epot = -23.0740416866628 | etot = -19.3103704354491
181000  ekin = 2.12924843078766 |  erot = 3.48717124411563 | epot = -22.9481791847174 | etot = -17.3317595098141
182000  ekin = 1.86429514249569 |  erot = 2.12691540074977 | epot = -22.8573607952401 | etot = -18.8661502519946
183000  ekin = 2.49432213049246 |  erot = 1.94397526976538 | epot = -22.8739996678934 | etot = -18.4357022676356
184000  ekin = 2.32559536618148 |  erot = 2.16188851089671 | epot = -22.8801350202001 | etot = -18.3926511431219
185000  ekin = 3.43221902743033 |  erot = 2.76663819243887 | epot = -22.7961878859294 | etot = -16.5973306660602
186000  ekin = 3.27655677826301 |  erot = 2.10542412812558 | epot = -22.5860615279726 | etot = -17.204080621584
187000  ekin = 3.21808565073807 |  erot = 3.12646745373177 | epot = -22.4680437052799 | etot = -16.1234906008101
188000  ekin = 3.29470028080779 |  erot = 2.71885909254934 | epot = -22.4777213671005 | etot = -16.4641619937434
189000  ekin = 2.29225438861808 |  erot = 2.15238017837044 | epot = -22.4423181907693 | etot = -17.9976836237808
190000  ekin = 2.31172879251782 |  erot = 1.69869193216314 | epot = -22.4421736779848 | etot = -18.4317529533038
191000  ekin = 2.44737449537105 |  erot = 1.95471142288415 | epot = -22.4940636736618 | etot = -18.0919777554066
192000  ekin = 2.65685760576573 |  erot = 2.49493427834054 | epot = -22.551770059613 | etot = -17.3999781755067
193000  ekin = 2.01491600271975 |  erot = 2.53697801257504 | epot = -22.611413796154 | etot = -18.0595197808592
194000  ekin = 2.13098665262876 |  erot = 2.65162788921838 | epot = -22.6516249427401 | etot = -17.869010400893
195000  ekin = 2.15880156426523 |  erot = 2.30285156951273 | epot = -22.6801152411448 | etot = -18.2184621073669
196000  ekin = 2.26045454251242 |  erot = 1.7400410306741 | epot = -22.6243696974319 | etot = -18.6238741242454
197000  ekin = 2.08353851799175 |  erot = 2.84019387252897 | epot = -22.5254653541291 | etot = -17.6017329636084
198000  ekin = 2.40254425598167 |  erot = 1.59510544084176 | epot = -22.4875571568747 | etot = -18.4899074600513
199000  ekin = 2.32315315727966 |  erot = 1.64758309421108 | epot = -22.3940543169462 | etot = -18.4233180654554
200000  ekin = 1.9344201599962 |  erot = 2.09946369983286 | epot = -22.3163824882501 | etot = -18.282498628421
201000  ekin = 2.25758946372665 |  erot = 1.57318447391795 | epot = -22.2162199013465 | etot = -18.3854459637019
202000  ekin = 2.14286142871167 |  erot = 1.84411011823104 | epot = -22.0782645916587 | etot = -18.0912930447159
203000  ekin = 1.82640790776851 |  erot = 3.05975799451598 | epot = -21.9788881819889 | etot = -17.0927222797045
204000  ekin = 1.62851140603835 |  erot = 1.97764157787611 | epot = -21.9332382928783 | etot = -18.3270853089638
205000  ekin = 1.25482843048893 |  erot = 2.20166998646264 | epot = -21.8845360273862 | etot = -18.4280376104346
206000  ekin = 1.73414183779997 |  erot = 1.82150010232861 | epot = -21.8773801883845 | etot = -18.321738248256
207000  ekin = 1.94750322930568 |  erot = 2.48531516705681 | epot = -21.9295431113514 | etot = -17.496724714989
208000  ekin = 2.09568882924412 |  erot = 3.03912830731326 | epot = -22.0166563659434 | etot = -16.881839229386
209000  ekin = 2.64700139449842 |  erot = 2.33696819850967 | epot = -22.1001648259952 | etot = -17.1161952329871
210000  ekin = 2.84808049130809 |  erot = 3.0333180373391 | epot = -22.1925404483828 | etot = -16.3111419197356
211000  ekin = 1.9735208459781 |  erot = 2.67635943704183 | epot = -22.2979529780579 | etot = -17.648072695038
212000  ekin = 1.60231135436244 |  erot = 2.66527693950093 | epot = -22.3334257809678 | etot = -18.0658374871044
213000  ekin = 1.33634411107147 |  erot = 2.64593792571916 | epot = -22.4180515625624 | etot = -18.4357695257718
214000  ekin = 2.2947085637024 |  erot = 1.7654025455793 | epot = -22.5146947473979 | etot = -18.4545836381162
215000  ekin = 2.54235331845419 |  erot = 2.59070032226104 | epot = -22.5977548514775 | etot = -17.4647012107623
216000  ekin = 2.50726683350059 |  erot = 2.07957683306215 | epot = -22.6514435658203 | etot = -18.0645998992575
217000  ekin = 2.56666688563484 |  erot = 2.10721620203285 | epot = -22.7585726045596 | etot = -18.0846895168919
218000  ekin = 2.3809214758614 |  erot = 2.40889946821003 | epot = -22.7858427946485 | etot = -17.996021850577
219000  ekin = 2.62297703802767 |  erot = 1.72015460606372 | epot = -22.8179577818034 | etot = -18.474826137712
220000  ekin = 2.04452501529803 |  erot = 2.48366646228854 | epot = -22.8152593234185 | etot = -18.2870678458319
221000  ekin = 2.016790382988 |  erot = 1.92179513943576 | epot = -22.7675242743918 | etot = -18.8289387519681
222000  ekin = 2.48246285927141 |  erot = 2.69662232500728 | epot = -22.6922041676861 | etot = -17.5131189834074
223000  ekin = 2.07315316544961 |  erot = 2.59399918829032 | epot = -22.6977764075015 | etot = -18.0306240537616
224000  ekin = 2.13964582929342 |  erot = 2.15545737968983 | epot = -22.6791813082171 | etot = -18.3840780992338
225000  ekin = 2.4443131371706 |  erot = 3.02968637363015 | epot = -22.6416871024202 | etot = -17.1676875916194
226000  ekin = 2.14901519929161 |  erot = 2.34793235846519 | epot = -22.69101275787 | etot = -18.1940652001132
227000  ekin = 2.85261296673757 |  erot = 2.16469654263134 | epot = -22.6647959494624 | etot = -17.6474864400935
228000  ekin = 2.0542557730781 |  erot = 2.41859943175188 | epot = -22.648254263469 | etot = -18.175399058639
229000  ekin = 1.71712866311074 |  erot = 2.00134448676601 | epot = -22.656184548909 | etot = -18.9377113990323
230000  ekin = 2.93835687549904 |  erot = 2.52588891439014 | epot = -22.686473096368 | etot = -17.2222273064788
231000  ekin = 3.65320646645271 |  erot = 2.50996334898014 | epot = -22.6663620829857 | etot = -16.5031922675529
232000  ekin = 2.74858319742744 |  erot = 2.15737431011052 | epot = -22.7650781743548 | etot = -17.8591206668168
233000  ekin = 2.20526469100055 |  erot = 1.96946858309177 | epot = -22.808033211882 | etot = -18.6332999377897
234000  ekin = 3.0329543267647 |  erot = 1.91197211768344 | epot = -22.7639916522477 | etot = -17.8190652077996
235000  ekin = 2.67265278717495 |  erot = 2.49323486871604 | epot = -22.8047732486684 | etot = -17.6388855927774
236000  ekin = 2.45357393436119 |  erot = 2.51245746374309 | epot = -22.7782827985553 | etot = -17.812251400451
237000  ekin = 2.58384683986252 |  erot = 2.47764708446689 | epot = -22.8498966602044 | etot = -17.788402735875
238000  ekin = 2.48850542531642 |  erot = 2.95888408934022 | epot = -22.8461058630726 | etot = -17.3987163484159
239000  ekin = 2.5081973607743 |  erot = 2.88284977556179 | epot = -22.8253656494842 | etot = -17.4343185131481
240000  ekin = 2.80266521029648 |  erot = 2.42429156361948 | epot = -22.7822778944155 | etot = -17.5553211204995
241000  ekin = 2.22400241744572 |  erot = 2.47541442439962 | epot = -22.708502965295 | etot = -18.0090861234496
242000  ekin = 2.1369278840666 |  erot = 3.31767605383442 | epot = -22.6765710785147 | etot = -17.2219671406136
243000  ekin = 2.31455276379189 |  erot = 1.97486717843967 | epot = -22.6835713954336 | etot = -18.3941514532021
244000  ekin = 2.08913537180933 |  erot = 2.74057497391117 | epot = -22.6588502228669 | etot = -17.8291398771464
245000  ekin = 2.13326066848594 |  erot = 2.26727722045252 | epot = -22.5891755212551 | etot = -18.1886376323167
246000  ekin = 1.98597399772947 |  erot = 2.24414289909305 | epot = -22.581751166757 | etot = -18.3516342699345
247000  ekin = 1.7029908245814 |  erot = 2.65850843105303 | epot = -22.5730238533539 | etot = -18.2115245977195
248000  ekin = 2.17045477909461 |  erot = 2.21012477326125 | epot = -22.6387048466336 | etot = -18.2581252942777
249000  ekin = 2.19972531736336 |  erot = 2.93804177761671 | epot = -22.667836810757 | etot = -17.530069715777
250000  ekin = 2.30859844416928 |  erot = 2.87484738519315 | epot = -22.7208193440242 | etot = -17.5373735146618
251000  ekin = 3.15133859857999 |  erot = 2.3610033133862 | epot = -22.7532913869796 | etot = -17.2409494750134
252000  ekin = 2.10711705767907 |  erot = 2.93803244308709 | epot = -22.8141998177766 | etot = -17.7690503170104
253000  ekin = 1.81446587076888 |  erot = 3.64847052994272 | epot = -22.7589188116659 | etot = -17.2959824109543
254000  ekin = 2.38246471864852 |  erot = 2.74330406814437 | epot = -22.637470157389 | etot = -17.5117013705961
255000  ekin = 2.82281981879266 |  erot = 2.17751399966926 | epot = -22.6480625048929 | etot = -17.647728686431
256000  ekin = 2.91721347856852 |  erot = 2.29499077181347 | epot = -22.7096621530392 | etot = -17.4974579026573
257000  ekin = 2.82748375072692 |  erot = 3.52099588673786 | epot = -22.6484013012936 | etot = -16.2999216638288
258000  ekin = 2.19992203178142 |  erot = 2.12042549810482 | epot = -22.6612060734149 | etot = -18.3408585435286
259000  ekin = 2.13920518349551 |  erot = 2.2459631658656 | epot = -22.6156265174457 | etot = -18.2304581680846
260000  ekin = 2.4332113427451 |  erot = 2.77503683051912 | epot = -22.6321520875833 | etot = -17.4239039143191
261000  ekin = 2.05779939929259 |  erot = 2.13973837948785 | epot = -22.6823931019282 | etot = -18.4848553231477
262000  ekin = 2.79110837358257 |  erot = 2.25626689025766 | epot = -22.7214681566511 | etot = -17.6740928928109
263000  ekin = 2.78883106934821 |  erot = 1.69356075172848 | epot = -22.7142967476141 | etot = -18.2319049265375
264000  ekin = 2.20259381207698 |  erot = 1.55086518385097 | epot = -22.6762941554802 | etot = -18.9228351595523
265000  ekin = 2.0317762551793 |  erot = 2.12583868325911 | epot = -22.712761701767 | etot = -18.5551467633286
266000  ekin = 2.50197151162485 |  erot = 2.91236336851854 | epot = -22.8558243132671 | etot = -17.4414894331237
267000  ekin = 2.26171294775303 |  erot = 1.4691550288396 | epot = -22.8708165336687 | etot = -19.1399485570761
268000  ekin = 2.44836854545511 |  erot = 2.9937425626706 | epot = -22.7570882008955 | etot = -17.3149770927698
269000  ekin = 1.58300780634396 |  erot = 3.22395730855789 | epot = -22.3907113081099 | etot = -17.5837461932081
270000  ekin = 2.32322184760979 |  erot = 3.06382421219438 | epot = -22.3881691749602 | etot = -17.001123115156
271000  ekin = 3.60469687596824 |  erot = 1.9797358598963 | epot = -22.4683966465291 | etot = -16.8839639106645
272000  ekin = 3.51923106402285 |  erot = 2.03023285354504 | epot = -22.4603583954676 | etot = -16.9108944778997
273000  ekin = 2.11482184852541 |  erot = 2.44627955820304 | epot = -22.3849709951286 | etot = -17.8238695884002
274000  ekin = 1.92099330523926 |  erot = 1.84100701949309 | epot = -22.4079231056523 | etot = -18.64592278092
275000  ekin = 2.00926480279114 |  erot = 2.3425841103212 | epot = -22.5238525372828 | etot = -18.1720036241704
276000  ekin = 2.63097538006804 |  erot = 2.50136285103272 | epot = -22.5353755283889 | etot = -17.4030372972882
277000  ekin = 1.82015412793384 |  erot = 1.70696131852909 | epot = -22.5292430541423 | etot = -19.0021276076793
278000  ekin = 2.01769954373528 |  erot = 2.59890230516084 | epot = -22.5906588225137 | etot = -17.9740569736176
279000  ekin = 2.25640040624717 |  erot = 2.29091139708182 | epot = -22.6277099788414 | etot = -18.0803981755124
280000  ekin = 3.04018837983384 |  erot = 2.20649234309561 | epot = -22.6234289166475 | etot = -17.376748193718
281000  ekin = 2.26774972276864 |  erot = 2.21425432655914 | epot = -22.6813285841657 | etot = -18.1993245348379
282000  ekin = 2.97313150959962 |  erot = 2.86622182739124 | epot = -22.7015431862321 | etot = -16.8621898492412
283000  ekin = 2.50361895288103 |  erot = 3.01017153845275 | epot = -22.6838734010489 | etot = -17.1700829097151
284000  ekin = 2.07988501520726 |  erot = 2.53369538735043 | epot = -22.6244057852699 | etot = -18.0108253827122
285000  ekin = 2.63544742669395 |  erot = 2.22184957642688 | epot = -22.6299704571646 | etot = -17.7726734540438
286000  ekin = 3.28190504383103 |  erot = 2.59924342945106 | epot = -22.6685734662042 | etot = -16.7874249929221
287000  ekin = 2.5201730496864 |  erot = 2.47409649915194 | epot = -22.6647398556855 | etot = -17.6704703068471
288000  ekin = 1.72383940997515 |  erot = 2.2989067867213 | epot = -22.5898062623046 | etot = -18.5670600656082
289000  ekin = 1.84179788109765 |  erot = 2.70369316308707 | epot = -22.47181336009 | etot = -17.9263223159052
290000  ekin = 1.6715135413566 |  erot = 2.58080004878555 | epot = -22.4106998409513 | etot = -18.1583862508092
291000  ekin = 1.5215220538295 |  erot = 2.73428237886897 | epot = -22.3556298896499 | etot = -18.0998254569515
292000  ekin = 1.80629028335816 |  erot = 2.0852735260545 | epot = -22.4535418049614 | etot = -18.5619779955488
293000  ekin = 2.15472126777205 |  erot = 2.19759927977713 | epot = -22.5557303698456 | etot = -18.2034098222964
294000  ekin = 2.56152704015233 |  erot = 2.8613616067162 | epot = -22.6398911758506 | etot = -17.2170025289821
295000  ekin = 2.371265169146 |  erot = 3.38251794814698 | epot = -22.6865354227056 | etot = -16.9327523054126
296000  ekin = 2.03365878847188 |  erot = 2.18393142873388 | epot = -22.6560933682687 | etot = -18.438503151063
297000  ekin = 2.49621501086621 |  erot = 2.10112805919269 | epot = -22.7035635415212 | etot = -18.1062204714623
298000  ekin = 2.77842269503177 |  erot = 3.3772341506228 | epot = -22.7119153133845 | etot = -16.5562584677299
299000  ekin = 2.67707880841785 |  erot = 2.98874558313004 | epot = -22.7666464233606 | etot = -17.1008220318128
300000  ekin = 2.27178796654212 |  erot = 2.26073784829731 | epot = -22.7766831409595 | etot = -18.2441573261201
301000  ekin = 2.20083021797287 |  erot = 3.3890245069517 | epot = -22.7273506022536 | etot = -17.137495877329
302000  ekin = 2.96489064574833 |  erot = 2.84356412203241 | epot = -22.6697893088022 | etot = -16.8613345410215
303000  ekin = 2.31874098268026 |  erot = 2.61961335705569 | epot = -22.6493939125616 | etot = -17.7110395728257
304000  ekin = 2.72610257159623 |  erot = 3.02709946331765 | epot = -22.6952460519591 | etot = -16.9420440170453
305000  ekin = 2.63459003021214 |  erot = 1.919675076019 | epot = -22.6686095819004 | etot = -18.1143444756693
306000  ekin = 2.27957015123362 |  erot = 2.30903194024744 | epot = -22.6205242146107 | etot = -18.0319221231296
307000  ekin = 2.59039939360351 |  erot = 1.72550416449957 | epot = -22.5760437098146 | etot = -18.2601401517115
308000  ekin = 2.25862282018141 |  erot = 2.6613420500591 | epot = -22.4810009931421 | etot = -17.5610361229016
309000  ekin = 2.58156867056613 |  erot = 1.38162183672195 | epot = -22.4520281277666 | etot = -18.4888376204785
310000  ekin = 2.30199887399085 |  erot = 3.49424058278129 | epot = -22.4502933105603 | etot = -16.6540538537882
311000  ekin = 1.92151496683435 |  erot = 3.702621790492 | epot = -22.3972021294092 | etot = -16.7730653720828
312000  ekin = 1.83005087613798 |  erot = 2.19341081660898 | epot = -22.3720470055312 | etot = -18.3485853127842
313000  ekin = 1.92489041812718 |  erot = 1.83277045127814 | epot = -22.490802859931 | etot = -18.7331419905256
314000  ekin = 2.09288582482849 |  erot = 3.1959722998652 | epot = -22.4338118394254 | etot = -17.1449537147317
315000  ekin = 2.16369102652801 |  erot = 2.93597548628521 | epot = -22.4469736533496 | etot = -17.3473071405364
316000  ekin = 2.09245693384264 |  erot = 1.807558537396 | epot = -22.3690695710527 | etot = -18.4690540998141
317000  ekin = 2.36588943769063 |  erot = 1.70568184689724 | epot = -22.3496046632177 | etot = -18.2780333786298
318000  ekin = 1.83301083634324 |  erot = 3.09521659572646 | epot = -22.3586080730087 | etot = -17.430380640939
319000  ekin = 1.55798533508654 |  erot = 2.374400525685 | epot = -22.3769508910799 | etot = -18.4445650303083
320000  ekin = 2.96087389710191 |  erot = 2.89099773614827 | epot = -22.4288122697123 | etot = -16.5769406364621
321000  ekin = 3.19179841293413 |  erot = 2.37305905207938 | epot = -22.5447709145936 | etot = -16.9799134495801
322000  ekin = 3.10570427346294 |  erot = 3.34188038301289 | epot = -22.580443523357 | etot = -16.1328588668812
323000  ekin = 2.22962685798083 |  erot = 2.03306866549118 | epot = -22.5997373536669 | etot = -18.3370418301949
324000  ekin = 2.28811378374166 |  erot = 2.14190372685336 | epot = -22.5597352990857 | etot = -18.1297177884906
325000  ekin = 2.85757123939544 |  erot = 2.33537312761609 | epot = -22.5231085637202 | etot = -17.3301641967086
326000  ekin = 2.30070347083078 |  erot = 2.23549787294263 | epot = -22.5151413151487 | etot = -17.9789399713752
327000  ekin = 3.29082503272818 |  erot = 1.92556360043753 | epot = -22.5231816508473 | etot = -17.3067930176816
328000  ekin = 2.38165298551354 |  erot = 1.63346978078624 | epot = -22.5231376952434 | etot = -18.5080149289436
329000  ekin = 3.46430064220694 |  erot = 2.33095343034691 | epot = -22.4569686289904 | etot = -16.6617145564365
330000  ekin = 3.03486739022287 |  erot = 2.39278089551369 | epot = -22.3332523924126 | etot = -16.905604106676
331000  ekin = 2.30557375971102 |  erot = 2.07089271354998 | epot = -22.2503996798711 | etot = -17.8739332066101
332000  ekin = 1.60842407147764 |  erot = 3.110396890796 | epot = -22.2247256358723 | etot = -17.5059046735987
333000  ekin = 1.87112469334644 |  erot = 3.30899727462101 | epot = -22.130065759788 | etot = -16.9499437918205
334000  ekin = 2.39344914466899 |  erot = 2.11606499087986 | epot = -22.052515122119 | etot = -17.5430009865702
335000  ekin = 2.58946334556546 |  erot = 2.68851920162594 | epot = -21.971164793944 | etot = -16.6931822467526
336000  ekin = 2.41988877667505 |  erot = 2.41525912575628 | epot = -21.8441556082519 | etot = -17.0090077058205
337000  ekin = 2.33064340197969 |  erot = 2.60509084649572 | epot = -21.8962678452425 | etot = -16.9605335967671
338000  ekin = 1.96206714975463 |  erot = 1.65377379268676 | epot = -21.8484931449949 | etot = -18.2326522025535
339000  ekin = 1.55631939970369 |  erot = 2.24373622444027 | epot = -21.8253755182891 | etot = -18.0253198941451
340000  ekin = 2.70749090548453 |  erot = 2.95739933680002 | epot = -21.8243135462175 | etot = -16.1594233039329
341000  ekin = 2.44634541815133 |  erot = 1.84695948440237 | epot = -21.9282158516816 | etot = -17.6349109491279
342000  ekin = 2.51784295345496 |  erot = 2.73626675676614 | epot = -21.9579426326808 | etot = -16.7038329224596
343000  ekin = 3.41670961674692 |  erot = 2.43111012770705 | epot = -21.9935092107186 | etot = -16.1456894662647
344000  ekin = 2.58780800263767 |  erot = 1.6930389050268 | epot = -22.0715354699269 | etot = -17.7906885622624
345000  ekin = 2.57576456033189 |  erot = 1.99487459437559 | epot = -22.1796629942929 | etot = -17.6090238395854
346000  ekin = 2.40404980880465 |  erot = 2.31288728866961 | epot = -22.1855258065435 | etot = -17.4685887090693
347000  ekin = 2.28146784424865 |  erot = 2.74513531512625 | epot = -22.2205619484594 | etot = -17.1939587890845
348000  ekin = 2.26319568262242 |  erot = 2.43454354691427 | epot = -22.2148038230762 | etot = -17.5170645935395
349000  ekin = 1.98764147715107 |  erot = 2.21856918820044 | epot = -22.2333110495202 | etot = -18.0271003841687
350000  ekin = 2.08440088155067 |  erot = 2.55841250738978 | epot = -22.2541078972618 | etot = -17.6112945083214
351000  ekin = 2.38201758452314 |  erot = 2.17974220056875 | epot = -22.2647718284383 | etot = -17.7030120433464
352000  ekin = 2.75130853950625 |  erot = 2.25801401818502 | epot = -22.2226031541769 | etot = -17.2132805964856
353000  ekin = 2.39316894458245 |  erot = 1.9622692189896 | epot = -22.1905585968626 | etot = -17.8351204332906
354000  ekin = 2.60613964367264 |  erot = 2.45699958173639 | epot = -22.0741463551659 | etot = -17.0110071297569
355000  ekin = 1.80064206533144 |  erot = 2.59773518186197 | epot = -22.011221342413 | etot = -17.6128440952196
356000  ekin = 2.37699640398752 |  erot = 3.09710102021834 | epot = -22.0299491911754 | etot = -16.5558517669695
357000  ekin = 2.50986884955702 |  erot = 1.91180399130884 | epot = -22.0481853325197 | etot = -17.6265124916538
358000  ekin = 2.12558610604631 |  erot = 2.6479682554889 | epot = -21.9447638703624 | etot = -17.1712095088272
359000  ekin = 2.22688919900624 |  erot = 2.23931556284384 | epot = -21.8085491928632 | etot = -17.3423444310132
360000  ekin = 3.13527943466207 |  erot = 2.8147567946821 | epot = -21.7902147579702 | etot = -15.840178528626
361000  ekin = 2.71487331879396 |  erot = 2.8877144694031 | epot = -21.8322461119152 | etot = -16.2296583237181
362000  ekin = 2.515817675735 |  erot = 3.0246147355251 | epot = -21.8359960107676 | etot = -16.2955635995075
363000  ekin = 2.70354655291949 |  erot = 2.04948095390169 | epot = -21.8699556802982 | etot = -17.116928173477
364000  ekin = 2.34554467024059 |  erot = 1.36382458642029 | epot = -21.9151567775916 | etot = -18.2057875209307
365000  ekin = 2.00291957865484 |  erot = 2.38153585819252 | epot = -21.8681661882236 | etot = -17.4837107513762
366000  ekin = 2.16416218280056 |  erot = 2.11489166860241 | epot = -21.7862692661643 | etot = -17.5072154147613
367000  ekin = 2.90642004514044 |  erot = 2.66688606213217 | epot = -21.7352532339732 | etot = -16.1619471267006
368000  ekin = 2.23185601684558 |  erot = 2.34205881571908 | epot = -21.7124134746584 | etot = -17.1384986420937
369000  ekin = 2.15521118053823 |  erot = 2.93659164111176 | epot = -21.6437028615637 | etot = -16.5519000399137
370000  ekin = 2.4198441869984 |  erot = 1.73242712802795 | epot = -21.6676625868509 | etot = -17.5153912718245
371000  ekin = 2.30492028429812 |  erot = 2.61127763357756 | epot = -21.6509011744132 | etot = -16.7347032565375
372000  ekin = 2.96963579911545 |  erot = 1.88141866012236 | epot = -21.6391346229962 | etot = -16.7880801637584
373000  ekin = 3.14075275331208 |  erot = 2.93731686024779 | epot = -21.6868881994144 | etot = -15.6088185858545
374000  ekin = 3.04463795536237 |  erot = 3.14447085467475 | epot = -21.7931849017047 | etot = -15.6040760916676
375000  ekin = 2.39986353169888 |  erot = 2.66264703557189 | epot = -21.7551227714398 | etot = -16.692612204169
376000  ekin = 2.55064647974443 |  erot = 2.67473669587464 | epot = -21.696903880931 | etot = -16.4715207053119
377000  ekin = 2.8852049591096 |  erot = 2.18098614239663 | epot = -21.6952272659367 | etot = -16.6290361644304
378000  ekin = 2.45289138323383 |  erot = 2.10679058068883 | epot = -21.7288468051836 | etot = -17.1691648412609
379000  ekin = 2.53609345690701 |  erot = 1.90940679695127 | epot = -21.7506211345922 | etot = -17.3051208807339
380000  ekin = 2.72283735812631 |  erot = 3.24838500978278 | epot = -21.7463635962089 | etot = -15.7751412282998
381000  ekin = 2.45462865405655 |  erot = 2.38504307590766 | epot = -21.7562222022035 | etot = -16.9165504722393
382000  ekin = 1.80283057853964 |  erot = 2.1374935723038 | epot = -21.6701942835523 | etot = -17.7298701327088
383000  ekin = 1.73467369524417 |  erot = 2.3108192426649 | epot = -21.6923619844203 | etot = -17.6468690465113
384000  ekin = 1.9342846276238 |  erot = 2.70905668846398 | epot = -21.7127338523707 | etot = -17.0693925362829
385000  ekin = 1.68998612656995 |  erot = 1.64115683316309 | epot = -21.7718687316805 | etot = -18.4407257719475
386000  ekin = 1.78400139488241 |  erot = 1.74778393778735 | epot = -21.836680877067 | etot = -18.3048955443972
387000  ekin = 2.07818501197508 |  erot = 2.07807279268733 | epot = -21.832055454303 | etot = -17.6757976496406
388000  ekin = 1.66290950060047 |  erot = 2.60797351732765 | epot = -21.8118307069785 | etot = -17.5409476890504
389000  ekin = 2.21198900204585 |  erot = 2.23421390729077 | epot = -21.7427524360538 | etot = -17.2965495267171
390000  ekin = 1.66652818866883 |  erot = 2.31347723913494 | epot = -21.7301442799172 | etot = -17.7501388521135
391000  ekin = 1.8533948354001 |  erot = 3.3132884098265 | epot = -21.8115260458304 | etot = -16.6448428006038
392000  ekin = 1.58742216104324 |  erot = 2.82110846571971 | epot = -21.8293545192998 | etot = -17.4208238925368
393000  ekin = 2.11722620613808 |  erot = 2.34344765418119 | epot = -21.8696915886196 | etot = -17.4090177283003
394000  ekin = 1.75812741619619 |  erot = 2.82419425154452 | epot = -21.8924899919106 | etot = -17.3101683241699
395000  ekin = 1.65095705493153 |  erot = 2.81412301374871 | epot = -21.9536401970573 | etot = -17.488560128377
396000  ekin = 1.73767503056944 |  erot = 2.21765951200349 | epot = -22.1029546817349 | etot = -18.147620139162
397000  ekin = 1.77674477730128 |  erot = 2.32452598687485 | epot = -22.2130001775225 | etot = -18.1117294133464
398000  ekin = 2.65895177503898 |  erot = 2.95633927860974 | epot = -22.2752931466756 | etot = -16.6600020930269
399000  ekin = 2.03803363665377 |  erot = 2.12344232072307 | epot = -22.2652656821057 | etot = -18.1037897247289
400000  ekin = 2.04555714339347 |  erot = 2.27233839044242 | epot = -22.3051350135305 | etot = -17.9872394796946
401000  ekin = 2.15872349230843 |  erot = 2.50519181279082 | epot = -22.3726160012138 | etot = -17.7087006961145
402000  ekin = 2.37736861330784 |  erot = 2.3210196208099 | epot = -22.4002021740759 | etot = -17.7018139399582
403000  ekin = 2.46021709434135 |  erot = 1.94696118347469 | epot = -22.4595514414876 | etot = -18.0523731636716
404000  ekin = 2.77045691339541 |  erot = 2.38769700494278 | epot = -22.6029152684925 | etot = -17.4447613501544
405000  ekin = 2.3136465567458 |  erot = 2.23279102592819 | epot = -22.704170194226 | etot = -18.1577326115521
406000  ekin = 2.41170890033499 |  erot = 2.77109231953927 | epot = -22.779806571174 | etot = -17.5970053512998
407000  ekin = 2.35942219707683 |  erot = 2.74328193450569 | epot = -22.836396275899 | etot = -17.7336921443165
408000  ekin = 3.24790924688638 |  erot = 1.7391244014667 | epot = -22.7651095148446 | etot = -17.7780758664915
409000  ekin = 2.24830289645136 |  erot = 2.34265544739425 | epot = -22.6995454603056 | etot = -18.1085871164599
410000  ekin = 1.78296326417356 |  erot = 2.10343999475669 | epot = -22.7273761758661 | etot = -18.8409729169359
411000  ekin = 2.40205079722836 |  erot = 2.79371172655516 | epot = -22.7437086077248 | etot = -17.5479460839413
412000  ekin = 2.4827447274903 |  erot = 2.66642432537184 | epot = -22.7490438870461 | etot = -17.5998748341839
413000  ekin = 2.75975825991147 |  erot = 1.99252624136793 | epot = -22.7296409338909 | etot = -17.9773564326115
414000  ekin = 2.46171754591312 |  erot = 1.56532549126561 | epot = -22.7020089470024 | etot = -18.6749659098237
415000  ekin = 2.9412491128766 |  erot = 2.93447949050541 | epot = -22.7167297662641 | etot = -16.8410011628821
416000  ekin = 2.451529226545 |  erot = 2.93177240269518 | epot = -22.679285885952 | etot = -17.2959842567118
417000  ekin = 2.02304677035706 |  erot = 2.34845196496212 | epot = -22.6359674216736 | etot = -18.2644686863544
418000  ekin = 2.27202933065743 |  erot = 2.78253971259171 | epot = -22.5709417374616 | etot = -17.5163726942125
419000  ekin = 3.11399834748007 |  erot = 1.5069444804289 | epot = -22.5346711742036 | etot = -17.9137283462946
420000  ekin = 2.43157626989745 |  erot = 2.33553639635962 | epot = -22.5241645646513 | etot = -17.7570518983943
421000  ekin = 2.52273757815056 |  erot = 1.68036667639443 | epot = -22.523670591424 | etot = -18.320566336879
422000  ekin = 2.28707428015146 |  erot = 1.95211017937543 | epot = -22.4864987695302 | etot = -18.2473143100033
423000  ekin = 2.77128027363906 |  erot = 1.83509225830907 | epot = -22.4676364752475 | etot = -17.8612639432993
424000  ekin = 2.61658126968941 |  erot = 1.92044025854228 | epot = -22.5053529183204 | etot = -17.9683313900887
425000  ekin = 2.25690716213737 |  erot = 2.3485630523016 | epot = -22.5471810198293 | etot = -17.9417108053903
426000  ekin = 2.5401911697216 |  erot = 1.58168199076436 | epot = -22.599451551521 | etot = -18.4775783910351
427000  ekin = 2.61776589335417 |  erot = 2.3289376640184 | epot = -22.673196553825 | etot = -17.7264929964524
428000  ekin = 2.11718463198403 |  erot = 3.04652352541351 | epot = -22.7510529806942 | etot = -17.5873448232966
429000  ekin = 1.69509699892837 |  erot = 2.32755685540312 | epot = -22.7391772285581 | etot = -18.7165233742266
430000  ekin = 2.21470975507857 |  erot = 2.51273009568295 | epot = -22.6682263206376 | etot = -17.9407864698761
431000  ekin = 2.94401624259271 |  erot = 2.52065679136838 | epot = -22.6769821981683 | etot = -17.2123091642072
432000  ekin = 2.86039016721639 |  erot = 2.10092531726113 | epot = -22.6856922787856 | etot = -17.7243767943081
433000  ekin = 2.38577772852308 |  erot = 1.92242037772747 | epot = -22.7525956133752 | etot = -18.4443975071246
434000  ekin = 2.38240431006896 |  erot = 2.10745905578944 | epot = -22.7586540042292 | etot = -18.2687906383708
435000  ekin = 2.12286955240469 |  erot = 2.34000354159217 | epot = -22.6319118730511 | etot = -18.1690387790542
436000  ekin = 2.67385800386604 |  erot = 2.59460579166868 | epot = -22.6404996973321 | etot = -17.3720359017973
437000  ekin = 1.75959740929828 |  erot = 2.43720192360986 | epot = -22.7030079938494 | etot = -18.5062086609412
438000  ekin = 1.75120908430786 |  erot = 2.28124118651858 | epot = -22.749190610227 | etot = -18.7167403394005
439000  ekin = 1.75073242294502 |  erot = 2.03624763446663 | epot = -22.7489457185962 | etot = -18.9619656611846
440000  ekin = 2.07721967183055 |  erot = 2.85858063288596 | epot = -22.8109744065491 | etot = -17.8751741018326
441000  ekin = 1.60202985220682 |  erot = 2.85100314352584 | epot = -22.7745689858311 | etot = -18.3215359900984
442000  ekin = 2.27654314397087 |  erot = 3.22274835717702 | epot = -22.7446035204748 | etot = -17.2453120193269
443000  ekin = 1.93733014307339 |  erot = 1.57432763299075 | epot = -22.7272800276947 | etot = -19.2156222516305
444000  ekin = 1.75731366949631 |  erot = 2.25504170254907 | epot = -22.6435278528204 | etot = -18.631172480775
445000  ekin = 2.09887119167798 |  erot = 2.26627204333156 | epot = -22.5193278168198 | etot = -18.1541845818103
446000  ekin = 2.16625669770322 |  erot = 2.62168464822181 | epot = -22.4290479239373 | etot = -17.6411065780122
447000  ekin = 2.19819598279476 |  erot = 2.11162819084596 | epot = -22.3774620810792 | etot = -18.0676379074385
448000  ekin = 1.7755208645772 |  erot = 1.64284712827749 | epot = -22.3894548684582 | etot = -18.9710868756035
449000  ekin = 2.29637528825017 |  erot = 1.5286287774847 | epot = -22.4548388263691 | etot = -18.6298347606342
450000  ekin = 2.55872726173568 |  erot = 1.95244709295837 | epot = -22.4761389570735 | etot = -17.9649646023794
451000  ekin = 1.93483929977221 |  erot = 1.57730203053738 | epot = -22.4721871402484 | etot = -18.9600458099388
452000  ekin = 1.71591960523824 |  erot = 4.15592526681975 | epot = -22.3869204664751 | etot = -16.5150755944171
453000  ekin = 2.05784261741687 |  erot = 2.49754472957529 | epot = -22.4247246256638 | etot = -17.8693372786717
454000  ekin = 2.37473664452537 |  erot = 3.37363200196795 | epot = -22.496641743959 | etot = -16.7482730974657
455000  ekin = 1.73966540098562 |  erot = 3.16990427576242 | epot = -22.3919175950499 | etot = -17.4823479183019
456000  ekin = 2.41686819433944 |  erot = 2.61137211811606 | epot = -22.3203430517439 | etot = -17.2921027392884
457000  ekin = 2.87348571875052 |  erot = 2.67840099268897 | epot = -22.3129445692579 | etot = -16.7610578578184
458000  ekin = 1.89437239565888 |  erot = 2.55463878014183 | epot = -22.4202394049443 | etot = -17.9712282291436
459000  ekin = 1.87572781245208 |  erot = 2.52613531614619 | epot = -22.4249057850463 | etot = -18.023042656448
460000  ekin = 2.04813188453058 |  erot = 2.20089271831971 | epot = -22.4011710022067 | etot = -18.1521463993564
461000  ekin = 1.47247960021922 |  erot = 1.40768398836064 | epot = -22.3586363246324 | etot = -19.4784727360526
462000  ekin = 1.38503831902219 |  erot = 2.34595020862052 | epot = -22.4837409423011 | etot = -18.7527524146584
463000  ekin = 2.00645645258759 |  erot = 1.18165989843029 | epot = -22.4806738518605 | etot = -19.2925575008426
464000  ekin = 2.08237091480074 |  erot = 3.07220535335028 | epot = -22.4836460827449 | etot = -17.3290698145939
465000  ekin = 2.0456215542015 |  erot = 1.86890585180634 | epot = -22.5174143411392 | etot = -18.6028869351313
466000  ekin = 2.95986717673676 |  erot = 2.11178510069291 | epot = -22.6235722981753 | etot = -17.5519200207456
467000  ekin = 2.20953809644101 |  erot = 2.57273746506495 | epot = -22.7571181950953 | etot = -17.9748426335893
468000  ekin = 1.5902871353447 |  erot = 2.01907967468793 | epot = -22.7769947042451 | etot = -19.1676278942124
469000  ekin = 1.9462052385748 |  erot = 2.93750281149461 | epot = -22.7672520333545 | etot = -17.8835439832851
470000  ekin = 3.38174970242104 |  erot = 2.36622797398471 | epot = -22.8494270221486 | etot = -17.1014493457428
471000  ekin = 2.19235331714116 |  erot = 1.88537594669814 | epot = -22.9012671707407 | etot = -18.8235379069014
472000  ekin = 2.09266734001604 |  erot = 2.08181669723127 | epot = -22.9459604070355 | etot = -18.7714763697882
473000  ekin = 2.36590705985013 |  erot = 2.6708545089404 | epot = -23.0062159802477 | etot = -17.9694544114572
474000  ekin = 2.77035694449384 |  erot = 2.3027678515899 | epot = -23.0283042070227 | etot = -17.955179410939
475000  ekin = 2.81469924529784 |  erot = 1.74801606053043 | epot = -22.9818727611313 | etot = -18.419157455303
476000  ekin = 1.6614371664979 |  erot = 2.66895679342948 | epot = -22.9607497426557 | etot = -18.6303557827283
477000  ekin = 3.4013813766128 |  erot = 2.47762083745631 | epot = -22.9863526077737 | etot = -17.1073503937045
478000  ekin = 2.64900083423483 |  erot = 1.91407757255602 | epot = -22.9956967968773 | etot = -18.4326183900864
479000  ekin = 1.60377176066656 |  erot = 2.03690854636729 | epot = -22.9622351913009 | etot = -19.321554884267
480000  ekin = 2.06361598114192 |  erot = 2.38288961387606 | epot = -22.9444711012275 | etot = -18.4979655062095
481000  ekin = 3.10420446629087 |  erot = 2.4564857948581 | epot = -22.8947513649008 | etot = -17.3340611037518
482000  ekin = 3.72901587351966 |  erot = 2.08724672578547 | epot = -22.7565389886474 | etot = -16.9402763893423
483000  ekin = 2.80051858170061 |  erot = 2.88284961334901 | epot = -22.621270459186 | etot = -16.9379022641364
484000  ekin = 2.0110409785781 |  erot = 3.72169931738832 | epot = -22.5566278703519 | etot = -16.8238875743855
485000  ekin = 1.87367667342341 |  erot = 2.09747077779511 | epot = -22.5747713031699 | etot = -18.6036238519514
486000  ekin = 2.01419066693786 |  erot = 1.53376047222564 | epot = -22.6617353485008 | etot = -19.1137842093373
487000  ekin = 2.62466310274651 |  erot = 2.8154565495424 | epot = -22.7635996267058 | etot = -17.3234799744169
488000  ekin = 2.20017113992739 |  erot = 2.63952142846597 | epot = -22.7912824752716 | etot = -17.9515899068783
489000  ekin = 2.48973425231097 |  erot = 1.93887082378345 | epot = -22.7821173566376 | etot = -18.3535122805431
490000  ekin = 2.82031383172613 |  erot = 2.1152704692751 | epot = -22.7439109707737 | etot = -17.8083266697725
491000  ekin = 2.67150067218103 |  erot = 2.60674263371376 | epot = -22.6902612982561 | etot = -17.4120179923614
492000  ekin = 3.35859725231851 |  erot = 2.09917303380754 | epot = -22.6792026914912 | etot = -17.2214324053652
493000  ekin = 2.92706185972913 |  erot = 2.61206418345318 | epot = -22.555890100553 | etot = -17.0167640573707
494000  ekin = 3.40592557500485 |  erot = 2.00651000685379 | epot = -22.4449277885912 | etot = -17.0324922067326
495000  ekin = 2.82913240855034 |  erot = 2.68876281432575 | epot = -22.3431571155508 | etot = -16.8252618926747
496000  ekin = 2.68873100783268 |  erot = 2.65459610018584 | epot = -22.3530288226937 | etot = -17.0097017146752
497000  ekin = 2.15916102256083 |  erot = 2.58178912964776 | epot = -22.3187762548927 | etot = -17.5778261026842
498000  ekin = 2.1250851017953 |  erot = 2.58172095004275 | epot = -22.2888001544895 | etot = -17.5819941026515
499000  ekin = 2.34130861420783 |  erot = 2.33488363451604 | epot = -22.3011081875454 | etot = -17.6249159388215
500000  ekin = 2.85749511684744 |  erot = 1.82527244658259 | epot = -22.3853764151975 | etot = -17.7026088517675
501000  ekin = 2.41179591621454 |  erot = 2.07214655971995 | epot = -22.4198306535951 | etot = -17.9358881776606
502000  ekin = 2.0580038376515 |  erot = 3.03025922314732 | epot = -22.4588141208809 | etot = -17.3705510600821
503000  ekin = 2.24464497631497 |  erot = 2.99486525785898 | epot = -22.4506192513903 | etot = -17.2111090172163
504000  ekin = 1.80022602455725 |  erot = 2.4742601796155 | epot = -22.4453216224399 | etot = -18.1708354182671
505000  ekin = 2.44409230742744 |  erot = 2.02809748474755 | epot = -22.50771443196 | etot = -18.035524639785
506000  ekin = 2.53466734821408 |  erot = 1.74485074876353 | epot = -22.5311895285302 | etot = -18.2516714315526
507000  ekin = 3.23096993979711 |  erot = 2.12667588504341 | epot = -22.5272680080029 | etot = -17.1696221831624
508000  ekin = 2.87809924914958 |  erot = 2.23647435070733 | epot = -22.5735852765105 | etot = -17.4590116766536
509000  ekin = 3.09666803691483 |  erot = 2.01344817227328 | epot = -22.5531322135987 | etot = -17.4430160044106
510000  ekin = 2.89347551190587 |  erot = 1.87907637088166 | epot = -22.5722142851241 | etot = -17.7996624023365
511000  ekin = 2.89557048228876 |  erot = 2.26727517274045 | epot = -22.6021965971202 | etot = -17.439350942091
512000  ekin = 1.80499322219008 |  erot = 2.06104103685542 | epot = -22.5082384805065 | etot = -18.642204221461
513000  ekin = 1.86582605008159 |  erot = 1.80881245799596 | epot = -22.4818731450098 | etot = -18.8072346369322
514000  ekin = 1.66893021142187 |  erot = 2.76856699398954 | epot = -22.5144633272087 | etot = -18.0769661217973
515000  ekin = 2.16870417972369 |  erot = 2.03793643176127 | epot = -22.5725374419723 | etot = -18.3658968304873
516000  ekin = 1.95862575209641 |  erot = 3.55790203033117 | epot = -22.5675974691126 | etot = -17.051069686685
517000  ekin = 2.10116190921287 |  erot = 1.8703746684216 | epot = -22.5643410282357 | etot = -18.5928044506012
518000  ekin = 2.35762114087238 |  erot = 2.34678356890067 | epot = -22.5789498872261 | etot = -17.874545177453
519000  ekin = 1.4965579156146 |  erot = 1.37620919030064 | epot = -22.5775405953339 | etot = -19.7047734894186
520000  ekin = 2.20583131350858 |  erot = 2.06518236580453 | epot = -22.6051420155062 | etot = -18.3341283361931
521000  ekin = 2.11936831082606 |  erot = 1.89313676730226 | epot = -22.6824826885911 | etot = -18.6699776104628
522000  ekin = 2.43972156166519 |  erot = 2.29575985894378 | epot = -22.7597964571688 | etot = -18.0243150365599
523000  ekin = 2.47148532971583 |  erot = 2.62592855606052 | epot = -22.8218100826241 | etot = -17.7243961968478
524000  ekin = 2.83867159838233 |  erot = 1.67228239212566 | epot = -22.9130691352048 | etot = -18.4021151446968
525000  ekin = 2.33707759686424 |  erot = 2.11666157542524 | epot = -22.9343168153401 | etot = -18.4805776430506
526000  ekin = 2.78556314383173 |  erot = 2.12502967301725 | epot = -22.9632272664466 | etot = -18.0526344495976
527000  ekin = 2.67476397366556 |  erot = 2.10678170752056 | epot = -23.0109160127258 | etot = -18.2293703315396
528000  ekin = 3.11020438334646 |  erot = 2.16717572821384 | epot = -23.0743097715177 | etot = -17.7969296599574
529000  ekin = 1.90071372306354 |  erot = 2.29269386063507 | epot = -23.0742513713216 | etot = -18.880843787623
530000  ekin = 2.54935777739561 |  erot = 3.44632009130416 | epot = -22.9815707708391 | etot = -16.9858929021393
531000  ekin = 1.98646544552742 |  erot = 1.84284731266331 | epot = -22.8840867927685 | etot = -19.0547740345778
532000  ekin = 2.34497208518389 |  erot = 2.20242825249901 | epot = -22.958017128877 | etot = -18.4106167911941
533000  ekin = 2.04465189646124 |  erot = 2.5988852213048 | epot = -23.0954673727488 | etot = -18.4519302549827
534000  ekin = 2.18099982404014 |  erot = 2.24509264512596 | epot = -23.1672915876949 | etot = -18.7411991185288
535000  ekin = 2.46459047030509 |  erot = 2.52567370572274 | epot = -23.2601041392818 | etot = -18.269839963254
536000  ekin = 2.40944341542506 |  erot = 3.07014221153817 | epot = -23.3294178896885 | etot = -17.8498322627253
537000  ekin = 1.46836063591622 |  erot = 3.04877831235775 | epot = -23.3582488035726 | etot = -18.8411098552986
538000  ekin = 2.2322723564918 |  erot = 1.93698675675114 | epot = -23.3840280699676 | etot = -19.2147689567247
539000  ekin = 2.65850305482382 |  erot = 1.70915364045623 | epot = -23.4835953822242 | etot = -19.1159386869442
540000  ekin = 2.15389248554489 |  erot = 1.94073382714967 | epot = -23.5227953658549 | etot = -19.4281690531603
541000  ekin = 2.67641186082159 |  erot = 2.24709344305834 | epot = -23.5427111580002 | etot = -18.6192058541203
542000  ekin = 2.10429644506714 |  erot = 2.41109271626466 | epot = -23.504268251071 | etot = -18.9888790897392
543000  ekin = 1.88696147522521 |  erot = 2.545986170319 | epot = -23.4573858832303 | etot = -19.0244382376861
544000  ekin = 2.53894413626458 |  erot = 1.83894339654212 | epot = -23.447037705898 | etot = -19.0691501730913
545000  ekin = 2.2449929565181 |  erot = 3.05817804399732 | epot = -23.6401013875395 | etot = -18.3369303870241
546000  ekin = 2.38995007911114 |  erot = 1.73896404887933 | epot = -23.6250705214727 | etot = -19.4961563934822
547000  ekin = 2.53772946939786 |  erot = 3.02671406060461 | epot = -23.6172206165977 | etot = -18.0527770865952
548000  ekin = 2.30643053883799 |  erot = 2.12291748181918 | epot = -23.6947786726432 | etot = -19.265430651986
549000  ekin = 2.50325148970644 |  erot = 2.43753928660968 | epot = -23.6482202119214 | etot = -18.7074294356052
550000  ekin = 2.07278457584903 |  erot = 1.98823624738949 | epot = -23.6224210624574 | etot = -19.5614002392189
551000  ekin = 2.20187048094412 |  erot = 2.1743107800257 | epot = -23.5352962443151 | etot = -19.1591149833453
552000  ekin = 2.138048712317 |  erot = 2.28135917444489 | epot = -23.5978298104151 | etot = -19.1784219236532
553000  ekin = 2.42650743515903 |  erot = 2.89235296005631 | epot = -23.5454068695436 | etot = -18.2265464743283
554000  ekin = 2.31243694700819 |  erot = 2.73411780294884 | epot = -23.4404612498823 | etot = -18.3939064999252
555000  ekin = 2.25631450111253 |  erot = 2.70826767236547 | epot = -23.3810480325839 | etot = -18.4164658591059
556000  ekin = 2.42187654466562 |  erot = 1.81816757766949 | epot = -23.3335658342219 | etot = -19.0935217118868
557000  ekin = 2.89583868407859 |  erot = 2.59800113316269 | epot = -23.348377375344 | etot = -17.8545375581027
558000  ekin = 2.65744373001509 |  erot = 2.27566901958148 | epot = -23.229384025348 | etot = -18.2962712757514
559000  ekin = 2.40736894715472 |  erot = 3.48404550901825 | epot = -23.2950530086045 | etot = -17.4036385524315
560000  ekin = 2.51394452480884 |  erot = 2.4472528185523 | epot = -23.3548725200314 | etot = -18.3936751766703
561000  ekin = 2.78696960734098 |  erot = 2.18117562469108 | epot = -23.367099011436 | etot = -18.3989537794039
562000  ekin = 2.60590866354869 |  erot = 1.82255499079639 | epot = -23.3670125949106 | etot = -18.9385489405655
563000  ekin = 2.69475597498162 |  erot = 2.75081051570648 | epot = -23.3213805671121 | etot = -17.875814076424
564000  ekin = 2.62204591899764 |  erot = 2.49524198212383 | epot = -23.2345685046841 | etot = -18.1172806035626
565000  ekin = 2.67044367859168 |  erot = 2.01330141540311 | epot = -23.2168974338887 | etot = -18.5331523398939
566000  ekin = 2.13856275677523 |  erot = 3.1447022522953 | epot = -23.162471502403 | etot = -17.8792064933325
567000  ekin = 2.52010093960199 |  erot = 2.13254469832705 | epot = -23.1518584744761 | etot = -18.499212836547
568000  ekin = 2.28303629721264 |  erot = 2.38209001003274 | epot = -23.1558738946393 | etot = -18.4907475873939
569000  ekin = 3.02199429959192 |  erot = 2.33409896439 | epot = -23.098858714014 | etot = -17.742765450032
570000  ekin = 2.68736138164811 |  erot = 2.91449049675473 | epot = -23.0516588224656 | etot = -17.4498069440628
571000  ekin = 2.4201706123568 |  erot = 2.30930147292481 | epot = -22.9494196307347 | etot = -18.2199475454531
572000  ekin = 1.96101491359208 |  erot = 3.17564644151202 | epot = -22.9019671727356 | etot = -17.7653058176315
573000  ekin = 1.77231254512265 |  erot = 3.2959074591727 | epot = -23.0329704228571 | etot = -17.9647504185618
574000  ekin = 2.45195460796476 |  erot = 2.33093773153734 | epot = -23.1880178627738 | etot = -18.4051255232717
575000  ekin = 2.45020502461256 |  erot = 2.4698820279554 | epot = -23.1834275192561 | etot = -18.2633404666881
576000  ekin = 2.39426958146274 |  erot = 2.18334419303673 | epot = -23.165586753046 | etot = -18.5879729785466
577000  ekin = 2.42087612822122 |  erot = 2.8078297015673 | epot = -23.1889846114073 | etot = -17.9602787816187
578000  ekin = 2.47469593268156 |  erot = 2.22291754195604 | epot = -23.1822026147549 | etot = -18.4845891401173
579000  ekin = 1.99641516200814 |  erot = 3.00564689499868 | epot = -23.2220374443818 | etot = -18.219975387375
580000  ekin = 1.80326364254896 |  erot = 2.62493677026808 | epot = -23.2725597079199 | etot = -18.8443592951029
581000  ekin = 2.54320565466448 |  erot = 2.56546557497723 | epot = -23.2936203171846 | etot = -18.1849490875429
582000  ekin = 2.7760920595553 |  erot = 1.7054369481595 | epot = -23.3188805344426 | etot = -18.8373515267278
583000  ekin = 3.13415689631058 |  erot = 2.13862743264097 | epot = -23.4032331278423 | etot = -18.1304487988907
584000  ekin = 2.79256202281284 |  erot = 1.86237066580274 | epot = -23.4507356031754 | etot = -18.7958029145598
585000  ekin = 2.40352636193977 |  erot = 1.43972962791954 | epot = -23.4948475688155 | etot = -19.6515915789562
586000  ekin = 2.08429136741348 |  erot = 2.19251166266265 | epot = -23.4108290375219 | etot = -19.1340260074458
587000  ekin = 2.94108400136396 |  erot = 2.57342077096898 | epot = -23.3540972375961 | etot = -17.8395924652632
588000  ekin = 2.72217756938907 |  erot = 2.61651915812691 | epot = -23.229726324284 | etot = -17.891029596768
589000  ekin = 2.21949422254638 |  erot = 2.3311223729484 | epot = -23.150949548888 | etot = -18.6003329533932
590000  ekin = 1.81402039776171 |  erot = 2.05517606383124 | epot = -23.0478545255486 | etot = -19.1786580639557
591000  ekin = 1.58417624910412 |  erot = 2.41463211542345 | epot = -23.0177633874473 | etot = -19.0189550229197
592000  ekin = 1.98644093041263 |  erot = 1.96551923696644 | epot = -22.9894017313741 | etot = -19.037441563995
593000  ekin = 1.88204814648092 |  erot = 1.95829012430934 | epot = -22.9815982306237 | etot = -19.1412599598334
594000  ekin = 2.81360399014313 |  erot = 2.15645684811238 | epot = -22.9751895785633 | etot = -18.0051287403077
595000  ekin = 3.09138667876659 |  erot = 1.85939570103404 | epot = -22.9585503153314 | etot = -18.0077679355308
596000  ekin = 2.88475079255431 |  erot = 1.99291497545754 | epot = -22.9694795630784 | etot = -18.0918137950666
597000  ekin = 3.56180105071194 |  erot = 2.46630922350926 | epot = -22.9861357432383 | etot = -16.9580254690171
598000  ekin = 4.25212279079266 |  erot = 2.48959233670472 | epot = -23.0214618233768 | etot = -16.2797466958794
599000  ekin = 3.7244632603479 |  erot = 2.76139687839883 | epot = -23.0721196129427 | etot = -16.5862594741959
600000  ekin = 3.46467571149548 |  erot = 1.76392307266267 | epot = -23.1890443898223 | etot = -17.9604456056642
601000  ekin = 3.0310177628253 |  erot = 3.28042241831116 | epot = -23.2392242833269 | etot = -16.9277841021904
602000  ekin = 2.23251522550048 |  erot = 1.93410139388427 | epot = -23.2748311690052 | etot = -19.1082145496205
603000  ekin = 1.52395184313396 |  erot = 2.30579905635095 | epot = -23.3079770801695 | etot = -19.4782261806846
604000  ekin = 1.80277509473345 |  erot = 3.26982922397805 | epot = -23.3021805347927 | etot = -18.2295762160812
605000  ekin = 1.69061269141421 |  erot = 2.90357416013347 | epot = -23.2880125710927 | etot = -18.693825719545
606000  ekin = 2.35348879310444 |  erot = 2.05826930628853 | epot = -23.2259863126357 | etot = -18.8142282132427
607000  ekin = 2.98750155196662 |  erot = 1.93245034618772 | epot = -23.1569905313344 | etot = -18.2370386331801
608000  ekin = 3.25247562357662 |  erot = 2.87367209024389 | epot = -23.1243437665535 | etot = -16.998196052733
609000  ekin = 2.74562851506243 |  erot = 2.46957178784349 | epot = -23.1378453224525 | etot = -17.9226450195466
610000  ekin = 3.56937899101944 |  erot = 1.85394286166138 | epot = -23.1342553563961 | etot = -17.7109335037153
611000  ekin = 3.25034255711548 |  erot = 2.16992689142413 | epot = -23.0420891001313 | etot = -17.6218196515917
612000  ekin = 2.95654106669507 |  erot = 2.13931254426743 | epot = -23.0506038845264 | etot = -17.9547502735639
613000  ekin = 3.04973095155775 |  erot = 1.87979868094329 | epot = -22.9901336683938 | etot = -18.0606040358928
614000  ekin = 3.00995775064021 |  erot = 1.70679828403894 | epot = -23.0067400319172 | etot = -18.2899839972381
615000  ekin = 2.21837740297639 |  erot = 2.65601107560568 | epot = -22.9594109490335 | etot = -18.0850224704514
616000  ekin = 1.9492997573226 |  erot = 2.08809832862859 | epot = -22.9058047688739 | etot = -18.8684066829227
617000  ekin = 2.34987504209514 |  erot = 3.31816085594407 | epot = -22.8092343894311 | etot = -17.1411984913919
618000  ekin = 2.24263426864651 |  erot = 2.25720621146615 | epot = -22.8020578987413 | etot = -18.3022174186286
619000  ekin = 1.97180881105029 |  erot = 2.07875245552439 | epot = -22.7569606401772 | etot = -18.7063993736025
620000  ekin = 2.39044144530086 |  erot = 2.89229500628476 | epot = -22.7088725220114 | etot = -17.4261360704257
621000  ekin = 2.15150678521736 |  erot = 2.30775677443908 | epot = -22.643940119738 | etot = -18.1846765600816
622000  ekin = 2.0028430350823 |  erot = 2.78278646933244 | epot = -22.600112912221 | etot = -17.8144834078063
623000  ekin = 2.19528283622071 |  erot = 2.14002571477316 | epot = -22.666620119306 | etot = -18.3313115683121
624000  ekin = 2.82040068944897 |  erot = 2.57349826686042 | epot = -22.7167317153813 | etot = -17.3228327590719
625000  ekin = 2.98627918034148 |  erot = 1.57679569211939 | epot = -22.7237278324305 | etot = -18.1606529599696
626000  ekin = 2.37348083921872 |  erot = 1.88550722657484 | epot = -22.7032586894344 | etot = -18.4442706236409
627000  ekin = 2.35195177608881 |  erot = 2.01446777503463 | epot = -22.7112770388174 | etot = -18.344857487694
628000  ekin = 2.50881254425373 |  erot = 1.56688558879362 | epot = -22.6405205013867 | etot = -18.5648223683393
629000  ekin = 2.58514893297873 |  erot = 1.70970168729388 | epot = -22.5610370580219 | etot = -18.2661864377493
630000  ekin = 2.78720199311866 |  erot = 2.91114841200295 | epot = -22.4713018556232 | etot = -16.7729514505016
631000  ekin = 2.4617589215552 |  erot = 2.66187466993095 | epot = -22.4061953621981 | etot = -17.282561770712
632000  ekin = 2.67568812509024 |  erot = 2.67916251422212 | epot = -22.3286212206811 | etot = -16.9737705813688
633000  ekin = 2.42046368116991 |  erot = 2.0959495936055 | epot = -22.2764051897282 | etot = -17.7599919149528
634000  ekin = 2.1766138388507 |  erot = 1.75221904598353 | epot = -22.2464672562848 | etot = -18.3176343714506
635000  ekin = 2.1303374537182 |  erot = 2.11558346598702 | epot = -22.1559890122107 | etot = -17.9100680925054
636000  ekin = 2.03262388834245 |  erot = 1.68380166560562 | epot = -22.2457935658938 | etot = -18.5293680119458
637000  ekin = 2.39791285236697 |  erot = 2.55917753311606 | epot = -22.4447998775231 | etot = -17.4877094920401
638000  ekin = 2.15469983815169 |  erot = 3.28400540345815 | epot = -22.4075976338996 | etot = -16.9688923922898
639000  ekin = 1.81811684885083 |  erot = 2.75659290480155 | epot = -22.3748011521987 | etot = -17.8000913985464
640000  ekin = 1.99907387989529 |  erot = 2.08952122746439 | epot = -22.3717813517436 | etot = -18.283186244384
641000  ekin = 2.66328164143483 |  erot = 3.02619691580941 | epot = -22.2647370196577 | etot = -16.5752584624134
642000  ekin = 2.88967061145595 |  erot = 2.59057169345598 | epot = -22.23475748516 | etot = -16.7545151802481
643000  ekin = 2.79246415244629 |  erot = 2.87517098573249 | epot = -22.2468989126934 | etot = -16.5792637745146
644000  ekin = 2.27988542188579 |  erot = 3.04855388745644 | epot = -22.2349136242582 | etot = -16.906474314916
645000  ekin = 3.01613981708155 |  erot = 2.4967822399052 | epot = -22.3345075492296 | etot = -16.8215854922429
646000  ekin = 2.21704249586791 |  erot = 2.60354951531734 | epot = -22.2671914610386 | etot = -17.4465994498533
647000  ekin = 2.37597087431337 |  erot = 2.09971950840957 | epot = -22.4060809913804 | etot = -17.9303906086575
648000  ekin = 2.4714436262309 |  erot = 2.63569146556463 | epot = -22.423642714225 | etot = -17.3165076224295
649000  ekin = 2.53468077746691 |  erot = 2.34586903824308 | epot = -22.358445267116 | etot = -17.477895451406
650000  ekin = 2.9010220783452 |  erot = 2.43748900585602 | epot = -22.235082780767 | etot = -16.8965716965658
651000  ekin = 2.43937394370796 |  erot = 2.32097040047332 | epot = -22.1007717206118 | etot = -17.3404273764305
652000  ekin = 3.22983264752039 |  erot = 1.97644426162264 | epot = -22.1139672910572 | etot = -16.9076903819141
653000  ekin = 3.42414251849354 |  erot = 2.79487810087101 | epot = -22.1558408334809 | etot = -15.9368202141163
654000  ekin = 2.15889671735112 |  erot = 2.36472973550593 | epot = -22.1974951138068 | etot = -17.6738686609497
655000  ekin = 2.65852679982884 |  erot = 1.70572386028398 | epot = -22.2627111956629 | etot = -17.8984605355501
656000  ekin = 2.48541797006401 |  erot = 2.06347531107756 | epot = -22.3150691564122 | etot = -17.7661758752707
657000  ekin = 2.69778549496517 |  erot = 2.20386261244986 | epot = -22.4300467083325 | etot = -17.5283986009175
658000  ekin = 2.77197513377729 |  erot = 2.5072948475956 | epot = -22.5474407814621 | etot = -17.2681708000892
659000  ekin = 3.66874079211363 |  erot = 2.11838086144899 | epot = -22.5519111820512 | etot = -16.7647895284886
660000  ekin = 2.97388996619018 |  erot = 2.92112069101806 | epot = -22.6187600322739 | etot = -16.7237493750657
661000  ekin = 2.78763059394641 |  erot = 2.30401970578286 | epot = -22.7111345560961 | etot = -17.6194842563668
662000  ekin = 2.98299477151657 |  erot = 1.34778890968014 | epot = -22.712605002436 | etot = -18.3818213212393
663000  ekin = 2.06206406341935 |  erot = 2.49091694129999 | epot = -22.6743419399864 | etot = -18.121360935267
664000  ekin = 1.46165423849889 |  erot = 1.88506472859125 | epot = -22.7282890093398 | etot = -19.3815700422497
[...]
835000  ekin = 3.47114373337366 |  erot = 2.09781333604001 | epot = -21.8771549098142 | etot = -16.3081978404005
836000  ekin = 2.71067283785106 |  erot = 3.26177139393205 | epot = -22.0614513419415 | etot = -16.0890071101583
837000  ekin = 2.82278761249275 |  erot = 2.64917318251883 | epot = -22.2428744107532 | etot = -16.7709136157417
838000  ekin = 2.86323560044783 |  erot = 2.96285563085687 | epot = -22.3579310822412 | etot = -16.5318398509365
839000  ekin = 2.91010528600405 |  erot = 1.78968409868876 | epot = -22.3931377567277 | etot = -17.6933483720349
840000  ekin = 2.68501939036542 |  erot = 1.84551444209968 | epot = -22.4099858160921 | etot = -17.879451983627
841000  ekin = 2.78761718016806 |  erot = 2.07511139278678 | epot = -22.4502333935977 | etot = -17.5875048206429
842000  ekin = 2.30765580411605 |  erot = 2.05774495041193 | epot = -22.4188744128232 | etot = -18.0534736582952
843000  ekin = 2.34438101892177 |  erot = 2.29420407093426 | epot = -22.4349024679563 | etot = -17.7963173781003
844000  ekin = 2.00792674828049 |  erot = 2.31767327257805 | epot = -22.4786582023913 | etot = -18.1530581815328
845000  ekin = 2.55136030290324 |  erot = 2.34385902090199 | epot = -22.4799883641885 | etot = -17.5847690403832
846000  ekin = 3.24095798236659 |  erot = 2.35217012971054 | epot = -22.5063540497827 | etot = -16.9132259377056
847000  ekin = 2.03834455975138 |  erot = 2.30020941454582 | epot = -22.5309995762754 | etot = -18.1924456019782
848000  ekin = 2.83373620504456 |  erot = 2.13136296315047 | epot = -22.509666561527 | etot = -17.544567393332
849000  ekin = 2.30412012601641 |  erot = 2.33744771805384 | epot = -22.4861027555015 | etot = -17.8445349114312
850000  ekin = 1.52103738969765 |  erot = 2.15323991690878 | epot = -22.5147792441637 | etot = -18.8405019375573
851000  ekin = 1.85927261161487 |  erot = 2.05456043679611 | epot = -22.41752057705 | etot = -18.503687528639
852000  ekin = 1.35588514515989 |  erot = 1.9167555928276 | epot = -22.3689199481736 | etot = -19.0962792101861
853000  ekin = 2.3850184465024 |  erot = 2.13310598794891 | epot = -22.4485532426469 | etot = -17.9304288081955
854000  ekin = 3.24160358995203 |  erot = 2.86289112951559 | epot = -22.5134229014302 | etot = -16.4089281819626
855000  ekin = 2.13481228779989 |  erot = 1.96664100945254 | epot = -22.4546662618353 | etot = -18.3532129645828
856000  ekin = 2.50184794641609 |  erot = 1.67720759103887 | epot = -22.3993038611807 | etot = -18.2202483237257
857000  ekin = 3.36467068168789 |  erot = 2.39681039692234 | epot = -22.3226520614655 | etot = -16.5611709828553
858000  ekin = 2.48664620814186 |  erot = 2.35813115829077 | epot = -22.272278975303 | etot = -17.4275016088704
859000  ekin = 2.32018019421645 |  erot = 2.34139041664418 | epot = -22.2193920346789 | etot = -17.5578214238183
860000  ekin = 2.22338714949804 |  erot = 2.59608961594502 | epot = -22.2078599697903 | etot = -17.3883832043473
861000  ekin = 2.78084194233445 |  erot = 1.92482892867366 | epot = -22.1430552159866 | etot = -17.4373843449785
862000  ekin = 2.44005485500116 |  erot = 2.71281255016884 | epot = -22.1159986211262 | etot = -16.9631312159562
863000  ekin = 2.24234987838148 |  erot = 3.79312130641057 | epot = -22.0841490674594 | etot = -16.0486778826673
864000  ekin = 3.01456697615184 |  erot = 2.29303363412973 | epot = -22.1234826076905 | etot = -16.815881997409
865000  ekin = 2.16000819632291 |  erot = 2.15780299713575 | epot = -22.1287456416268 | etot = -17.8109344481681
866000  ekin = 1.81163527021121 |  erot = 2.32024755104635 | epot = -22.1499759612014 | etot = -18.0180931399439
867000  ekin = 2.25540445662073 |  erot = 3.35667286394567 | epot = -22.1512265495476 | etot = -16.5391492289812
868000  ekin = 2.12606109236403 |  erot = 2.09577443816696 | epot = -22.1889361717519 | etot = -17.9671006412209
869000  ekin = 3.01588764102674 |  erot = 2.28014407542063 | epot = -22.221302584169 | etot = -16.9252708677216
870000  ekin = 2.40773894902557 |  erot = 3.40007074283947 | epot = -22.1952409397611 | etot = -16.387431247896
871000  ekin = 3.32703715357026 |  erot = 3.46064712451054 | epot = -22.207619940406 | etot = -15.4199356623252
872000  ekin = 2.67470986735512 |  erot = 2.18306697620401 | epot = -22.2188283181498 | etot = -17.3610514745907
873000  ekin = 2.52072696526388 |  erot = 2.1369508485849 | epot = -22.2519152847091 | etot = -17.5942374708604
874000  ekin = 2.27694681653708 |  erot = 1.90405870618916 | epot = -22.2119486941003 | etot = -18.0309431713741
875000  ekin = 3.04326947271929 |  erot = 2.81417576356414 | epot = -22.2207355347687 | etot = -16.3632902984853
876000  ekin = 2.65936305160015 |  erot = 2.00688506244317 | epot = -22.2254483507339 | etot = -17.5592002366906
877000  ekin = 2.1218906050998 |  erot = 2.12108610918076 | epot = -22.2199840422449 | etot = -17.9770073279643
878000  ekin = 2.04330658320778 |  erot = 2.19234207701539 | epot = -22.2416061573535 | etot = -18.0059574971303
879000  ekin = 2.32331088859055 |  erot = 1.79314356421366 | epot = -22.2511349493271 | etot = -18.1346804965229
880000  ekin = 2.7191684680603 |  erot = 2.50780771372557 | epot = -22.3211844971675 | etot = -17.0942083153816
881000  ekin = 1.99457026442112 |  erot = 2.42028761684275 | epot = -22.3291049337298 | etot = -17.9142470524659
882000  ekin = 2.17848471304109 |  erot = 2.10936064799446 | epot = -22.4203903692112 | etot = -18.1325450081757
883000  ekin = 1.77867952654183 |  erot = 2.64915979670231 | epot = -22.4714725630276 | etot = -18.0436332397834
884000  ekin = 2.14335954946475 |  erot = 1.84960097278838 | epot = -22.5511502290244 | etot = -18.5581897067713
885000  ekin = 2.1737296921439 |  erot = 1.1224465172794 | epot = -22.6177136264329 | etot = -19.3215374170096
886000  ekin = 2.42905198250288 |  erot = 2.95855698435737 | epot = -22.6235099833459 | etot = -17.2359010164856
887000  ekin = 2.48421926935623 |  erot = 2.38511493603948 | epot = -22.6296650575404 | etot = -17.7603308521447
888000  ekin = 2.70449841183027 |  erot = 2.37632299730154 | epot = -22.6283104195123 | etot = -17.5474890103805
889000  ekin = 2.16954131372983 |  erot = 2.33019249573093 | epot = -22.6936030299779 | etot = -18.1938692205171
890000  ekin = 2.47926329860922 |  erot = 2.33896915658922 | epot = -22.6494572776992 | etot = -17.8312248225007
891000  ekin = 1.94552918338144 |  erot = 2.18077529869467 | epot = -22.6609703311569 | etot = -18.5346658490808
892000  ekin = 2.28162371339856 |  erot = 2.3088525744332 | epot = -22.6825434447643 | etot = -18.0920671569325
893000  ekin = 2.88680394731139 |  erot = 2.10479527485689 | epot = -22.6297583991013 | etot = -17.638159176933
894000  ekin = 2.22095391000543 |  erot = 2.6955566302385 | epot = -22.5465758433209 | etot = -17.6300653030769
895000  ekin = 2.78422464609227 |  erot = 2.65463994767233 | epot = -22.5353839067237 | etot = -17.0965193129591
896000  ekin = 2.36290673766564 |  erot = 2.68569415977408 | epot = -22.5147457657546 | etot = -17.4661448683149
897000  ekin = 2.78793396360212 |  erot = 2.64131273496852 | epot = -22.5414816276965 | etot = -17.1122349291259
898000  ekin = 2.3402778901712 |  erot = 2.19036014594362 | epot = -22.5104750621796 | etot = -17.9798370260648
899000  ekin = 2.66788181923082 |  erot = 2.47623824735052 | epot = -22.4660137235249 | etot = -17.3218936569435
900000  ekin = 1.59318336723961 |  erot = 2.21998911769617 | epot = -22.5347550915857 | etot = -18.7215826066499
901000  ekin = 2.06417516984273 |  erot = 2.10877138148894 | epot = -22.5774386825736 | etot = -18.4044921312419
902000  ekin = 1.92723308146077 |  erot = 2.68515165308711 | epot = -22.5481083061021 | etot = -17.9357235715542
903000  ekin = 1.80993467873556 |  erot = 1.57695529654776 | epot = -22.5323996660651 | etot = -19.1455096907817
904000  ekin = 1.95575183245312 |  erot = 2.60436945067914 | epot = -22.5256682806408 | etot = -17.9655469975085
905000  ekin = 2.49381768733875 |  erot = 1.66773826407627 | epot = -22.4993840902563 | etot = -18.3378281388413
906000  ekin = 2.70456575671731 |  erot = 2.32922683721416 | epot = -22.5151218166898 | etot = -17.4813292227584
907000  ekin = 3.43903944265671 |  erot = 3.0307204788449 | epot = -22.5299571834398 | etot = -16.0601972619382
908000  ekin = 2.37356952619769 |  erot = 2.64936438196245 | epot = -22.516942166439 | etot = -17.4940082582789
909000  ekin = 2.1860703025731 |  erot = 2.13921305901071 | epot = -22.5153521800656 | etot = -18.1900688184818
910000  ekin = 2.24010023383653 |  erot = 1.8514435260008 | epot = -22.5113320632559 | etot = -18.4197883034186
911000  ekin = 2.67585852173789 |  erot = 3.85348226422502 | epot = -22.4699249030924 | etot = -15.9405841171295
912000  ekin = 3.64657818361083 |  erot = 2.2905143551155 | epot = -22.4162004746889 | etot = -16.4791079359625
913000  ekin = 2.77291999770499 |  erot = 2.1022397931402 | epot = -22.2869766697588 | etot = -17.4118168789136
914000  ekin = 1.89079293131433 |  erot = 1.61085972457271 | epot = -22.2125075199665 | etot = -18.7108548640794
915000  ekin = 2.29207178481568 |  erot = 2.8656606451286 | epot = -22.1499813962335 | etot = -16.9922489662893
916000  ekin = 2.37906860202164 |  erot = 2.93218592813836 | epot = -22.1637836439351 | etot = -16.8525291137751
917000  ekin = 2.59326894380189 |  erot = 1.59995350665161 | epot = -22.1382449385233 | etot = -17.9450224880698
918000  ekin = 2.59372186080417 |  erot = 3.48686361915462 | epot = -22.1117393261149 | etot = -16.0311538461561
919000  ekin = 3.63953975205853 |  erot = 2.58422541764726 | epot = -22.1104945479772 | etot = -15.8867293782714
920000  ekin = 2.78492990282824 |  erot = 1.86208025423285 | epot = -22.0733276968689 | etot = -17.4263175398078
921000  ekin = 3.07307788316298 |  erot = 1.56848168882074 | epot = -22.0450316551233 | etot = -17.4034720831396
922000  ekin = 2.52896264126303 |  erot = 2.06804264923523 | epot = -22.0195361349236 | etot = -17.4225308444253
923000  ekin = 2.61981998522111 |  erot = 2.66954469306772 | epot = -22.0457463967354 | etot = -16.7563817184466
924000  ekin = 2.29381022514437 |  erot = 2.49801555366746 | epot = -22.0170239220671 | etot = -17.2251981432553
925000  ekin = 2.34625944949207 |  erot = 3.19587785236191 | epot = -22.028094746344 | etot = -16.4859574444901
926000  ekin = 2.1499233373865 |  erot = 2.05823289292907 | epot = -22.0551986731856 | etot = -17.84704244287
927000  ekin = 2.70495872901843 |  erot = 1.96917479663366 | epot = -22.0956495975482 | etot = -17.4215160718961
928000  ekin = 2.20438880519295 |  erot = 2.76887961394763 | epot = -22.1039091543987 | etot = -17.1306407352581
929000  ekin = 1.66382307176874 |  erot = 2.62906085068005 | epot = -22.1726645871649 | etot = -17.8797806647161
930000  ekin = 2.44828303043728 |  erot = 2.44689226426912 | epot = -22.2529456791372 | etot = -17.3577703844308
931000  ekin = 2.34172371844874 |  erot = 1.78034954048635 | epot = -22.3194053510458 | etot = -18.1973320921107
932000  ekin = 2.86526138273858 |  erot = 3.26408148037739 | epot = -22.3255275519233 | etot = -16.1961846888074
933000  ekin = 2.82342195482862 |  erot = 3.6937351987852 | epot = -22.2580157348403 | etot = -15.7408585812265
934000  ekin = 2.38157885575329 |  erot = 3.09818957660776 | epot = -22.1592884972713 | etot = -16.6795200649102
935000  ekin = 2.47849108316876 |  erot = 1.92075328373161 | epot = -22.0961420624139 | etot = -17.6968976955135
936000  ekin = 2.49397604910015 |  erot = 2.55601396404453 | epot = -22.0064014399899 | etot = -16.9564114268453
937000  ekin = 2.6918648576103 |  erot = 3.47263294076258 | epot = -22.0234522240484 | etot = -15.8589544256755
938000  ekin = 2.48873697071885 |  erot = 2.3615977813032 | epot = -21.9576739595259 | etot = -17.1073392075039
939000  ekin = 2.7056760578856 |  erot = 1.42055121093474 | epot = -22.0193047024759 | etot = -17.8930774336556
940000  ekin = 2.88189239926779 |  erot = 2.54211609996475 | epot = -21.963323771107 | etot = -16.5393152718745
941000  ekin = 2.44770794558597 |  erot = 1.8579190466837 | epot = -21.9343286748115 | etot = -17.6287016825418
942000  ekin = 2.61959568530468 |  erot = 2.22532128272654 | epot = -21.9353530015567 | etot = -17.0904360335255
943000  ekin = 2.54153612965671 |  erot = 2.71959375806095 | epot = -21.9843720500752 | etot = -16.7232421623575
944000  ekin = 2.57930166684081 |  erot = 1.60562519751619 | epot = -21.9098609218899 | etot = -17.7249340575329
945000  ekin = 2.26017628750984 |  erot = 2.67831094836454 | epot = -21.8967586325953 | etot = -16.958271396721
946000  ekin = 2.56313399941445 |  erot = 2.76984355108528 | epot = -21.885121080301 | etot = -16.5521435298013
947000  ekin = 1.72889278969055 |  erot = 1.57454364668031 | epot = -21.8264681047052 | etot = -18.5230316683343
948000  ekin = 1.42819481646296 |  erot = 2.04503560450747 | epot = -21.8391184541439 | etot = -18.3658880331735
949000  ekin = 1.74199608841338 |  erot = 1.96409283987733 | epot = -21.8667949303421 | etot = -18.1607060020513
950000  ekin = 1.55764652514141 |  erot = 2.39695530807616 | epot = -21.8856003991517 | etot = -17.9309985659341
951000  ekin = 1.63932624900687 |  erot = 2.1627973168229 | epot = -21.9503862126057 | etot = -18.1482626467759
952000  ekin = 1.89086480907742 |  erot = 2.49708005969823 | epot = -21.9454729492793 | etot = -17.5575280805036
953000  ekin = 2.44055170062751 |  erot = 2.14431771118738 | epot = -21.8959489835736 | etot = -17.3110795717587
954000  ekin = 2.14487831289196 |  erot = 3.08443398263928 | epot = -21.795825093512 | etot = -16.5665127979808
955000  ekin = 1.60221367612371 |  erot = 3.5308242347527 | epot = -21.6951891429404 | etot = -16.562151232064
956000  ekin = 2.86347770563429 |  erot = 2.69138834272026 | epot = -21.6556631266882 | etot = -16.1007970783337
957000  ekin = 2.76520094154603 |  erot = 2.16152614675844 | epot = -21.6435053042083 | etot = -16.7167782159039
958000  ekin = 3.29226660028984 |  erot = 2.62876087991651 | epot = -21.5934941292417 | etot = -15.6724666490354
959000  ekin = 2.66337479749112 |  erot = 1.93770218849588 | epot = -21.5642990170474 | etot = -16.9632220310604
960000  ekin = 2.86423754644722 |  erot = 2.19410745878017 | epot = -21.5177124722279 | etot = -16.4593674670006
961000  ekin = 2.48295179178335 |  erot = 2.43234834813273 | epot = -21.5213073923115 | etot = -16.6060072523954
962000  ekin = 1.68087651110994 |  erot = 2.11605214746261 | epot = -21.5272991731175 | etot = -17.730370514545
963000  ekin = 2.12197709458218 |  erot = 1.94777002069826 | epot = -21.5235663501543 | etot = -17.4538192348738
964000  ekin = 2.50733406625421 |  erot = 2.86610278796474 | epot = -21.6134414980076 | etot = -16.2400046437886
965000  ekin = 2.48599183654717 |  erot = 1.79499031304665 | epot = -21.5880837540441 | etot = -17.3071016044502
966000  ekin = 2.00894333039795 |  erot = 2.33897690805447 | epot = -21.6770932400157 | etot = -17.3291730015632
967000  ekin = 2.50955412880022 |  erot = 2.78273184372279 | epot = -21.7722886206001 | etot = -16.4800026480771
968000  ekin = 2.39889345353743 |  erot = 2.01767642165489 | epot = -21.8155202641564 | etot = -17.3989503889641
969000  ekin = 2.28246497162226 |  erot = 2.6610436899411 | epot = -21.8367533421236 | etot = -16.8932446805602
970000  ekin = 2.23203775830392 |  erot = 2.52493315465349 | epot = -21.7968010714725 | etot = -17.0398301585151
971000  ekin = 2.35522817907367 |  erot = 3.39194300680609 | epot = -21.8814762448495 | etot = -16.1343050589698
972000  ekin = 2.92268851492039 |  erot = 2.10931174667369 | epot = -21.8978389761888 | etot = -16.8658387145947
973000  ekin = 2.77937322332655 |  erot = 3.20264340638929 | epot = -21.8742816810463 | etot = -15.8922650513305
974000  ekin = 2.49009389085376 |  erot = 2.32800875868964 | epot = -21.7820748340866 | etot = -16.9639721845432
975000  ekin = 2.72033534996219 |  erot = 3.65469302721884 | epot = -21.7224052943306 | etot = -15.3473769171495
976000  ekin = 2.71017392247357 |  erot = 2.02557906552618 | epot = -21.6961182780945 | etot = -16.9603652900947
977000  ekin = 2.17702730116704 |  erot = 2.60235136270384 | epot = -21.6180913127583 | etot = -16.8387126488875
978000  ekin = 1.77849232321391 |  erot = 1.99858920804759 | epot = -21.5849000297842 | etot = -17.8078184985227
979000  ekin = 2.48810087232518 |  erot = 2.63640222059576 | epot = -21.6371898197889 | etot = -16.5126867268679
980000  ekin = 1.82633711731844 |  erot = 2.05813667598699 | epot = -21.6585229341326 | etot = -17.7740491408271
981000  ekin = 1.91146199713101 |  erot = 1.90004529483666 | epot = -21.7219076944834 | etot = -17.9104004025157
982000  ekin = 1.58901547008885 |  erot = 2.3998948195541 | epot = -21.7861972103806 | etot = -17.7972869207376
983000  ekin = 1.90990791777794 |  erot = 2.80966645725473 | epot = -21.7824009478711 | etot = -17.0628265728384
984000  ekin = 3.04220145268175 |  erot = 1.69588850289015 | epot = -21.8411397187458 | etot = -17.1030497631739
985000  ekin = 2.78368169036401 |  erot = 2.92615311813614 | epot = -21.9523851434087 | etot = -16.2425503349085
986000  ekin = 2.49557629947763 |  erot = 3.0544158396407 | epot = -21.9474177819392 | etot = -16.3974256428209
987000  ekin = 2.94534789449803 |  erot = 1.85813505015918 | epot = -21.9308646063833 | etot = -17.1273816617261
988000  ekin = 3.20975095732697 |  erot = 3.54928250010428 | epot = -21.8260823230639 | etot = -15.0670488656326
989000  ekin = 2.92872893558337 |  erot = 2.50053850131553 | epot = -21.7939177563688 | etot = -16.3646503194699
990000  ekin = 1.94245878607124 |  erot = 2.64876037239901 | epot = -21.7891875584096 | etot = -17.1979683999394
991000  ekin = 2.17972550210194 |  erot = 2.86510777418376 | epot = -21.8197503596152 | etot = -16.7749170833296
992000  ekin = 2.52496188361677 |  erot = 2.72509937739588 | epot = -21.7730940251365 | etot = -16.5230327641239
993000  ekin = 2.06107125732198 |  erot = 2.79131355143356 | epot = -21.7326833691733 | etot = -16.8802985604177
994000  ekin = 2.40031262466104 |  erot = 2.5219233481115 | epot = -21.7261274920277 | etot = -16.8038915192551
995000  ekin = 1.80633536079933 |  erot = 2.07468376575716 | epot = -21.7283755003117 | etot = -17.8473563737552
996000  ekin = 2.61788487499682 |  erot = 2.63730746697003 | epot = -21.6837220732346 | etot = -16.4285297312677
997000  ekin = 3.17513078038726 |  erot = 2.07778272001357 | epot = -21.6151676277683 | etot = -16.3622541273675
998000  ekin = 2.82648577435409 |  erot = 2.39219801181103 | epot = -21.4967856271291 | etot = -16.278101840964
999000  ekin = 2.15841415676437 |  erot = 2.8705487674429 | epot = -21.4943522577851 | etot = -16.4653893335778
1000000  ekin = 2.16735910095287 |  erot = 2.44618830827923 | epot = -21.395427974522 | etot = -16.7818805652899
 1000000  0.096327071   -1.3608937  0.023679494   -1.2017543 -3.298683e-05 
Loop time of 28.7478 on 1 procs for 1000000 steps with 16 atoms

Performance: 30054.487 tau/day, 34785.286 timesteps/s
99.2% CPU use with 1 MPI tasks x no OpenMP threads

MPI task timing breakdown:
Section |  min time  |  avg time  |  max time  |%varavg| %total
---------------------------------------------------------------
Pair    | 23.177     | 23.177     | 23.177     |   0.0 | 80.62
Bond    | 0.9075     | 0.9075     | 0.9075     |   0.0 |  3.16
Neigh   | 0          | 0          | 0          |   0.0 |  0.00
Comm    | 0.19114    | 0.19114    | 0.19114    |   0.0 |  0.66
Output  | 8e-06      | 8e-06      | 8e-06      |   0.0 |  0.00
Modify  | 4.1695     | 4.1695     | 4.1695     |   0.0 | 14.50
Other   |            | 0.303      |            |       |  1.05

Nlocal:    16.0 ave 16.0 max 16.0 min
Histogram: 1 0 0 0 0 0 0 0 0 0
Nghost:    0.0 ave 0.0 max 0.0 min
Histogram: 1 0 0 0 0 0 0 0 0 0
Neighs:    89.0 ave 89.0 max 89.0 min
Histogram: 1 0 0 0 0 0 0 0 0 0

Total # of neighbors = 89
Ave neighs/atom = 5.5625
Ave special neighs/atom = 3.75
Neighbor list builds = 0
Dangerous builds = 0

#write_restart config.${number}.*
Total wall time: 0:00:28
