LAMMPS (18 Jun 2019)
variable number	equal 2
variable ofreq	equal 1000
variable efreq	equal 1000
variable T      equal 0.1

units lj

dimension 3

newton off

boundary  p p p

atom_style hybrid bond ellipsoid
atom_modify sort 0 1.0

# Pair interactions require lists of neighbours to be calculated
neighbor 1.0 bin
neigh_modify every 1 delay 0 check yes

read_data data.duplex2
  orthogonal box = (-20 -20 -20) to (20 20 20)
  1 by 1 by 1 MPI processor grid
  reading atoms ...
  16 atoms
  reading velocities ...
  16 velocities
  16 ellipsoids
  scanning bonds ...
  2 = max bonds/atom
  reading bonds ...
  13 bonds
  2 = max # of 1-2 neighbors
  2 = max # of 1-3 neighbors
  4 = max # of 1-4 neighbors
  6 = max # of special neighbors
  special bonds CPU = 0.000135 secs
  read_data CPU = 0.002118 secs

set atom * mass 3.1575
  16 settings made for mass

group all type 1 4
16 atoms in group all

# oxDNA bond interactions - FENE backbone
bond_style oxdna/fene
bond_coeff * 2.0 0.25 0.7525

# oxDNA pair interactions
pair_style hybrid/overlay oxdna/excv oxdna/stk oxdna/hbond oxdna/xstk oxdna/coaxstk
pair_coeff * * oxdna/excv    2.0 0.7 0.675 2.0 0.515 0.5 2.0 0.33 0.32
pair_coeff * * oxdna/stk     seqav ${T} 1.3448 2.6568 6.0 0.4 0.9 0.32 0.6 1.3 0 0.8 0.9 0 0.95 0.9 0 0.95 2.0 0.65 2.0 0.65
pair_coeff * * oxdna/stk     seqav 0.1 1.3448 2.6568 6.0 0.4 0.9 0.32 0.6 1.3 0 0.8 0.9 0 0.95 0.9 0 0.95 2.0 0.65 2.0 0.65
pair_coeff * * oxdna/hbond   seqav 0.0   8.0 0.4 0.75 0.34 0.7 1.5 0 0.7 1.5 0 0.7 1.5 0 0.7 0.46 3.141592653589793 0.7 4.0 1.5707963267948966 0.45 4.0 1.5707963267948966 0.45
pair_coeff 1 4 oxdna/hbond   seqav 1.077 8.0 0.4 0.75 0.34 0.7 1.5 0 0.7 1.5 0 0.7 1.5 0 0.7 0.46 3.141592653589793 0.7 4.0 1.5707963267948966 0.45 4.0 1.5707963267948966 0.45
pair_coeff 2 3 oxdna/hbond   seqav 1.077 8.0 0.4 0.75 0.34 0.7 1.5 0 0.7 1.5 0 0.7 1.5 0 0.7 0.46 3.141592653589793 0.7 4.0 1.5707963267948966 0.45 4.0 1.5707963267948966 0.45
pair_coeff * * oxdna/xstk    47.5 0.575 0.675 0.495 0.655 2.25 0.791592653589793 0.58 1.7 1.0 0.68 1.7 1.0 0.68 1.5 0 0.65 1.7 0.875 0.68 1.7 0.875 0.68
pair_coeff * * oxdna/coaxstk 46.0 0.4 0.6 0.22 0.58 2.0 2.541592653589793 0.65 1.3 0 0.8 0.9 0 0.95 0.9 0 0.95 2.0 -0.65 2.0 -0.65

# NVE ensemble
#fix 1 all nve/dot
fix 1 all nve/dotc/langevin ${T} ${T} 0.03 457145 angmom 10
fix 1 all nve/dotc/langevin 0.1 ${T} 0.03 457145 angmom 10
fix 1 all nve/dotc/langevin 0.1 0.1 0.03 457145 angmom 10
#fix 1 all nve/asphere
#fix 2 all langevin ${T} ${T} 0.03 457145 angmom 10

timestep 1e-5

#comm_style tiled
#fix 3 all balance 10000 1.1 rcb

#compute mol all chunk/atom molecule
#compute mychunk all vcm/chunk mol
#fix 4 all ave/time 10000 1 10000 c_mychunk[1] c_mychunk[2] c_mychunk[3] file vcm.txt mode vector

#dump pos all xyz ${ofreq} traj.${number}.xyz

#compute quat all property/atom quatw quati quatj quatk
#dump quat all custom ${ofreq} quat.${number}.txt id c_quat[1] c_quat[2] c_quat[3] c_quat[4]
#dump_modify quat sort id
#dump_modify quat format line "%d  %13.6le  %13.6le  %13.6le  %13.6le"

compute erot all erotate/asphere
compute ekin all ke
compute epot all pe
variable erot equal c_erot
variable ekin equal c_ekin
variable epot equal c_epot
variable etot equal c_erot+c_ekin+c_epot
fix 5 all print ${efreq} "$(step)  ekin = ${ekin} |  erot = ${erot} | epot = ${epot} | etot = ${etot}" screen yes
fix 5 all print 1000 "$(step)  ekin = ${ekin} |  erot = ${erot} | epot = ${epot} | etot = ${etot}" screen yes

#dump out all custom ${ofreq} out.${number}.txt id x y z vx vy vz fx fy fz tqx tqy tqz
#dump_modify out sort id
#dump_modify out format line "%d   %13.6le %13.6le %13.6le  %13.6le %13.6le %13.6le  %13.6le %13.6le %13.6le  %13.6le %13.6le %13.6le"

run 1000000
Neighbor list info ...
  update every 1 steps, delay 0 steps, check yes
  max neighbors/atom: 2000, page size: 100000
  master list distance cutoff = 1.92828
  ghost atom cutoff = 1.92828
  binsize = 0.964142, bins = 42 42 42
  5 neighbor lists, perpetual/occasional/extra = 5 0 0
  (1) pair oxdna/excv, perpetual
      attributes: half, newton off
      pair build: half/bin/newtoff
      stencil: half/bin/3d/newtoff
      bin: standard
  (2) pair oxdna/stk, perpetual, copy from (1)
      attributes: half, newton off
      pair build: copy
      stencil: none
      bin: none
  (3) pair oxdna/hbond, perpetual, copy from (1)
      attributes: half, newton off
      pair build: copy
      stencil: none
      bin: none
  (4) pair oxdna/xstk, perpetual, copy from (1)
      attributes: half, newton off
      pair build: copy
      stencil: none
      bin: none
  (5) pair oxdna/coaxstk, perpetual, copy from (1)
      attributes: half, newton off
      pair build: copy
      stencil: none
      bin: none
Per MPI rank memory allocation (min/avg/max) = 2.861 | 2.861 | 2.861 Mbytes
Step Temp E_pair E_mol TotEng Press 
       0            0   -1.5402493 0.0070469125   -1.5332024 6.0760034e-06 
1000  ekin = 1.54234964773389 |  erot = 1.71563526070267 | epot = -24.5477045187653 | etot = -21.2897196103287
2000  ekin = 1.85988866919215 |  erot = 1.9424302796508 | epot = -24.4843044999595 | etot = -20.6819855511165
3000  ekin = 2.68354339452998 |  erot = 2.14216528317607 | epot = -24.4019350693561 | etot = -19.57622639165
4000  ekin = 2.04461800191989 |  erot = 1.49015219763161 | epot = -24.2959428773347 | etot = -20.7611726777832
5000  ekin = 1.76794859210155 |  erot = 2.54289684465819 | epot = -24.2337587736863 | etot = -19.9229133369266
6000  ekin = 3.1106424806079 |  erot = 2.04409805200893 | epot = -24.1585729744133 | etot = -19.0038324417964
7000  ekin = 3.21360097519306 |  erot = 2.71941303605722 | epot = -24.0566262531609 | etot = -18.1236122419107
8000  ekin = 2.82489935901743 |  erot = 2.66790555575695 | epot = -24.0194805097633 | etot = -18.526675594989
9000  ekin = 2.69381302856378 |  erot = 2.59107820129446 | epot = -23.9216126050554 | etot = -18.6367213751972
10000  ekin = 2.65765007662471 |  erot = 1.95562671446597 | epot = -23.7978334881241 | etot = -19.1845566970334
11000  ekin = 2.33860420545645 |  erot = 2.067780391377 | epot = -23.6589739475584 | etot = -19.2525893507249
12000  ekin = 2.71377849618258 |  erot = 2.08757199120023 | epot = -23.5483571834756 | etot = -18.7470066960928
13000  ekin = 2.62930153930326 |  erot = 2.36926332727578 | epot = -23.4509629615768 | etot = -18.4523980949977
14000  ekin = 3.08200416316113 |  erot = 2.52340746291244 | epot = -23.3378147651053 | etot = -17.7324031390317
15000  ekin = 2.98008664779269 |  erot = 1.871644860882 | epot = -23.1940665570191 | etot = -18.3423350483444
16000  ekin = 2.18422481774796 |  erot = 2.13029325858584 | epot = -23.0709946755646 | etot = -18.7564765992308
17000  ekin = 1.86029951221073 |  erot = 2.30856215831156 | epot = -22.9148241979648 | etot = -18.7459625274425
18000  ekin = 2.26757205264074 |  erot = 1.23282183419698 | epot = -22.7667657090377 | etot = -19.2663718222
19000  ekin = 2.39717301992408 |  erot = 2.43814713185077 | epot = -22.6249045514987 | etot = -17.7895843997239
20000  ekin = 2.4972090427325 |  erot = 2.14695469209109 | epot = -22.4687873897505 | etot = -17.824623654927
21000  ekin = 2.97591775854817 |  erot = 2.40996811711195 | epot = -22.580475447988 | etot = -17.1945895723278
22000  ekin = 3.04727168578733 |  erot = 1.83825256427932 | epot = -22.6695853833015 | etot = -17.7840611332348
23000  ekin = 2.64835731773193 |  erot = 2.22162785501705 | epot = -22.6565689169972 | etot = -17.7865837442483
24000  ekin = 2.64866576787001 |  erot = 2.80157082833922 | epot = -22.6222797420052 | etot = -17.172043145796
25000  ekin = 2.29527970143855 |  erot = 2.22049811939069 | epot = -22.6228421013006 | etot = -18.1070642804714
26000  ekin = 1.6242512251805 |  erot = 2.52390475262917 | epot = -22.6746055892862 | etot = -18.5264496114765
27000  ekin = 1.74746467550781 |  erot = 3.7138606202505 | epot = -22.7150312690973 | etot = -17.253705973339
28000  ekin = 2.26500128280479 |  erot = 2.34791343563183 | epot = -22.7926648585827 | etot = -18.179750140146
29000  ekin = 2.04774074424512 |  erot = 1.86347261547111 | epot = -22.8081204933408 | etot = -18.8969071336246
30000  ekin = 2.41140146125466 |  erot = 1.86296915421469 | epot = -22.7764612164305 | etot = -18.5020906009612
31000  ekin = 2.76447800297261 |  erot = 2.7393253404681 | epot = -22.7808698156252 | etot = -17.2770664721845
32000  ekin = 2.08103539953574 |  erot = 2.81216171106146 | epot = -22.8081908465747 | etot = -17.9149937359775
33000  ekin = 2.08672340074227 |  erot = 3.65510023442519 | epot = -22.7575363468642 | etot = -17.0157127116967
34000  ekin = 2.34180742039869 |  erot = 3.10027175201874 | epot = -22.6657421559553 | etot = -17.2236629835378
35000  ekin = 2.32430602395272 |  erot = 2.01607522370048 | epot = -22.5813705492547 | etot = -18.2409893016015
36000  ekin = 1.91917507775106 |  erot = 1.97289747304336 | epot = -22.481118994336 | etot = -18.5890464435416
37000  ekin = 1.57560528527468 |  erot = 2.63029511887642 | epot = -22.4456699464305 | etot = -18.2397695422794
38000  ekin = 2.20652731867584 |  erot = 2.89671984141264 | epot = -22.3965902387972 | etot = -17.2933430787087
39000  ekin = 2.54765822667968 |  erot = 2.47352619735437 | epot = -22.3525131983352 | etot = -17.3313287743012
40000  ekin = 2.24172560748699 |  erot = 1.87314319107769 | epot = -22.3791956830638 | etot = -18.2643268844991
41000  ekin = 2.45176361826215 |  erot = 2.49992612251747 | epot = -22.4441192111887 | etot = -17.492429470409
42000  ekin = 2.68254780786499 |  erot = 2.04382131696989 | epot = -22.4352265851614 | etot = -17.7088574603266
43000  ekin = 2.39383336858508 |  erot = 1.66587291396325 | epot = -22.4337243898148 | etot = -18.3740181072664
44000  ekin = 2.30758870966958 |  erot = 2.39381816537748 | epot = -22.4636201484766 | etot = -17.7622132734295
45000  ekin = 1.84308929771583 |  erot = 2.25880380151546 | epot = -22.5697712917435 | etot = -18.4678781925122
46000  ekin = 1.98608215049724 |  erot = 3.02136983211363 | epot = -22.5606085774834 | etot = -17.5531565948725
47000  ekin = 1.31457586857024 |  erot = 1.99780932836913 | epot = -22.5522289127255 | etot = -19.2398437157862
48000  ekin = 2.59855199680394 |  erot = 1.90772345027383 | epot = -22.5972680906756 | etot = -18.0909926435978
49000  ekin = 2.32140483916261 |  erot = 2.72932938830521 | epot = -22.6070371995253 | etot = -17.5563029720575
50000  ekin = 2.48248035385828 |  erot = 3.42713570109107 | epot = -22.5294064222472 | etot = -16.6197903672979
51000  ekin = 2.73677705777971 |  erot = 1.43285265191038 | epot = -22.4272695862992 | etot = -18.2576398766091
52000  ekin = 3.03746109762767 |  erot = 1.97878223690383 | epot = -22.4105817052324 | etot = -17.3943383707009
53000  ekin = 2.4689045601064 |  erot = 4.26434186327668 | epot = -22.4059567857723 | etot = -15.6727103623892
54000  ekin = 2.48025904071626 |  erot = 2.36957879662632 | epot = -22.4049729842648 | etot = -17.5551351469222
55000  ekin = 2.28269445417385 |  erot = 1.92149293107792 | epot = -22.4643082993723 | etot = -18.2601209141205
56000  ekin = 2.36225428889468 |  erot = 2.21818002425493 | epot = -22.5516502452859 | etot = -17.9712159321363
57000  ekin = 2.5222034650231 |  erot = 2.87044520913643 | epot = -22.6517599833465 | etot = -17.259111309187
58000  ekin = 2.50677816066749 |  erot = 2.80087142998998 | epot = -22.7046490897181 | etot = -17.3969994990606
59000  ekin = 2.7442153349817 |  erot = 2.17375311266844 | epot = -22.7630968852437 | etot = -17.8451284375935
60000  ekin = 3.28881699963202 |  erot = 1.98491245229834 | epot = -22.7493813857704 | etot = -17.47565193384
61000  ekin = 2.42749732003947 |  erot = 1.80500042748845 | epot = -22.6954080097403 | etot = -18.4629102622124
62000  ekin = 2.82051548232979 |  erot = 1.69220614985812 | epot = -22.5840860651657 | etot = -18.0713644329778
63000  ekin = 3.66818847100113 |  erot = 1.91510536540651 | epot = -22.4235299160084 | etot = -16.8402360796008
64000  ekin = 3.60192162647095 |  erot = 3.02302140162941 | epot = -22.4028966408394 | etot = -15.777953612739
65000  ekin = 3.37797300912952 |  erot = 3.90646944425564 | epot = -22.3508227873685 | etot = -15.0663803339833
66000  ekin = 2.90796062513305 |  erot = 2.46538835419998 | epot = -22.2656130116827 | etot = -16.8922640323497
67000  ekin = 2.57641483706472 |  erot = 2.1063925708314 | epot = -22.1586423836372 | etot = -17.4758349757411
68000  ekin = 2.5516902727465 |  erot = 2.46870040285813 | epot = -22.1454741588102 | etot = -17.1250834832056
69000  ekin = 2.42897294997603 |  erot = 2.86774435615082 | epot = -22.1788582092806 | etot = -16.8821409031537
70000  ekin = 3.08406596014674 |  erot = 2.51171720098584 | epot = -22.2680651617951 | etot = -16.6722820006626
71000  ekin = 2.55052721315253 |  erot = 2.49486492124423 | epot = -22.3940848075589 | etot = -17.3486926731621
72000  ekin = 1.77666138705941 |  erot = 2.52301579845699 | epot = -22.4956655989824 | etot = -18.195988413466
73000  ekin = 1.86857924146303 |  erot = 2.33110810852355 | epot = -22.5401005215029 | etot = -18.3404131715163
74000  ekin = 3.14875320805144 |  erot = 2.12002807961601 | epot = -22.5354282257998 | etot = -17.2666469381323
75000  ekin = 2.60566180511119 |  erot = 2.16421143606062 | epot = -22.5109742574449 | etot = -17.7411010162731
76000  ekin = 1.94500512300058 |  erot = 1.94681992806367 | epot = -22.5134561384461 | etot = -18.6216310873819
77000  ekin = 2.09005510206219 |  erot = 2.13354294429721 | epot = -22.5157248384152 | etot = -18.2921267920558
78000  ekin = 2.48381695181472 |  erot = 2.49598603867482 | epot = -22.449809286019 | etot = -17.4700062955295
79000  ekin = 3.09582217320064 |  erot = 2.46630074007712 | epot = -22.3464652405845 | etot = -16.7843423273068
80000  ekin = 2.51380629427529 |  erot = 1.89207626467031 | epot = -22.2775752521275 | etot = -17.8716926931819
81000  ekin = 2.32322780911516 |  erot = 2.24954513249787 | epot = -22.2655235360186 | etot = -17.6927505944055
82000  ekin = 1.54779729878415 |  erot = 2.01487148845307 | epot = -22.2126473128098 | etot = -18.6499785255726
83000  ekin = 2.24267653112482 |  erot = 3.34721522119025 | epot = -22.2063282117648 | etot = -16.6164364594498
84000  ekin = 2.86948852339533 |  erot = 2.11915315181827 | epot = -22.2055386975617 | etot = -17.2168970223481
85000  ekin = 3.13802387827786 |  erot = 2.93900498543376 | epot = -22.2240733080824 | etot = -16.1470444443708
86000  ekin = 3.46160079449538 |  erot = 2.80798287444336 | epot = -22.2732645073155 | etot = -16.0036808383767
87000  ekin = 3.63139446909085 |  erot = 2.3166794204513 | epot = -22.2567856660101 | etot = -16.308711776468
88000  ekin = 3.15348314879937 |  erot = 2.2785763709033 | epot = -22.2154422326699 | etot = -16.7833827129672
89000  ekin = 3.30271147105659 |  erot = 1.80791256125564 | epot = -22.1564153597823 | etot = -17.04579132747
90000  ekin = 2.42655906518194 |  erot = 2.24507038389518 | epot = -21.9481188512569 | etot = -17.2764894021798
91000  ekin = 1.89051217909395 |  erot = 2.51049066719493 | epot = -21.7877769537306 | etot = -17.3867741074417
92000  ekin = 2.07833668466679 |  erot = 2.218324246302 | epot = -21.6997103074282 | etot = -17.4030493764594
93000  ekin = 1.94321435585196 |  erot = 2.99473985773914 | epot = -21.6748650469777 | etot = -16.7369108333866
94000  ekin = 2.07878576812463 |  erot = 3.37631892101902 | epot = -21.7659932416399 | etot = -16.3108885524963
95000  ekin = 2.10517721407769 |  erot = 2.08345895044788 | epot = -21.8951718799354 | etot = -17.7065357154098
96000  ekin = 2.68821593238919 |  erot = 1.86988637992409 | epot = -21.9622848400866 | etot = -17.4041825277733
97000  ekin = 1.95061152706206 |  erot = 2.81054215683073 | epot = -22.0229813258884 | etot = -17.2618276419957
98000  ekin = 1.98463063611221 |  erot = 2.05732763357977 | epot = -22.0930102039112 | etot = -18.0510519342192
99000  ekin = 2.51292852217217 |  erot = 3.54194472638845 | epot = -22.199088757298 | etot = -16.1442155087374
100000  ekin = 1.8757570387949 |  erot = 2.3690785580876 | epot = -22.348409587438 | etot = -18.1035739905555
101000  ekin = 1.66160772204006 |  erot = 3.59766032223856 | epot = -22.3604908173889 | etot = -17.1012227731103
102000  ekin = 1.62075182718474 |  erot = 3.3442006848817 | epot = -22.3063629504087 | etot = -17.3414104383422
103000  ekin = 2.00871148652538 |  erot = 2.33677124900284 | epot = -22.275557852692 | etot = -17.9300751171637
104000  ekin = 2.04513709976292 |  erot = 2.74664593650967 | epot = -22.2818713634637 | etot = -17.4900883271911
105000  ekin = 1.87027868596139 |  erot = 1.98922389218239 | epot = -22.223503909299 | etot = -18.3640013311552
106000  ekin = 1.71540784443942 |  erot = 1.9177953110688 | epot = -22.2562839843324 | etot = -18.6230808288242
107000  ekin = 2.61024905591622 |  erot = 1.57446439985464 | epot = -22.3171357124015 | etot = -18.1324222566306
108000  ekin = 2.13751756724178 |  erot = 2.18822458113098 | epot = -22.2268794585969 | etot = -17.9011373102241
109000  ekin = 2.24408198608307 |  erot = 2.11438299352724 | epot = -22.076564108576 | etot = -17.7180991289657
110000  ekin = 1.66706562020821 |  erot = 2.50986066169373 | epot = -22.0833343008135 | etot = -17.9064080189116
111000  ekin = 2.30463895640872 |  erot = 2.24982560856989 | epot = -22.0940837732696 | etot = -17.539619208291
112000  ekin = 2.63019524472749 |  erot = 2.43696110420532 | epot = -22.0953344558745 | etot = -17.0281781069417
113000  ekin = 2.42282638113981 |  erot = 3.06190927482913 | epot = -22.1061661458173 | etot = -16.6214304898484
114000  ekin = 2.34214572325658 |  erot = 2.31899235523686 | epot = -22.0941430549288 | etot = -17.4330049764353
115000  ekin = 1.70336449422736 |  erot = 3.10166879044198 | epot = -22.1252095896431 | etot = -17.3201763049738
116000  ekin = 1.51705870113214 |  erot = 2.21425252709695 | epot = -22.1823772627204 | etot = -18.4510660344913
117000  ekin = 1.70129809180508 |  erot = 2.34142425076372 | epot = -22.2067668262467 | etot = -18.1640444836779
118000  ekin = 2.20482827236051 |  erot = 2.3179714809504 | epot = -22.1855414590757 | etot = -17.6627417057647
119000  ekin = 2.54272629601484 |  erot = 2.46528921750297 | epot = -22.2113175246519 | etot = -17.2033020111341
120000  ekin = 1.76640390552554 |  erot = 2.16116304616032 | epot = -22.1536331723646 | etot = -18.2260662206787
121000  ekin = 2.81281157959688 |  erot = 2.31761005518346 | epot = -22.1492969323239 | etot = -17.0188752975435
122000  ekin = 3.25156823587966 |  erot = 3.31679050874322 | epot = -22.2050361016166 | etot = -15.6366773569938
123000  ekin = 2.87462309654081 |  erot = 3.25604816714397 | epot = -22.1785374359393 | etot = -16.0478661722546
124000  ekin = 2.18213410260632 |  erot = 2.77182209342785 | epot = -22.0161464482698 | etot = -17.0621902522356
125000  ekin = 1.85317252616068 |  erot = 1.36623599567638 | epot = -21.8721650279344 | etot = -18.6527565060973
126000  ekin = 2.47747071965844 |  erot = 3.09909384826334 | epot = -21.8840309142636 | etot = -16.3074663463419
127000  ekin = 2.42177426273027 |  erot = 2.35209644429656 | epot = -21.8861939604609 | etot = -17.1123232534341
128000  ekin = 2.76000040231245 |  erot = 1.8231678837239 | epot = -21.8538456680958 | etot = -17.2706773820595
129000  ekin = 2.78355536315491 |  erot = 2.88851981621501 | epot = -21.9251039267855 | etot = -16.2530287474156
130000  ekin = 3.26834278926799 |  erot = 2.56228354573336 | epot = -22.0546105678549 | etot = -16.2239842328536
131000  ekin = 2.64714688907849 |  erot = 2.51107513446137 | epot = -22.0961160192681 | etot = -16.9378939957282
132000  ekin = 2.61847248883524 |  erot = 3.38899164334156 | epot = -22.1218916777659 | etot = -16.1144275455891
133000  ekin = 2.03408861514006 |  erot = 2.87401070790187 | epot = -22.0785989417621 | etot = -17.1704996187202
134000  ekin = 1.64140897264888 |  erot = 1.66986416585675 | epot = -22.0323643102285 | etot = -18.7210911717228
135000  ekin = 2.46650096367446 |  erot = 2.111120611107 | epot = -21.9976572593399 | etot = -17.4200356845585
136000  ekin = 2.32880805911731 |  erot = 3.05940125193231 | epot = -21.8983392007847 | etot = -16.5101298897351
137000  ekin = 2.7601019905106 |  erot = 2.47443779429795 | epot = -21.752125264204 | etot = -16.5175854793954
138000  ekin = 3.30162084678948 |  erot = 1.73084735415554 | epot = -21.7423849642075 | etot = -16.7099167632625
139000  ekin = 2.76669064053124 |  erot = 1.72642745910431 | epot = -21.8898577306654 | etot = -17.3967396310298
140000  ekin = 2.73595287215366 |  erot = 2.46891829250481 | epot = -21.9884857831833 | etot = -16.7836146185249
141000  ekin = 2.79316289615844 |  erot = 2.46753088695597 | epot = -22.0064855648443 | etot = -16.7457917817299
142000  ekin = 3.51694745558129 |  erot = 3.49862438784827 | epot = -21.9623193335451 | etot = -14.9467474901156
143000  ekin = 2.58689934548697 |  erot = 2.04008576044027 | epot = -21.9563338194557 | etot = -17.3293487135285
144000  ekin = 3.72611917000993 |  erot = 3.04855733322793 | epot = -21.9536376487796 | etot = -15.1789611455417
145000  ekin = 3.61191106831147 |  erot = 2.71915407989904 | epot = -21.870542665333 | etot = -15.5394775171225
146000  ekin = 3.85060594912677 |  erot = 2.47210219931339 | epot = -21.8285858153921 | etot = -15.505877666952
147000  ekin = 3.26481933196161 |  erot = 2.06864347299802 | epot = -21.6752809049183 | etot = -16.3418180999587
148000  ekin = 2.47977997895053 |  erot = 1.65169267241014 | epot = -21.4172781734276 | etot = -17.2858055220669
149000  ekin = 2.70771685463074 |  erot = 2.28028425953227 | epot = -21.2324293178539 | etot = -16.2444282036909
150000  ekin = 2.60726181496431 |  erot = 2.88955230103659 | epot = -21.126549406853 | etot = -15.6297352908521
151000  ekin = 2.06865005733849 |  erot = 2.13537039813292 | epot = -21.0304193709383 | etot = -16.8263989154669
152000  ekin = 2.41210154812787 |  erot = 2.60104053370075 | epot = -20.8967777045302 | etot = -15.8836356227016
153000  ekin = 2.12406231442824 |  erot = 2.25444655142795 | epot = -20.9199278716094 | etot = -16.5414190057532
154000  ekin = 2.34622678455546 |  erot = 2.58439374093403 | epot = -21.0040588663533 | etot = -16.0734383408638
155000  ekin = 2.08240965570452 |  erot = 3.02621505767145 | epot = -21.0204738431416 | etot = -15.9118491297656
156000  ekin = 2.04576145796301 |  erot = 3.17151405834467 | epot = -20.8558463949479 | etot = -15.6385708786402
157000  ekin = 2.36459548410747 |  erot = 1.89207417055424 | epot = -20.8025485082277 | etot = -16.545878853566
158000  ekin = 2.16996178916575 |  erot = 2.46547727482113 | epot = -20.8673070433024 | etot = -16.2318679793155
159000  ekin = 2.86272730849306 |  erot = 2.27590841865057 | epot = -20.9710387207245 | etot = -15.8324029935809
160000  ekin = 2.19288173853782 |  erot = 2.36312829884111 | epot = -21.0403123366075 | etot = -16.4843022992286
161000  ekin = 2.14059248149909 |  erot = 2.4287283799048 | epot = -21.1333683100403 | etot = -16.5640474486365
162000  ekin = 1.76077466564934 |  erot = 2.66561836368342 | epot = -21.1782130850259 | etot = -16.7518200556931
163000  ekin = 2.23068698955417 |  erot = 2.02664945757243 | epot = -21.3281780197228 | etot = -17.0708415725963
164000  ekin = 2.75358320318999 |  erot = 1.43717365990088 | epot = -21.4675480212853 | etot = -17.2767911581945
165000  ekin = 2.65171600986478 |  erot = 2.29632253260765 | epot = -21.493178025826 | etot = -16.5451394833536
166000  ekin = 3.27298673277591 |  erot = 2.41252396730596 | epot = -21.4477711984927 | etot = -15.7622604984108
167000  ekin = 3.02574105268454 |  erot = 2.02770436019795 | epot = -21.5236773217566 | etot = -16.4702319088741
168000  ekin = 3.14659813654158 |  erot = 1.8374607941321 | epot = -21.5547269116736 | etot = -16.5706679809999
169000  ekin = 2.22493755697302 |  erot = 2.67175500860652 | epot = -21.4662206077311 | etot = -16.5695280421515
170000  ekin = 2.41921977325643 |  erot = 2.49142716001801 | epot = -21.3123035293873 | etot = -16.4016565961128
171000  ekin = 1.89798915040775 |  erot = 2.39492100285877 | epot = -21.2153991969519 | etot = -16.9224890436853
172000  ekin = 2.86894215563086 |  erot = 3.22914449693158 | epot = -21.1827352206441 | etot = -15.0846485680816
173000  ekin = 2.74888252418688 |  erot = 2.13556434483052 | epot = -21.2166792789418 | etot = -16.3322324099244
174000  ekin = 2.45887587066864 |  erot = 2.23682521338056 | epot = -21.2633056658561 | etot = -16.5676045818069
175000  ekin = 2.84703517745999 |  erot = 2.39381254916381 | epot = -21.2430876358358 | etot = -16.002239909212
176000  ekin = 2.14025231000119 |  erot = 1.89894722702466 | epot = -21.3238321496633 | etot = -17.2846326126375
177000  ekin = 2.5795061901144 |  erot = 2.75365074391219 | epot = -21.3022195274207 | etot = -15.9690625933941
178000  ekin = 1.83122028490793 |  erot = 2.59468068841507 | epot = -21.2483113201278 | etot = -16.8224103468048
179000  ekin = 2.50706581632049 |  erot = 2.3918046623687 | epot = -21.3152464598324 | etot = -16.4163759811432
180000  ekin = 1.88211034410738 |  erot = 2.47063835849692 | epot = -21.4741119346399 | etot = -17.1213632320356
181000  ekin = 1.74209654097779 |  erot = 3.05723824722444 | epot = -21.4808621715442 | etot = -16.681527383342
182000  ekin = 1.55789914013104 |  erot = 2.05767448814763 | epot = -21.423526482018 | etot = -17.8079528537394
183000  ekin = 2.00937540548925 |  erot = 2.80898978674436 | epot = -21.491360735728 | etot = -16.6729955434944
184000  ekin = 2.69285960778353 |  erot = 2.42969439668747 | epot = -21.6024209898208 | etot = -16.4798669853498
185000  ekin = 3.01326925127938 |  erot = 3.19083239326424 | epot = -21.6730258967931 | etot = -15.4689242522495
186000  ekin = 3.2083067153638 |  erot = 2.42899016869201 | epot = -21.7143665695974 | etot = -16.0770696855416
187000  ekin = 2.672906100919 |  erot = 3.41560404715603 | epot = -21.6726605039613 | etot = -15.5841503558862
188000  ekin = 2.89349337388582 |  erot = 3.06258669113775 | epot = -21.6216664732832 | etot = -15.6655864082597
189000  ekin = 2.65435973176118 |  erot = 1.82043381700644 | epot = -21.5604872976485 | etot = -17.0856937488809
190000  ekin = 2.21855159698309 |  erot = 1.84826944038784 | epot = -21.5263477340278 | etot = -17.4595266966569
191000  ekin = 2.26980616064111 |  erot = 2.05944589507645 | epot = -21.4543005141097 | etot = -17.1250484583921
192000  ekin = 2.27219103053707 |  erot = 3.11210788791052 | epot = -21.4899273087562 | etot = -16.1056283903086
193000  ekin = 1.95008147026928 |  erot = 1.89648921534019 | epot = -21.4843079374128 | etot = -17.6377372518033
194000  ekin = 2.45477671526091 |  erot = 2.0272304242676 | epot = -21.3709228769337 | etot = -16.8889157374052
195000  ekin = 3.09567411006595 |  erot = 2.10081767143638 | epot = -21.3012041149762 | etot = -16.1047123334739
196000  ekin = 2.67423122149492 |  erot = 2.50738189755519 | epot = -21.2164124023053 | etot = -16.0347992832552
197000  ekin = 2.50338730962556 |  erot = 2.07349764616723 | epot = -21.041867486922 | etot = -16.4649825311292
198000  ekin = 2.66945928982616 |  erot = 1.79012921820209 | epot = -21.0169215356766 | etot = -16.5573330276483
199000  ekin = 2.53947964790256 |  erot = 2.33176467953655 | epot = -21.0171165577067 | etot = -16.1458722302676
200000  ekin = 2.90451062704866 |  erot = 1.42170066957004 | epot = -21.0113804229743 | etot = -16.6851691263556
201000  ekin = 2.68927776239674 |  erot = 1.56650335894554 | epot = -21.0245916399581 | etot = -16.7688105186158
202000  ekin = 2.2601329351618 |  erot = 2.25401443373177 | epot = -20.9769308007641 | etot = -16.4627834318706
203000  ekin = 2.12073487355488 |  erot = 2.03553028991747 | epot = -20.919035946492 | etot = -16.7627707830197
204000  ekin = 2.11829086582788 |  erot = 1.89731962488617 | epot = -20.9376264283538 | etot = -16.9220159376397
205000  ekin = 1.30964171332167 |  erot = 2.12770406224885 | epot = -20.9991335630718 | etot = -17.5617877875013
206000  ekin = 1.39940057572522 |  erot = 2.24496791209126 | epot = -20.963919219062 | etot = -17.3195507312455
207000  ekin = 1.8871608804017 |  erot = 1.79849326266382 | epot = -21.0552898160204 | etot = -17.3696356729549
208000  ekin = 1.81558541079753 |  erot = 3.24210836817276 | epot = -21.3060144768834 | etot = -16.2483206979131
209000  ekin = 2.79588064252181 |  erot = 2.3467149173832 | epot = -21.4301997554495 | etot = -16.2876041955445
210000  ekin = 3.17544887511567 |  erot = 3.12704516116654 | epot = -21.5100449360932 | etot = -15.2075508998109
211000  ekin = 2.47442327377226 |  erot = 2.0990867711376 | epot = -21.6455723047062 | etot = -17.0720622597963
212000  ekin = 2.36672302145397 |  erot = 1.93445871446419 | epot = -21.7283038297487 | etot = -17.4271220938306
213000  ekin = 1.91045426241161 |  erot = 2.52535628540462 | epot = -21.8158508544504 | etot = -17.3800403066341
214000  ekin = 1.99794025866061 |  erot = 2.49896939492127 | epot = -21.8606548137084 | etot = -17.3637451601266
215000  ekin = 1.97741561009525 |  erot = 3.17667494473254 | epot = -21.8701701582032 | etot = -16.7160796033754
216000  ekin = 1.88829990821377 |  erot = 1.87402623825167 | epot = -21.8343889393413 | etot = -18.0720627928759
217000  ekin = 2.10000293878932 |  erot = 1.95052404495887 | epot = -21.8965404786646 | etot = -17.8460134949164
218000  ekin = 2.34753598782339 |  erot = 1.69695019504401 | epot = -21.8560027679962 | etot = -17.8115165851288
219000  ekin = 2.497223564463 |  erot = 2.20999914485705 | epot = -21.8797649478059 | etot = -17.1725422384859
220000  ekin = 1.75274593087921 |  erot = 3.03992746556406 | epot = -21.8491595252171 | etot = -17.0564861287739
221000  ekin = 1.78874686645809 |  erot = 2.79359542964647 | epot = -21.869798634642 | etot = -17.2874563385375
222000  ekin = 2.63608430516661 |  erot = 2.86817933637385 | epot = -21.8351218383832 | etot = -16.3308581968427
223000  ekin = 3.02706758581511 |  erot = 1.93888641555348 | epot = -21.8582453001765 | etot = -16.8922912988079
224000  ekin = 2.71704451339112 |  erot = 2.42079327531441 | epot = -21.8188420875657 | etot = -16.6810042988601
225000  ekin = 2.04245190508395 |  erot = 3.38216222891907 | epot = -21.8232190868647 | etot = -16.3986049528616
226000  ekin = 2.37968015829255 |  erot = 2.38384696857065 | epot = -21.8913549487127 | etot = -17.1278278218495
227000  ekin = 2.73883397024414 |  erot = 2.62491632372019 | epot = -21.9496900700867 | etot = -16.5859397761223
228000  ekin = 2.06833362780412 |  erot = 2.25049628751225 | epot = -21.9946760345141 | etot = -17.6758461191977
229000  ekin = 1.78618617304217 |  erot = 1.80509591500329 | epot = -22.0671964085329 | etot = -18.4759143204874
230000  ekin = 2.76967283780387 |  erot = 2.22492545317995 | epot = -22.0913590121729 | etot = -17.0967607211891
231000  ekin = 3.15653922952316 |  erot = 2.77099247609325 | epot = -22.0635255129442 | etot = -16.1359938073278
232000  ekin = 1.86633326635991 |  erot = 1.70672288688982 | epot = -22.0959715052869 | etot = -18.5229153520371
233000  ekin = 1.75856846080021 |  erot = 1.55694263125625 | epot = -22.0729289884755 | etot = -18.7574178964191
234000  ekin = 2.32322575892498 |  erot = 2.05793864740336 | epot = -21.9849429433607 | etot = -17.6037785370324
235000  ekin = 1.95327191686568 |  erot = 2.52519338885861 | epot = -21.9357201856672 | etot = -17.4572548799429
236000  ekin = 2.25952484966859 |  erot = 1.90005304846995 | epot = -21.9422471368741 | etot = -17.7826692387355
237000  ekin = 2.49082301609303 |  erot = 2.65327564887437 | epot = -22.0049130762794 | etot = -16.860814411312
238000  ekin = 2.21076048871751 |  erot = 2.74154862479023 | epot = -22.0553236426831 | etot = -17.1030145291754
239000  ekin = 2.71464884454142 |  erot = 2.48739530580561 | epot = -22.0661894571024 | etot = -16.8641453067554
240000  ekin = 3.08961933821573 |  erot = 2.17857064931927 | epot = -21.9596599475175 | etot = -16.6914699599825
241000  ekin = 3.04172562407922 |  erot = 2.64442433974962 | epot = -21.872950064824 | etot = -16.1868001009951
242000  ekin = 2.21355627539455 |  erot = 2.33429157450905 | epot = -21.7850463200938 | etot = -17.2371984701902
243000  ekin = 1.52065138183895 |  erot = 2.81375224845254 | epot = -21.724672004357 | etot = -17.3902683740655
244000  ekin = 1.90352576583831 |  erot = 2.43821138840079 | epot = -21.6320468184555 | etot = -17.2903096642164
245000  ekin = 1.96342069667742 |  erot = 2.61760141174562 | epot = -21.509789944958 | etot = -16.928767836535
246000  ekin = 2.05478829283868 |  erot = 2.42643933263093 | epot = -21.4781109635143 | etot = -16.9968833380447
247000  ekin = 1.54618395739204 |  erot = 2.28537401295509 | epot = -21.4411828355572 | etot = -17.6096248652101
248000  ekin = 1.83924983769609 |  erot = 2.55904554412921 | epot = -21.4587985205918 | etot = -17.0605031387665
249000  ekin = 1.78703007063825 |  erot = 2.03411349475431 | epot = -21.516607560139 | etot = -17.6954639947464
250000  ekin = 1.69317901626952 |  erot = 3.382620023581 | epot = -21.5380480709889 | etot = -16.4622490311384
251000  ekin = 2.13799462687096 |  erot = 3.25868442484789 | epot = -21.5254595658408 | etot = -16.1287805141219
252000  ekin = 2.04357045453396 |  erot = 2.53079336098227 | epot = -21.5456931883614 | etot = -16.9713293728452
253000  ekin = 1.63287738205387 |  erot = 3.20992823373492 | epot = -21.5622010587548 | etot = -16.719395442966
254000  ekin = 2.31269246359595 |  erot = 3.10766702207071 | epot = -21.5505863172024 | etot = -16.1302268315358
255000  ekin = 2.50767926641465 |  erot = 2.76631276495167 | epot = -21.5288449153183 | etot = -16.254852883952
256000  ekin = 1.97163698305487 |  erot = 2.61682132599931 | epot = -21.5273539828767 | etot = -16.9388956738225
257000  ekin = 2.21091422886157 |  erot = 3.2624387389365 | epot = -21.5385504601779 | etot = -16.0651974923798
258000  ekin = 2.0351730783025 |  erot = 1.84693461512361 | epot = -21.6544556001779 | etot = -17.7723479067518
259000  ekin = 2.85718947138204 |  erot = 2.78701165242275 | epot = -21.7587237542941 | etot = -16.1145226304893
260000  ekin = 2.90387286634678 |  erot = 2.18817434737477 | epot = -21.8080383126913 | etot = -16.7159910989698
261000  ekin = 2.76190440948559 |  erot = 2.33968169215532 | epot = -21.8592909726424 | etot = -16.7577048710015
262000  ekin = 3.50919242681178 |  erot = 1.76925994550144 | epot = -21.8779228441577 | etot = -16.5994704718445
263000  ekin = 3.07696270254058 |  erot = 2.41477320555763 | epot = -21.8078566004281 | etot = -16.3161206923299
264000  ekin = 2.26633389925754 |  erot = 2.04161743361595 | epot = -21.8372928128571 | etot = -17.5293414799836
265000  ekin = 1.95747124461577 |  erot = 2.5081300879884 | epot = -21.8490876266416 | etot = -17.3834862940375
266000  ekin = 2.34517905801099 |  erot = 3.31486209922478 | epot = -21.8287737874741 | etot = -16.1687326302383
267000  ekin = 1.74030193361906 |  erot = 2.23366459528059 | epot = -21.699850097441 | etot = -17.7258835685413
268000  ekin = 2.04858677018814 |  erot = 3.28744422098426 | epot = -21.6459408923623 | etot = -16.3099099011899
269000  ekin = 1.93146929709294 |  erot = 2.79280735598121 | epot = -21.549773802712 | etot = -16.8254971496378
270000  ekin = 2.19788894271016 |  erot = 2.64563279687103 | epot = -21.4165389672397 | etot = -16.5730172276585
271000  ekin = 2.21923220579694 |  erot = 3.10768708967444 | epot = -21.2197121954353 | etot = -15.8927928999639
272000  ekin = 2.54992061853163 |  erot = 2.29721880581853 | epot = -21.0816515756819 | etot = -16.2345121513317
273000  ekin = 1.914618407838 |  erot = 2.01420401968473 | epot = -21.0503637141725 | etot = -17.1215412866498
274000  ekin = 1.89671513770876 |  erot = 2.24334386161735 | epot = -21.0967103438301 | etot = -16.9566513445039
275000  ekin = 1.78930707116537 |  erot = 3.09754687865994 | epot = -21.1385700371941 | etot = -16.2517160873688
276000  ekin = 3.37110328153971 |  erot = 2.41957324257529 | epot = -21.0908388312033 | etot = -15.3001623070883
277000  ekin = 2.38921825148496 |  erot = 1.50604988822737 | epot = -21.034620883997 | etot = -17.1393527442847
278000  ekin = 2.51997301930638 |  erot = 2.14026171776896 | epot = -21.0117379332914 | etot = -16.351503196216
279000  ekin = 1.88315206280857 |  erot = 2.37342905263994 | epot = -20.9993757709145 | etot = -16.742794655466
280000  ekin = 2.33534713190787 |  erot = 3.58626468287222 | epot = -20.8573252930133 | etot = -14.9357134782332
281000  ekin = 1.75252641954511 |  erot = 1.7907930540809 | epot = -20.9036528826792 | etot = -17.3603334090531
282000  ekin = 2.26373977259215 |  erot = 3.04032073608633 | epot = -20.8497513702237 | etot = -15.5456908615452
283000  ekin = 2.1783387139443 |  erot = 2.20833158301333 | epot = -20.8002776734785 | etot = -16.4136073765209
284000  ekin = 1.9148667268656 |  erot = 2.21521993135969 | epot = -20.8277491648056 | etot = -16.6976625065804
285000  ekin = 3.15634443167765 |  erot = 1.80033231604849 | epot = -21.0046435881196 | etot = -16.0479668403934
286000  ekin = 3.84877574957331 |  erot = 1.82969969667577 | epot = -21.1628555811447 | etot = -15.4843801348956
287000  ekin = 3.60615742824732 |  erot = 2.91608688151215 | epot = -21.2126952882302 | etot = -14.6904509784708
288000  ekin = 3.19613259393802 |  erot = 1.67736393077137 | epot = -21.1713552834963 | etot = -16.297858758787
289000  ekin = 2.45584885114799 |  erot = 2.77781979747336 | epot = -21.1669115721543 | etot = -15.9332429235329
290000  ekin = 2.74570408981357 |  erot = 2.40443247852242 | epot = -21.1874427766533 | etot = -16.0373062083173
291000  ekin = 2.10295274468233 |  erot = 2.37092484671539 | epot = -21.2419107014544 | etot = -16.7680331100567
292000  ekin = 2.36118713930732 |  erot = 2.05558127949017 | epot = -21.3137361602548 | etot = -16.8969677414573
293000  ekin = 2.2786196308825 |  erot = 2.35874555054765 | epot = -21.4302415460533 | etot = -16.7928763646231
294000  ekin = 2.93315982813019 |  erot = 2.90313008187785 | epot = -21.5210917917479 | etot = -15.6848018817399
295000  ekin = 2.66360761710434 |  erot = 2.28100565751945 | epot = -21.6885021477336 | etot = -16.7438888731098
296000  ekin = 2.18767827164471 |  erot = 2.90589885547353 | epot = -21.7355037190159 | etot = -16.6419265918977
297000  ekin = 2.15987738107365 |  erot = 3.29819575592636 | epot = -21.7177655658756 | etot = -16.2596924288756
298000  ekin = 2.92956976611296 |  erot = 2.36377210613469 | epot = -21.6748271071566 | etot = -16.3814852349089
299000  ekin = 3.19167138064488 |  erot = 2.23480811780853 | epot = -21.8042612344918 | etot = -16.3777817360384
300000  ekin = 3.3133572846982 |  erot = 1.38932157247169 | epot = -21.8799906137235 | etot = -17.1773117565536
301000  ekin = 2.39061971962408 |  erot = 3.30110260608963 | epot = -21.8919200817915 | etot = -16.2001977560778
302000  ekin = 2.954460706029 |  erot = 3.2304815881765 | epot = -21.8557645140423 | etot = -15.6708222198368
303000  ekin = 2.44700205353933 |  erot = 2.60676303242282 | epot = -21.8414046718167 | etot = -16.7876395858546
304000  ekin = 2.23578509140697 |  erot = 2.68770420047938 | epot = -21.7680601199659 | etot = -16.8445708280796
305000  ekin = 2.35505207220215 |  erot = 2.3823003115585 | epot = -21.7344089784493 | etot = -16.9970565946887
306000  ekin = 1.91790567526689 |  erot = 2.90107494003232 | epot = -21.7170004822351 | etot = -16.8980198669359
307000  ekin = 2.48241777758708 |  erot = 2.0836708009946 | epot = -21.6510481218459 | etot = -17.0849595432642
308000  ekin = 2.77531620706104 |  erot = 2.63103510715158 | epot = -21.6349123878086 | etot = -16.2285610735959
309000  ekin = 2.30440955942791 |  erot = 2.1249829765834 | epot = -21.5927938975113 | etot = -17.1634013615
310000  ekin = 2.50879527040005 |  erot = 3.21338829421535 | epot = -21.6043932917725 | etot = -15.8822097271571
311000  ekin = 2.31939145866558 |  erot = 3.03649241514151 | epot = -21.6247503351754 | etot = -16.2688664613683
312000  ekin = 1.78383134659847 |  erot = 3.26262247889992 | epot = -21.4948144284683 | etot = -16.4483606029699
313000  ekin = 1.6465994694839 |  erot = 2.08133087588833 | epot = -21.4920309735611 | etot = -17.7641006281889
314000  ekin = 2.2552391830868 |  erot = 2.55077633299239 | epot = -21.5103692936944 | etot = -16.7043537776152
315000  ekin = 2.5352734391515 |  erot = 2.13089997124613 | epot = -21.5923709217299 | etot = -16.9261975113323
316000  ekin = 1.99944427781285 |  erot = 1.80072924409704 | epot = -21.6039893771529 | etot = -17.803815855243
317000  ekin = 2.11848744585804 |  erot = 2.01459693810075 | epot = -21.5948976630665 | etot = -17.4618132791077
318000  ekin = 2.29013024301854 |  erot = 1.92405818620914 | epot = -21.5643695946921 | etot = -17.3501811654644
319000  ekin = 1.97314693278018 |  erot = 1.67996578959134 | epot = -21.4554808400841 | etot = -17.8023681177126
320000  ekin = 2.45681719546631 |  erot = 3.07835144499744 | epot = -21.3924125538101 | etot = -15.8572439133463
321000  ekin = 1.85729238455498 |  erot = 2.67083565671245 | epot = -21.433818829251 | etot = -16.9056907879836
322000  ekin = 1.96132292396412 |  erot = 3.36792274118279 | epot = -21.3663490830085 | etot = -16.0371034178616
323000  ekin = 1.94437285233567 |  erot = 2.09558156605687 | epot = -21.4151250968679 | etot = -17.3751706784754
324000  ekin = 2.229181524904 |  erot = 2.4674418745061 | epot = -21.532385908563 | etot = -16.8357625091529
325000  ekin = 2.74582842770392 |  erot = 2.36717454305098 | epot = -21.6443544237971 | etot = -16.5313514530422
326000  ekin = 1.91124551133375 |  erot = 1.93084217743114 | epot = -21.7077957426602 | etot = -17.8657080538953
327000  ekin = 3.05627483509655 |  erot = 1.67325209460963 | epot = -21.7948818019128 | etot = -17.0653548722066
328000  ekin = 2.73933273476856 |  erot = 1.92380912803777 | epot = -21.8364014823586 | etot = -17.1732596195523
329000  ekin = 2.95907896099514 |  erot = 3.15654168356681 | epot = -21.898199971646 | etot = -15.7825793270841
330000  ekin = 2.90795110595274 |  erot = 2.01765890034968 | epot = -21.9037795505258 | etot = -16.9781695442234
331000  ekin = 2.27446048340228 |  erot = 2.03754878634056 | epot = -21.8760842049291 | etot = -17.5640749351863
332000  ekin = 2.43262938612094 |  erot = 3.19219171897213 | epot = -21.9305186945662 | etot = -16.3056975894732
333000  ekin = 2.47357651298171 |  erot = 2.70061045814697 | epot = -22.0416691323271 | etot = -16.8674821611985
334000  ekin = 2.38171387374892 |  erot = 3.00424927873366 | epot = -22.0746318522988 | etot = -16.6886686998162
335000  ekin = 2.10465470910016 |  erot = 3.57382014016833 | epot = -22.1175420615632 | etot = -16.4390672122947
336000  ekin = 2.61374577374183 |  erot = 2.13386927281299 | epot = -22.08988251196 | etot = -17.3422674654052
337000  ekin = 2.72124526751511 |  erot = 2.74800480481403 | epot = -22.0768537131621 | etot = -16.607603640833
338000  ekin = 1.83524121485421 |  erot = 2.24338894827196 | epot = -22.1591955034455 | etot = -18.0805653403194
339000  ekin = 1.54928432997334 |  erot = 2.49812246084905 | epot = -22.202239883467 | etot = -18.1548330926446
340000  ekin = 1.44405714940632 |  erot = 4.0451327092417 | epot = -22.1149458734013 | etot = -16.6257560147533
341000  ekin = 1.67447392575555 |  erot = 2.77749751745982 | epot = -22.0760831546714 | etot = -17.624111711456
342000  ekin = 1.9825676117275 |  erot = 2.71655566521084 | epot = -22.1563522566984 | etot = -17.45722897976
343000  ekin = 2.68213676683887 |  erot = 3.16686462846914 | epot = -22.2498477633288 | etot = -16.4008463680208
344000  ekin = 1.77905771753907 |  erot = 2.19153667254074 | epot = -22.2907212723871 | etot = -18.3201268823073
345000  ekin = 1.5460499615042 |  erot = 1.85960255696712 | epot = -22.3447003428977 | etot = -18.9390478244264
346000  ekin = 1.71554664484034 |  erot = 1.79880968736714 | epot = -22.3117022609055 | etot = -18.797345928698
347000  ekin = 1.38672912049481 |  erot = 2.61484473767931 | epot = -22.332503239512 | etot = -18.3309293813379
348000  ekin = 2.15015924850684 |  erot = 2.86300326453563 | epot = -22.3337312775957 | etot = -17.3205687645532
349000  ekin = 1.83066085453602 |  erot = 1.9844132649487 | epot = -22.3967822584585 | etot = -18.5817081389738
350000  ekin = 1.83318738252649 |  erot = 2.56907029661254 | epot = -22.4577827539416 | etot = -18.0555250748026
351000  ekin = 1.72790505260219 |  erot = 2.87456274671834 | epot = -22.5159555107051 | etot = -17.9134877113846
352000  ekin = 2.80786740016944 |  erot = 2.08750448125769 | epot = -22.6549834386892 | etot = -17.7596115572621
353000  ekin = 3.5492801472091 |  erot = 1.42584537334883 | epot = -22.6849212734238 | etot = -17.7097957528659
354000  ekin = 3.49129244374804 |  erot = 2.25156548638802 | epot = -22.604182620693 | etot = -16.861324690557
355000  ekin = 2.06248783371663 |  erot = 2.92733565233054 | epot = -22.5494488364627 | etot = -17.5596253504155
356000  ekin = 2.13415426306312 |  erot = 3.32668319049641 | epot = -22.6122425286523 | etot = -17.1514050750927
357000  ekin = 2.75897049849731 |  erot = 2.51843165594436 | epot = -22.6042888591885 | etot = -17.3268867047468
358000  ekin = 2.51778220496547 |  erot = 2.28374144764325 | epot = -22.5654155469984 | etot = -17.7638918943897
359000  ekin = 3.2037278512604 |  erot = 2.5552016027623 | epot = -22.6749569097326 | etot = -16.91602745571
360000  ekin = 2.52669169359923 |  erot = 1.97563796824025 | epot = -22.7314557612254 | etot = -18.229126099386
361000  ekin = 2.60424632123629 |  erot = 2.51068088850826 | epot = -22.7715023743751 | etot = -17.6565751646306
362000  ekin = 2.43350156723209 |  erot = 3.84566788758402 | epot = -22.7352151098034 | etot = -16.4560456549873
363000  ekin = 2.91069717970492 |  erot = 1.99710098714122 | epot = -22.6302259934474 | etot = -17.7224278266013
364000  ekin = 2.2553832868325 |  erot = 1.87832387363455 | epot = -22.5083625296191 | etot = -18.374655369152
365000  ekin = 2.04575884197224 |  erot = 2.797742068412 | epot = -22.332262738426 | etot = -17.4887618280417
366000  ekin = 2.26894187965217 |  erot = 1.94379382552235 | epot = -22.2788727984906 | etot = -18.0661370933161
367000  ekin = 2.82509630766737 |  erot = 2.50361468767084 | epot = -22.3209381619452 | etot = -16.992227166607
368000  ekin = 2.81542036602322 |  erot = 2.18733627644489 | epot = -22.4297259451244 | etot = -17.4269693026563
369000  ekin = 2.30426035796382 |  erot = 2.85653411706989 | epot = -22.4923286665588 | etot = -17.3315341915251
370000  ekin = 2.67871033327547 |  erot = 2.11464921695177 | epot = -22.578069860797 | etot = -17.7847103105697
371000  ekin = 2.19281044135007 |  erot = 3.60165960664287 | epot = -22.6424730832337 | etot = -16.8480030352407
372000  ekin = 1.77481259468411 |  erot = 3.406547444381 | epot = -22.7147683829008 | etot = -17.5334083438357
373000  ekin = 2.15551547517191 |  erot = 2.7877825236183 | epot = -22.7559497214321 | etot = -17.8126517226419
374000  ekin = 2.71938368055486 |  erot = 3.58127823243842 | epot = -22.9084433694729 | etot = -16.6077814564796
375000  ekin = 2.42759321485976 |  erot = 2.9742127178716 | epot = -22.9740378563778 | etot = -17.5722319236464
376000  ekin = 3.39126830110572 |  erot = 3.24733797625004 | epot = -22.9874015798135 | etot = -16.3487953024578
377000  ekin = 3.20966733323472 |  erot = 2.65934060364476 | epot = -22.9452111216365 | etot = -17.076203184757
378000  ekin = 1.56095946168131 |  erot = 2.66159033944991 | epot = -22.9575870308253 | etot = -18.7350372296941
379000  ekin = 1.9498568748538 |  erot = 2.54085216255828 | epot = -22.9834751642939 | etot = -18.4927661268818
380000  ekin = 2.65820438237073 |  erot = 2.88045867212573 | epot = -22.9984703542083 | etot = -17.4598072997118
381000  ekin = 2.97084599252829 |  erot = 2.18892549461574 | epot = -23.0341895570111 | etot = -17.8744180698671
382000  ekin = 2.61355176942653 |  erot = 2.02938704043227 | epot = -23.00841197151 | etot = -18.3654731616512
383000  ekin = 2.03830671072154 |  erot = 2.50516194855525 | epot = -23.0393965606452 | etot = -18.4959279013684
384000  ekin = 2.1060608733416 |  erot = 2.2184025045895 | epot = -23.0602182522593 | etot = -18.7357548743282
385000  ekin = 1.89114918519107 |  erot = 1.63701051320103 | epot = -23.0834434146806 | etot = -19.5552837162885
386000  ekin = 1.55124380123707 |  erot = 1.36147797265396 | epot = -23.1300518396949 | etot = -20.2173300658039
387000  ekin = 2.19627825752355 |  erot = 1.75751396098972 | epot = -23.1280875332419 | etot = -19.1742953147287
388000  ekin = 1.96387084539616 |  erot = 1.95852585326804 | epot = -23.0327752892415 | etot = -19.1103785905773
389000  ekin = 2.50801560941705 |  erot = 2.32519825784836 | epot = -23.0011464671235 | etot = -18.1679325998581
390000  ekin = 2.03596866068489 |  erot = 1.88295618907177 | epot = -22.8810338311575 | etot = -18.9621089814009
391000  ekin = 1.8098591016452 |  erot = 2.39622167162874 | epot = -22.81955664632 | etot = -18.613475873046
392000  ekin = 2.17725370142733 |  erot = 2.87094426544089 | epot = -22.7839731045438 | etot = -17.7357751376756
393000  ekin = 2.14224634181997 |  erot = 3.17242974303658 | epot = -22.8435025538357 | etot = -17.5288264689792
394000  ekin = 1.97769550804367 |  erot = 2.16375300420729 | epot = -22.8342667825711 | etot = -18.6928182703201
395000  ekin = 2.03687268736298 |  erot = 2.49567469731651 | epot = -22.8892034986303 | etot = -18.3566561139508
396000  ekin = 2.16189109047463 |  erot = 1.95308746486161 | epot = -22.9781386034885 | etot = -18.8631600481523
397000  ekin = 2.41744222422408 |  erot = 1.65310699287476 | epot = -23.0900453292844 | etot = -19.0194961121856
398000  ekin = 3.58905654436294 |  erot = 2.51930256503331 | epot = -23.2070733343384 | etot = -17.0987142249422
399000  ekin = 2.65051654249497 |  erot = 1.78138450529865 | epot = -23.3040478764215 | etot = -18.8721468286279
400000  ekin = 2.49402752614129 |  erot = 2.10290777432183 | epot = -23.3608759462318 | etot = -18.7639406457687
401000  ekin = 2.04176177605462 |  erot = 2.154995213856 | epot = -23.4039603394011 | etot = -19.2072033494905
402000  ekin = 2.44505875861459 |  erot = 2.11318097973378 | epot = -23.3975262709888 | etot = -18.8392865326404
403000  ekin = 2.54858079745147 |  erot = 2.81138206601919 | epot = -23.476064698677 | etot = -18.1161018352063
404000  ekin = 2.21063952462117 |  erot = 2.64710865829565 | epot = -23.574696037266 | etot = -18.7169478543492
405000  ekin = 2.47328118101332 |  erot = 2.40933750599425 | epot = -23.5927917139469 | etot = -18.7101730269393
406000  ekin = 2.24891173527799 |  erot = 2.23777884116047 | epot = -23.6086191890417 | etot = -19.1219286126032
407000  ekin = 2.0107940045037 |  erot = 2.78642832526904 | epot = -23.5246032469978 | etot = -18.727380917225
408000  ekin = 2.59464051790823 |  erot = 2.59123578102097 | epot = -23.4198302602656 | etot = -18.2339539613364
409000  ekin = 2.37170880608734 |  erot = 2.26136902851213 | epot = -23.317258193724 | etot = -18.6841803591245
410000  ekin = 1.99754661347185 |  erot = 1.95523998485755 | epot = -23.2950402043273 | etot = -19.3422536059979
411000  ekin = 1.8693657058423 |  erot = 2.63899492681176 | epot = -23.2490367633041 | etot = -18.74067613065
412000  ekin = 1.98214047746227 |  erot = 2.68315820775202 | epot = -23.1987357483281 | etot = -18.5334370631139
413000  ekin = 2.39078873487373 |  erot = 2.65589562872907 | epot = -23.1435198518627 | etot = -18.0968354882599
414000  ekin = 2.40821090859775 |  erot = 1.75574324408225 | epot = -23.0725048141377 | etot = -18.9085506614577
415000  ekin = 2.74601981183015 |  erot = 2.43675176686816 | epot = -23.1211711904486 | etot = -17.9383996117503
416000  ekin = 2.08828454200993 |  erot = 2.76783506526218 | epot = -23.1383119239965 | etot = -18.2821923167244
417000  ekin = 2.01455344430628 |  erot = 1.95306265456051 | epot = -23.1433633505287 | etot = -19.1757472516619
418000  ekin = 2.42716528853985 |  erot = 2.57642821145486 | epot = -23.127531797131 | etot = -18.1239382971363
419000  ekin = 3.04095103685797 |  erot = 2.58427576972734 | epot = -23.0602279332617 | etot = -17.4350011266764
420000  ekin = 2.6360746280152 |  erot = 2.44478111019393 | epot = -22.982092315172 | etot = -17.9012365769629
421000  ekin = 2.53019765722915 |  erot = 1.78389585255477 | epot = -22.9707435541329 | etot = -18.6566500443489
422000  ekin = 2.72457425772367 |  erot = 1.67768634886349 | epot = -22.9542997027495 | etot = -18.5520390961623
423000  ekin = 2.11402997037893 |  erot = 2.55034580375608 | epot = -22.8263851956497 | etot = -18.1620094215147
424000  ekin = 1.8895880210325 |  erot = 2.31332431343561 | epot = -22.772666888172 | etot = -18.5697545537039
425000  ekin = 2.3595116370971 |  erot = 1.95762380637298 | epot = -22.7752082759346 | etot = -18.4580728324645
426000  ekin = 2.23706657164627 |  erot = 2.60016134755148 | epot = -22.7844114251539 | etot = -17.9471835059562
427000  ekin = 1.88801598248841 |  erot = 2.12415782350886 | epot = -22.9416586386639 | etot = -18.9294848326666
428000  ekin = 1.92849031333042 |  erot = 2.44097902588716 | epot = -23.0611368174399 | etot = -18.6916674782223
429000  ekin = 1.70536802258415 |  erot = 2.14916257389792 | epot = -23.0556586745393 | etot = -19.2011280780572
430000  ekin = 2.30226095973205 |  erot = 2.14689932813604 | epot = -23.0606502516208 | etot = -18.6114899637527
431000  ekin = 2.45988288454318 |  erot = 2.42278380298657 | epot = -23.0729777223881 | etot = -18.1903110348583
432000  ekin = 2.80869332724974 |  erot = 2.19954129490925 | epot = -23.0939746542044 | etot = -18.0857400320454
433000  ekin = 2.21130556188282 |  erot = 1.62882156110628 | epot = -23.1534080352157 | etot = -19.3132809122266
434000  ekin = 2.60574953870752 |  erot = 2.36088790768803 | epot = -23.1901717047879 | etot = -18.2235342583923
435000  ekin = 2.30377529593091 |  erot = 2.53917715731259 | epot = -23.1716983948432 | etot = -18.3287459415997
436000  ekin = 2.42707603554825 |  erot = 2.75234181061924 | epot = -23.2197996577197 | etot = -18.0403818115522
437000  ekin = 1.65090540276074 |  erot = 3.25345231298367 | epot = -23.2216366145388 | etot = -18.3172788987944
438000  ekin = 1.56145302974407 |  erot = 2.60950810563796 | epot = -23.1303770792278 | etot = -18.9594159438458
439000  ekin = 2.30955439722234 |  erot = 1.94011743371103 | epot = -23.1353170794497 | etot = -18.8856452485163
440000  ekin = 2.53037674867674 |  erot = 3.0652704286103 | epot = -23.196858945292 | etot = -17.601211768005
441000  ekin = 2.80107707952534 |  erot = 2.53664155736544 | epot = -23.1712373428919 | etot = -17.8335187060011
442000  ekin = 2.92536323090713 |  erot = 2.88384500930017 | epot = -23.1123001627208 | etot = -17.3030919225135
443000  ekin = 1.96543935969482 |  erot = 1.753449631552 | epot = -23.0380529084377 | etot = -19.3191639171909
444000  ekin = 2.00309477401363 |  erot = 2.23897509587739 | epot = -22.9472103119533 | etot = -18.7051404420623
445000  ekin = 2.20302071819722 |  erot = 2.06928381371828 | epot = -22.7775434364172 | etot = -18.5052389045017
446000  ekin = 2.43487889302299 |  erot = 2.37751556007798 | epot = -22.6838190597697 | etot = -17.8714246066687
447000  ekin = 2.2620819636031 |  erot = 2.41400188145197 | epot = -22.7082516636546 | etot = -18.0321678185995
448000  ekin = 2.16184472791984 |  erot = 1.93539407204278 | epot = -22.8144859493263 | etot = -18.7172471493637
449000  ekin = 2.21107967973114 |  erot = 2.34659682978741 | epot = -22.9059503054159 | etot = -18.3482737958974
450000  ekin = 2.74677740004439 |  erot = 1.97222921372039 | epot = -22.860755926716 | etot = -18.1417493129513
451000  ekin = 2.2050889378155 |  erot = 2.13042736119389 | epot = -22.8862608894796 | etot = -18.5507445904702
452000  ekin = 2.52760608607095 |  erot = 2.34006815636601 | epot = -22.9138111972133 | etot = -18.0461369547763
453000  ekin = 2.23448825172916 |  erot = 1.77834418215733 | epot = -22.8879238301791 | etot = -18.8750913962926
454000  ekin = 2.4343851915949 |  erot = 2.59700848533281 | epot = -22.8184361849036 | etot = -17.7870425079759
455000  ekin = 2.04195793930991 |  erot = 2.79639043747681 | epot = -22.6032980500354 | etot = -17.7649496732487
456000  ekin = 2.00799933710202 |  erot = 2.53653815407518 | epot = -22.4355596266522 | etot = -17.891022135475
457000  ekin = 2.60426208759883 |  erot = 2.46609612876191 | epot = -22.3409120082078 | etot = -17.270553791847
458000  ekin = 2.01368468059037 |  erot = 1.9961381624531 | epot = -22.2549400327205 | etot = -18.2451171896771
459000  ekin = 1.73688781588865 |  erot = 2.48572034306896 | epot = -22.2282088298767 | etot = -18.0056006709191
460000  ekin = 1.91682575775988 |  erot = 2.08308677023944 | epot = -22.2211874714416 | etot = -18.2212749434423
461000  ekin = 1.54933673126938 |  erot = 1.29454502815255 | epot = -22.1945151049368 | etot = -19.3506333455148
462000  ekin = 2.44160489340629 |  erot = 1.34721473707676 | epot = -22.284671307697 | etot = -18.495851677214
463000  ekin = 2.63165365707667 |  erot = 2.08143760128039 | epot = -22.4004513395625 | etot = -17.6873600812055
464000  ekin = 2.67929276186416 |  erot = 3.72563793061087 | epot = -22.5200042545289 | etot = -16.1150735620538
465000  ekin = 1.94880111369479 |  erot = 2.23148844819348 | epot = -22.685554296329 | etot = -18.5052647344407
466000  ekin = 2.13853049638891 |  erot = 2.95056624305957 | epot = -22.7822881705531 | etot = -17.6931914311046
467000  ekin = 2.46452767169615 |  erot = 2.1077848077008 | epot = -22.9485753844866 | etot = -18.3762629050896
468000  ekin = 1.98589158006998 |  erot = 1.62816092182055 | epot = -23.0180008829524 | etot = -19.4039483810618
469000  ekin = 2.498810820967 |  erot = 2.6361546272592 | epot = -23.0547833968841 | etot = -17.9198179486579
470000  ekin = 2.91491361681313 |  erot = 3.19115611298998 | epot = -23.0448741101699 | etot = -16.9388043803668
471000  ekin = 2.37554627514204 |  erot = 1.71739792236247 | epot = -22.9932329645513 | etot = -18.9002887670468
472000  ekin = 2.18486807923518 |  erot = 2.00687069908099 | epot = -22.9563182572702 | etot = -18.764579478954
473000  ekin = 2.36185345820899 |  erot = 2.86259041401023 | epot = -22.9161024426125 | etot = -17.6916585703933
474000  ekin = 2.17077693495272 |  erot = 2.59376596740919 | epot = -22.7894018760352 | etot = -18.0248589736733
475000  ekin = 2.37844153079293 |  erot = 2.01112751381907 | epot = -22.6793191497969 | etot = -18.2897501051849
476000  ekin = 2.0876367643964 |  erot = 2.59647624455221 | epot = -22.6700039875052 | etot = -17.9858909785566
477000  ekin = 2.52249432714936 |  erot = 3.55251934739867 | epot = -22.6424099194916 | etot = -16.5673962449436
478000  ekin = 2.40424947791157 |  erot = 2.7323911725861 | epot = -22.544776325228 | etot = -17.4081356747303
479000  ekin = 1.27637524434413 |  erot = 2.99749792697945 | epot = -22.4994949498981 | etot = -18.2256217785745
480000  ekin = 1.81374950293817 |  erot = 2.14389317135939 | epot = -22.4678405170784 | etot = -18.5101978427809
481000  ekin = 2.39496774186199 |  erot = 3.18299441824521 | epot = -22.4930736763177 | etot = -16.9151115162105
482000  ekin = 3.21051763720184 |  erot = 2.40962326270833 | epot = -22.4479376181304 | etot = -16.8277967182202
483000  ekin = 3.06081116762377 |  erot = 2.49856996934407 | epot = -22.4288948733283 | etot = -16.8695137363604
484000  ekin = 2.7452293328759 |  erot = 2.53012629993099 | epot = -22.483756332919 | etot = -17.2084007001121
485000  ekin = 3.33103095180521 |  erot = 2.42091818181918 | epot = -22.4922555047182 | etot = -16.7403063710938
486000  ekin = 1.99323479363108 |  erot = 1.76127718142275 | epot = -22.5432098594131 | etot = -18.7886978843593
487000  ekin = 2.64825718911654 |  erot = 2.50204426232017 | epot = -22.6407366935241 | etot = -17.4904352420874
488000  ekin = 1.76385891719471 |  erot = 2.64266555173498 | epot = -22.6990728058786 | etot = -18.2925483369489
489000  ekin = 2.10357630534276 |  erot = 2.95613916443127 | epot = -22.7877124402073 | etot = -17.7279969704332
490000  ekin = 2.33515649128314 |  erot = 2.32995416999058 | epot = -22.7920703811403 | etot = -18.1269597198666
491000  ekin = 2.48752587426647 |  erot = 2.58310949760555 | epot = -22.7834811495388 | etot = -17.7128457776668
492000  ekin = 3.29820665204489 |  erot = 2.18682924183924 | epot = -22.7674519489923 | etot = -17.2824160551082
493000  ekin = 3.40238156707506 |  erot = 2.35717041222451 | epot = -22.7149408840448 | etot = -16.9553889047452
494000  ekin = 3.59348050162499 |  erot = 2.23182460532058 | epot = -22.7081682295491 | etot = -16.8828631226035
495000  ekin = 2.52030309238562 |  erot = 2.16229430067423 | epot = -22.6973031832711 | etot = -18.0147057902113
496000  ekin = 1.96100991422337 |  erot = 3.58581695215166 | epot = -22.7342002900882 | etot = -17.1873734237132
497000  ekin = 2.2228647925968 |  erot = 2.49495319949133 | epot = -22.752706201593 | etot = -18.0348882095048
498000  ekin = 1.71033952564695 |  erot = 2.41331591511584 | epot = -22.7131621100867 | etot = -18.589506669324
499000  ekin = 2.41919864300729 |  erot = 2.82349519531821 | epot = -22.7304918052927 | etot = -17.4877979669672
500000  ekin = 2.76271068346558 |  erot = 2.22796445937143 | epot = -22.810945568044 | etot = -17.820270425207
501000  ekin = 2.97642553987186 |  erot = 1.97769778889399 | epot = -22.8306304048616 | etot = -17.8765070760957
502000  ekin = 2.96175345860856 |  erot = 1.80859086419487 | epot = -22.8525538190094 | etot = -18.082209496206
503000  ekin = 2.51126831088417 |  erot = 2.88572311841927 | epot = -22.8673362278446 | etot = -17.4703447985412
504000  ekin = 2.84611165351303 |  erot = 2.67626783872459 | epot = -22.784891957601 | etot = -17.2625124653634
505000  ekin = 2.96124584448914 |  erot = 2.59100575301934 | epot = -22.8251284225258 | etot = -17.2728768250174
506000  ekin = 2.19858217910528 |  erot = 1.97142936872076 | epot = -22.8530995461462 | etot = -18.6830879983201
507000  ekin = 2.27398115142402 |  erot = 2.68837996151517 | epot = -22.8141163798141 | etot = -17.8517552668749
508000  ekin = 2.64439339973837 |  erot = 2.04756467869449 | epot = -22.8146247157345 | etot = -18.1226666373017
509000  ekin = 2.96023637315629 |  erot = 2.90549934754532 | epot = -22.8719625385967 | etot = -17.0062268178951
510000  ekin = 2.26067558634546 |  erot = 2.80864918519521 | epot = -22.9774448292236 | etot = -17.9081200576829
511000  ekin = 2.88512738978599 |  erot = 2.15263877534437 | epot = -23.086672848248 | etot = -18.0489066831176
512000  ekin = 2.17783748155516 |  erot = 2.31389139764186 | epot = -23.1520181882638 | etot = -18.6602893090668
513000  ekin = 1.69717952556151 |  erot = 2.88265468656805 | epot = -23.1640284548407 | etot = -18.5841942427111
514000  ekin = 1.72432024724117 |  erot = 2.32742209152174 | epot = -23.1602225830814 | etot = -19.1084802443185
515000  ekin = 2.00525337522086 |  erot = 1.80102864435032 | epot = -23.1548763180746 | etot = -19.3485942985034
516000  ekin = 3.04706172157038 |  erot = 1.54171785431326 | epot = -23.1202751246552 | etot = -18.5314955487716
517000  ekin = 2.47323892251936 |  erot = 2.10799615007355 | epot = -23.0942246440307 | etot = -18.5129895714378
518000  ekin = 2.03556879740597 |  erot = 2.51531294708502 | epot = -23.01998934344 | etot = -18.4691075989491
519000  ekin = 1.59255614728459 |  erot = 1.63520468579907 | epot = -22.9787913166931 | etot = -19.7510304836094
520000  ekin = 2.17210761761845 |  erot = 1.8975366735392 | epot = -22.9877149955356 | etot = -18.918070704378
521000  ekin = 1.98466680078867 |  erot = 2.09219045542651 | epot = -23.0348541858322 | etot = -18.9579969296171
522000  ekin = 2.72098469914434 |  erot = 2.19565658619456 | epot = -23.1001210576502 | etot = -18.1834797723113
523000  ekin = 2.26033454380754 |  erot = 1.67112114369622 | epot = -23.1475509854345 | etot = -19.2160952979307
524000  ekin = 2.34603831546138 |  erot = 2.1054661011949 | epot = -23.1746761633773 | etot = -18.723171746721
525000  ekin = 2.13671314300235 |  erot = 2.07172081705863 | epot = -23.241177743004 | etot = -19.032743782943
526000  ekin = 2.50849953901566 |  erot = 2.27662230434506 | epot = -23.3179050583979 | etot = -18.5327832150372
527000  ekin = 3.04322527932213 |  erot = 1.8128057083239 | epot = -23.3977373118239 | etot = -18.5417063241779
528000  ekin = 2.572303182379 |  erot = 2.54386055260816 | epot = -23.4208428708383 | etot = -18.3046791358511
529000  ekin = 2.39361269633634 |  erot = 1.91637577362227 | epot = -23.3966015599491 | etot = -19.0866130899905
530000  ekin = 3.3562937907424 |  erot = 3.41683815876463 | epot = -23.2977853851852 | etot = -16.5246534356781
531000  ekin = 2.52741741752381 |  erot = 2.34075342407645 | epot = -23.1721175623278 | etot = -18.3039467207275
532000  ekin = 2.78397051305127 |  erot = 1.78575123294094 | epot = -23.2171711834401 | etot = -18.6474494374479
533000  ekin = 2.27408274334042 |  erot = 2.01427501035043 | epot = -23.2885684059727 | etot = -19.0002106522818
534000  ekin = 2.54998010491125 |  erot = 2.0164545364507 | epot = -23.340767920006 | etot = -18.7743332786441
535000  ekin = 2.49595662250557 |  erot = 2.09586427439366 | epot = -23.3878755759449 | etot = -18.7960546790457
536000  ekin = 2.47717157546008 |  erot = 1.92116873587364 | epot = -23.3847675210095 | etot = -18.9864272096758
537000  ekin = 1.75235621440219 |  erot = 2.11852052216092 | epot = -23.4590860280326 | etot = -19.5882092914695
538000  ekin = 2.19317209186629 |  erot = 2.75191518419657 | epot = -23.5517834707225 | etot = -18.6066961946597
539000  ekin = 2.16135327665114 |  erot = 2.25935011393788 | epot = -23.5718250119029 | etot = -19.1511216213139
540000  ekin = 2.35701554620647 |  erot = 1.6449529057333 | epot = -23.5490867129451 | etot = -19.5471182610054
541000  ekin = 2.61451212811978 |  erot = 2.52550284426682 | epot = -23.5334576350385 | etot = -18.3934426626519
542000  ekin = 2.78909215024063 |  erot = 2.09346850400965 | epot = -23.5754619290989 | etot = -18.6929012748486
543000  ekin = 2.77024528778678 |  erot = 1.84116991183092 | epot = -23.4849560716084 | etot = -18.8735408719907
544000  ekin = 2.15807529188369 |  erot = 1.50139575300257 | epot = -23.4530822422947 | etot = -19.7936111974084
545000  ekin = 1.72860204886329 |  erot = 2.56468335549414 | epot = -23.4524953434144 | etot = -19.159209939057
546000  ekin = 2.38494138419348 |  erot = 1.87772638427254 | epot = -23.4950389557033 | etot = -19.2323711872372
547000  ekin = 2.44871634556835 |  erot = 2.44464466893214 | epot = -23.544915775382 | etot = -18.6515547608815
548000  ekin = 2.36962922994878 |  erot = 2.40235228488721 | epot = -23.5548428056052 | etot = -18.7828612907692
549000  ekin = 2.57958168249614 |  erot = 2.04930779813674 | epot = -23.5565149978683 | etot = -18.9276255172355
550000  ekin = 1.9793136647427 |  erot = 1.85207468704394 | epot = -23.5614067919063 | etot = -19.7300184401196
551000  ekin = 2.4121774327081 |  erot = 2.0348936886299 | epot = -23.5115216908382 | etot = -19.0644505695002
552000  ekin = 2.6621149390197 |  erot = 1.41279265378133 | epot = -23.3450678435402 | etot = -19.2701602507391
553000  ekin = 1.76359346131444 |  erot = 2.63019210822711 | epot = -23.1435570943958 | etot = -18.7497715248542
554000  ekin = 2.29840754300073 |  erot = 2.34424452982823 | epot = -23.1114395278817 | etot = -18.4687874550527
555000  ekin = 3.29672420152566 |  erot = 1.64146930698359 | epot = -23.0891292168918 | etot = -18.1509357083825
556000  ekin = 2.92076699655596 |  erot = 2.59602967895818 | epot = -23.0268314200472 | etot = -17.5100347445331
557000  ekin = 2.90322014804994 |  erot = 3.16052668894921 | epot = -23.0146480567181 | etot = -16.950901219719
558000  ekin = 2.78018761002222 |  erot = 2.59826947006759 | epot = -22.7877399275349 | etot = -17.4092828474451
559000  ekin = 2.48661596771862 |  erot = 3.22596665511856 | epot = -22.8226574327834 | etot = -17.1100748099462
560000  ekin = 2.34942852601698 |  erot = 2.32773162877396 | epot = -22.8255608134696 | etot = -18.1484006586786
561000  ekin = 2.0520192544917 |  erot = 2.90306975046936 | epot = -22.8488516051139 | etot = -17.8937626001529
562000  ekin = 2.18821919117372 |  erot = 3.66499439159819 | epot = -22.7618817506902 | etot = -16.9086681679183
563000  ekin = 3.11505518852414 |  erot = 2.28057725990564 | epot = -22.791430640287 | etot = -17.3957981918572
564000  ekin = 2.45343120006931 |  erot = 2.36321638506708 | epot = -22.75807077839 | etot = -17.9414231932536
565000  ekin = 2.77835835502221 |  erot = 2.07073547186409 | epot = -22.7486053888412 | etot = -17.8995115619549
566000  ekin = 2.43655641927934 |  erot = 2.19832280178868 | epot = -22.7227654505166 | etot = -18.0878862294486
567000  ekin = 2.71233133108494 |  erot = 2.01281091173405 | epot = -22.8839744455115 | etot = -18.1588322026925
568000  ekin = 3.12450796157708 |  erot = 1.93520150351061 | epot = -22.9625972279254 | etot = -17.9028877628377
569000  ekin = 3.72714267701977 |  erot = 2.06562452789051 | epot = -22.9814174117752 | etot = -17.1886502068649
570000  ekin = 2.68808623045676 |  erot = 2.36042122391805 | epot = -22.998959026692 | etot = -17.9504515723172
571000  ekin = 1.97223467321356 |  erot = 2.85558181274648 | epot = -22.9369001315648 | etot = -18.1090836456047
572000  ekin = 2.4182049732123 |  erot = 2.40910077907643 | epot = -22.934930836907 | etot = -18.1076250846182
573000  ekin = 1.76702714285012 |  erot = 2.31739567602694 | epot = -22.9768902017483 | etot = -18.8924673828712
574000  ekin = 2.08740259214111 |  erot = 2.59288012722136 | epot = -23.0518321557917 | etot = -18.3715494364293
575000  ekin = 2.34020490338786 |  erot = 2.78500973557001 | epot = -23.106579446946 | etot = -17.9813648079881
576000  ekin = 2.15506609467459 |  erot = 3.3045287538029 | epot = -23.1521162771299 | etot = -17.6925214286524
577000  ekin = 2.45698150895878 |  erot = 2.31876672704204 | epot = -23.1781917242715 | etot = -18.4024434882707
578000  ekin = 2.59353106592521 |  erot = 2.33790294336519 | epot = -23.2101395643707 | etot = -18.2787055550803
579000  ekin = 2.58102015460712 |  erot = 1.71748063175117 | epot = -23.1865014452815 | etot = -18.8880006589232
580000  ekin = 2.30361750578347 |  erot = 2.87410564379621 | epot = -23.2045008793077 | etot = -18.026777729728
581000  ekin = 2.45915247103344 |  erot = 2.59640238490727 | epot = -23.1882783600354 | etot = -18.1327235040947
582000  ekin = 2.33801590725494 |  erot = 3.19256035650617 | epot = -23.2501410058056 | etot = -17.7195647420445
583000  ekin = 1.95982078382855 |  erot = 2.81944051586213 | epot = -23.4085593869414 | etot = -18.6292980872508
584000  ekin = 2.00358327245437 |  erot = 1.7126727026301 | epot = -23.4960310960901 | etot = -19.7797751210056
585000  ekin = 2.28859150562676 |  erot = 2.06309046911262 | epot = -23.5306230166998 | etot = -19.1789410419604
586000  ekin = 2.21858454582016 |  erot = 1.97776854350186 | epot = -23.4873397268816 | etot = -19.2909866375596
587000  ekin = 3.70065233550663 |  erot = 1.82187748311298 | epot = -23.4652388428899 | etot = -17.9427090242702
588000  ekin = 3.49447328534893 |  erot = 2.31981981591506 | epot = -23.3985567739262 | etot = -17.5842636726622
589000  ekin = 2.66144502802388 |  erot = 3.02756546370717 | epot = -23.2783756079917 | etot = -17.5893651162607
590000  ekin = 1.52141257336428 |  erot = 2.09874614600563 | epot = -23.1290158071881 | etot = -19.5088570878182
591000  ekin = 1.82897193042274 |  erot = 1.75592223095374 | epot = -23.0622736076073 | etot = -19.4773794462309
592000  ekin = 2.49491276892191 |  erot = 2.5482988197852 | epot = -23.054885494985 | etot = -18.0116739062779
593000  ekin = 2.36845716276159 |  erot = 1.78503341410575 | epot = -23.005264310194 | etot = -18.8517737333267
594000  ekin = 2.07907010887474 |  erot = 2.14563658430187 | epot = -22.9611396232755 | etot = -18.7364329300989
595000  ekin = 2.62736231723874 |  erot = 2.0397582574453 | epot = -22.9495489717352 | etot = -18.2824283970512
596000  ekin = 2.58985967531625 |  erot = 2.12449830164849 | epot = -22.9908505579803 | etot = -18.2764925810155
597000  ekin = 3.02540042664856 |  erot = 3.14256707367048 | epot = -22.9740991012936 | etot = -16.8061316009746
598000  ekin = 3.44397104083287 |  erot = 2.8605790839857 | epot = -23.0035411551228 | etot = -16.6989910303042
599000  ekin = 2.13932500926498 |  erot = 3.49187029024979 | epot = -22.9657391359988 | etot = -17.334543836484
600000  ekin = 2.19758597945326 |  erot = 2.49610822362376 | epot = -22.9452235009931 | etot = -18.2515292979161
601000  ekin = 2.80918982916752 |  erot = 2.81768433603376 | epot = -22.8970508934525 | etot = -17.2701767282513
602000  ekin = 2.30031523379463 |  erot = 2.40907304500534 | epot = -22.8523950981499 | etot = -18.1430068193499
603000  ekin = 1.91335501396421 |  erot = 1.99518053980753 | epot = -22.7884152302358 | etot = -18.879879676464
604000  ekin = 2.5976715095492 |  erot = 3.14351403383687 | epot = -22.7430641975849 | etot = -17.0018786541988
605000  ekin = 2.63203298717972 |  erot = 2.07906613894389 | epot = -22.7307949909783 | etot = -18.0196958648547
606000  ekin = 2.94678399289781 |  erot = 2.03982213630799 | epot = -22.6555302524726 | etot = -17.6689241232668
607000  ekin = 2.85272606479019 |  erot = 2.36693467257681 | epot = -22.6318548820144 | etot = -17.4121941446474
608000  ekin = 3.6642968125636 |  erot = 2.46706737589234 | epot = -22.5724662590778 | etot = -16.4411020706219
609000  ekin = 2.69343886620625 |  erot = 2.25873504143679 | epot = -22.6007364465805 | etot = -17.6485625389374
610000  ekin = 2.99904616523658 |  erot = 2.13621966615343 | epot = -22.5973658485054 | etot = -17.4621000171154
611000  ekin = 3.86832985948944 |  erot = 2.12096644577641 | epot = -22.5702925425382 | etot = -16.5809962372724
612000  ekin = 2.88515301824618 |  erot = 2.45910554524357 | epot = -22.4848584522585 | etot = -17.1405998887688
613000  ekin = 2.9367425327116 |  erot = 2.14436169371533 | epot = -22.465526703267 | etot = -17.3844224768401
614000  ekin = 2.79116462876301 |  erot = 2.024409539648 | epot = -22.5207406301148 | etot = -17.7051664617038
615000  ekin = 2.29338048298908 |  erot = 2.38828872470982 | epot = -22.6082782403584 | etot = -17.9266090326595
616000  ekin = 1.78195169789474 |  erot = 2.45334803626968 | epot = -22.6887534547644 | etot = -18.4534537206
617000  ekin = 2.57505808534158 |  erot = 2.55345758187858 | epot = -22.701463839496 | etot = -17.5729481722758
618000  ekin = 2.29561379442387 |  erot = 2.68043259355499 | epot = -22.629958627306 | etot = -17.6539122393272
619000  ekin = 1.94323313590202 |  erot = 2.00964911157699 | epot = -22.56819110474 | etot = -18.6153088572609
620000  ekin = 2.92263589097657 |  erot = 2.15657756066215 | epot = -22.6264664894927 | etot = -17.547253037854
621000  ekin = 2.90437881656455 |  erot = 1.70649555848315 | epot = -22.665419447573 | etot = -18.0545450725253
622000  ekin = 2.03426149564846 |  erot = 2.51826459248401 | epot = -22.6086250578043 | etot = -18.0560989696718
623000  ekin = 1.98348786592096 |  erot = 3.08484972830227 | epot = -22.6234743341759 | etot = -17.5551367399527
624000  ekin = 2.08463083558977 |  erot = 2.64004606903047 | epot = -22.6266529328942 | etot = -17.901976028274
625000  ekin = 2.52963490334089 |  erot = 2.37033264022622 | epot = -22.6750436783156 | etot = -17.7750761347485
626000  ekin = 2.73147680333726 |  erot = 2.07051651598004 | epot = -22.7272383647964 | etot = -17.9252450454791
627000  ekin = 2.23447399123207 |  erot = 2.35288557052269 | epot = -22.7136740507756 | etot = -18.1263144890208
628000  ekin = 2.28933754695897 |  erot = 2.29676268895054 | epot = -22.6176528573237 | etot = -18.0315526214142
629000  ekin = 2.5355466362136 |  erot = 1.92082543033528 | epot = -22.5693331526924 | etot = -18.1129610861435
630000  ekin = 3.11700824717166 |  erot = 2.51611049765935 | epot = -22.5144695759915 | etot = -16.8813508311605
631000  ekin = 2.38844807455604 |  erot = 3.31601650504458 | epot = -22.5190998334878 | etot = -16.8146352538871
632000  ekin = 2.59939587493746 |  erot = 2.51496212358955 | epot = -22.4711049664696 | etot = -17.3567469679426
633000  ekin = 2.45338619933597 |  erot = 1.89874016257143 | epot = -22.4394257686937 | etot = -18.0872994067863
634000  ekin = 2.23819111967047 |  erot = 1.98305652730466 | epot = -22.3433365860708 | etot = -18.1220889390957
635000  ekin = 2.22438000857702 |  erot = 1.95893208021227 | epot = -22.2877959440852 | etot = -18.1044838552959
636000  ekin = 2.26938644192167 |  erot = 2.77816773779856 | epot = -22.304696935737 | etot = -17.2571427560168
637000  ekin = 1.97799147515645 |  erot = 2.59610837639352 | epot = -22.3353238115758 | etot = -17.7612239600258
638000  ekin = 2.54901279963355 |  erot = 3.14232301833368 | epot = -22.3113570318407 | etot = -16.6200212138734
639000  ekin = 2.38194254982011 |  erot = 2.49468098011844 | epot = -22.2696251856514 | etot = -17.3930016557128
640000  ekin = 2.07438054408915 |  erot = 2.20336226777045 | epot = -22.1673693230788 | etot = -17.8896265112192
641000  ekin = 2.49150296422893 |  erot = 3.53882164550033 | epot = -22.047323387435 | etot = -16.0169987777057
642000  ekin = 3.37964058409635 |  erot = 2.18458831029801 | epot = -21.9324522713976 | etot = -16.3682233770032
643000  ekin = 2.80862431007863 |  erot = 2.40815089193716 | epot = -21.8726014240441 | etot = -16.6558262220283
644000  ekin = 2.952235016065 |  erot = 1.92776262379328 | epot = -21.826057423183 | etot = -16.9460597833247
645000  ekin = 4.10488984334312 |  erot = 1.89062109330214 | epot = -21.7981661301139 | etot = -15.8026551934687
646000  ekin = 2.50234872105284 |  erot = 2.00205075040523 | epot = -21.7221642434957 | etot = -17.2177647720377
647000  ekin = 2.52267281239589 |  erot = 2.19481558810105 | epot = -21.7438885460027 | etot = -17.0264001455058
648000  ekin = 2.99344241657584 |  erot = 2.11139263207284 | epot = -21.7373240000025 | etot = -16.6324889513538
649000  ekin = 2.55027365085816 |  erot = 3.20350991793738 | epot = -21.7192481424448 | etot = -15.9654645736493
650000  ekin = 3.75163896052813 |  erot = 2.44189212282279 | epot = -21.6756681314987 | etot = -15.4821370481478
651000  ekin = 3.29740056237165 |  erot = 2.36780448747275 | epot = -21.5372361691658 | etot = -15.8720311193214
652000  ekin = 2.54645886055823 |  erot = 2.99097829596978 | epot = -21.4549655298412 | etot = -15.9175283733132
653000  ekin = 2.88682688109756 |  erot = 2.53633970608342 | epot = -21.4696471597398 | etot = -16.0464805725588
654000  ekin = 2.28614085804932 |  erot = 2.12026601708473 | epot = -21.5642684321318 | etot = -17.1578615569978
655000  ekin = 2.20709609517087 |  erot = 2.10729950549551 | epot = -21.5349466292622 | etot = -17.2205510285959
656000  ekin = 2.40310876229413 |  erot = 2.09663823500903 | epot = -21.5631924595209 | etot = -17.0634454622178
657000  ekin = 2.7886551346751 |  erot = 2.19608839827219 | epot = -21.794507747247 | etot = -16.8097642142998
658000  ekin = 3.1025713807162 |  erot = 2.59154293692773 | epot = -21.96675599421 | etot = -16.2726416765661
659000  ekin = 2.88891106020275 |  erot = 3.47010878893494 | epot = -22.0542552611187 | etot = -15.695235411981
660000  ekin = 2.90074521854052 |  erot = 1.62850743298554 | epot = -22.1003034196589 | etot = -17.5710507681328
661000  ekin = 3.26666543815737 |  erot = 1.86223225384175 | epot = -22.202664217118 | etot = -17.0737665251189
662000  ekin = 3.1558491019044 |  erot = 2.16868634291728 | epot = -22.3049478747805 | etot = -16.9804124299588
663000  ekin = 1.94349853674083 |  erot = 2.45687952722591 | epot = -22.3908978754178 | etot = -17.990519811451
664000  ekin = 1.45445820960401 |  erot = 1.37641815749115 | epot = -22.5088813854798 | etot = -19.6780050183846
665000  ekin = 1.57568561901953 |  erot = 2.30379312359823 | epot = -22.5957949572927 | etot = -18.7163162146749
666000  ekin = 2.46162449261636 |  erot = 1.76978614573263 | epot = -22.7431602236664 | etot = -18.5117495853174
667000  ekin = 2.82410423268351 |  erot = 2.3383666365949 | epot = -22.9350563238978 | etot = -17.7725854546194
[...]
835000  ekin = 2.8992075090551 |  erot = 2.73801081751029 | epot = -22.3942491248321 | etot = -16.7570307982667
836000  ekin = 3.33069528982658 |  erot = 2.4277126780786 | epot = -22.4321737300744 | etot = -16.6737657621692
837000  ekin = 2.74831774333782 |  erot = 2.31991750378628 | epot = -22.4290234552872 | etot = -17.3607882081631
838000  ekin = 3.13714871682188 |  erot = 3.21601751721777 | epot = -22.4642383906451 | etot = -16.1110721566054
839000  ekin = 2.73358272751807 |  erot = 2.60144488190506 | epot = -22.4062682687368 | etot = -17.0712406593137
840000  ekin = 2.96121930874637 |  erot = 1.42725942278118 | epot = -22.3293755621294 | etot = -17.9408968306018
841000  ekin = 2.95134811170866 |  erot = 2.67666861874608 | epot = -22.2936348151224 | etot = -16.6656180846677
842000  ekin = 2.15783928636401 |  erot = 2.30287195796693 | epot = -22.2978011147172 | etot = -17.8370898703863
843000  ekin = 2.84565152669617 |  erot = 2.0510801477514 | epot = -22.3162908719779 | etot = -17.4195591975303
844000  ekin = 2.99645803669157 |  erot = 1.50433298006521 | epot = -22.3768320579304 | etot = -17.8760410411736
845000  ekin = 3.20248025697125 |  erot = 2.27246140825564 | epot = -22.3985708422076 | etot = -16.9236291769807
846000  ekin = 3.35773945734322 |  erot = 2.54074745551552 | epot = -22.4144833015876 | etot = -16.5159963887289
847000  ekin = 2.17779203733109 |  erot = 2.73817581188461 | epot = -22.3524825149514 | etot = -17.4365146657357
848000  ekin = 2.51627348417144 |  erot = 2.81170686694717 | epot = -22.2066307862469 | etot = -16.8786504351283
849000  ekin = 1.99679455190557 |  erot = 2.56855846773092 | epot = -22.0763062134929 | etot = -17.5109531938564
850000  ekin = 2.05799123916876 |  erot = 1.80888056240785 | epot = -22.0665032506706 | etot = -18.1996314490939
851000  ekin = 2.0888979376792 |  erot = 1.86172181790289 | epot = -22.0629711763889 | etot = -18.1123514208068
852000  ekin = 1.68990805178902 |  erot = 1.42763535981882 | epot = -22.002100112701 | etot = -18.8845567010931
853000  ekin = 1.99310886654811 |  erot = 3.05226969048292 | epot = -22.0306903552278 | etot = -16.9853117981968
854000  ekin = 2.98378700534986 |  erot = 2.2310274524054 | epot = -22.1115820238811 | etot = -16.8967675661258
855000  ekin = 2.17087415585277 |  erot = 2.8378147226879 | epot = -22.1115106395971 | etot = -17.1028217610564
856000  ekin = 2.42228475387308 |  erot = 1.53328604594478 | epot = -22.0841888628209 | etot = -18.128618063003
857000  ekin = 2.50431566526894 |  erot = 2.80498769176516 | epot = -21.9881235267534 | etot = -16.6788201697193
858000  ekin = 2.17333686672378 |  erot = 2.8259111550717 | epot = -21.9093201368614 | etot = -16.9100721150659
859000  ekin = 2.29930070497243 |  erot = 2.32417368939061 | epot = -21.8849849636104 | etot = -17.2615105692473
860000  ekin = 1.99153024057672 |  erot = 1.94674638600151 | epot = -21.8998709373217 | etot = -17.9615943107434
861000  ekin = 2.69177523559624 |  erot = 2.23997750036373 | epot = -21.8915522194994 | etot = -16.9597994835394
862000  ekin = 2.86117050047984 |  erot = 2.41530060322761 | epot = -21.876687883023 | etot = -16.6002167793156
863000  ekin = 2.59841547044276 |  erot = 3.3501705008543 | epot = -21.8162649771437 | etot = -15.8676790058467
864000  ekin = 2.92496272611018 |  erot = 2.30350236144453 | epot = -21.7820358973268 | etot = -16.5535708097721
865000  ekin = 1.94718216128952 |  erot = 2.16572180916633 | epot = -21.7000823492195 | etot = -17.5871783787636
866000  ekin = 1.99006127871689 |  erot = 1.65011901234952 | epot = -21.6190182409268 | etot = -17.9788379498604
867000  ekin = 1.76250718110787 |  erot = 3.37958608370307 | epot = -21.5401486584561 | etot = -16.3980553936452
868000  ekin = 1.845623450314 |  erot = 2.78812196028616 | epot = -21.5771917352235 | etot = -16.9434463246234
869000  ekin = 2.39300849969205 |  erot = 2.38301618173176 | epot = -21.6710790825578 | etot = -16.895054401134
870000  ekin = 1.91899243212541 |  erot = 3.22222440717393 | epot = -21.6734733803871 | etot = -16.5322565410878
871000  ekin = 3.10255827845531 |  erot = 2.95454268850896 | epot = -21.5913249106744 | etot = -15.5342239437101
872000  ekin = 2.94582883077842 |  erot = 1.38261935263093 | epot = -21.4597055547833 | etot = -17.1312573713739
873000  ekin = 2.72830997927423 |  erot = 2.23223699637274 | epot = -21.3657566950046 | etot = -16.4052097193577
874000  ekin = 2.41464704842015 |  erot = 2.10351476791496 | epot = -21.2635161734954 | etot = -16.7453543571603
875000  ekin = 2.99468455803482 |  erot = 2.72761242382524 | epot = -21.2488881289381 | etot = -15.526591147078
876000  ekin = 2.13382009818493 |  erot = 2.23152059294678 | epot = -21.2388603913311 | etot = -16.8735197001994
877000  ekin = 1.839391763993 |  erot = 1.607279977226 | epot = -21.2015948102408 | etot = -17.7549230690218
878000  ekin = 2.01267175782178 |  erot = 2.73109796378376 | epot = -21.2125253160263 | etot = -16.4687555944208
879000  ekin = 1.42911941081343 |  erot = 2.17371661448622 | epot = -21.1345316334464 | etot = -17.5316956081468
880000  ekin = 2.10605339224633 |  erot = 2.5884751778913 | epot = -21.0787246891645 | etot = -16.3841961190269
881000  ekin = 1.54924791070118 |  erot = 2.0068513915418 | epot = -21.1356465207066 | etot = -17.5795472184637
882000  ekin = 2.199643157135 |  erot = 2.65509097106007 | epot = -21.2389026935677 | etot = -16.3841685653726
883000  ekin = 2.20850404171077 |  erot = 2.22833605977577 | epot = -21.3067394383395 | etot = -16.869899336853
884000  ekin = 2.76978562647275 |  erot = 2.10395845939756 | epot = -21.3429618615585 | etot = -16.4692177756882
885000  ekin = 1.93339807672781 |  erot = 1.77156241344967 | epot = -21.3858074096933 | etot = -17.6808469195158
886000  ekin = 2.00408769971894 |  erot = 3.10736267931439 | epot = -21.3935346347812 | etot = -16.2820842557479
887000  ekin = 1.96987943750801 |  erot = 2.82035886899744 | epot = -21.3967073105593 | etot = -16.6064690040538
888000  ekin = 1.91464371566411 |  erot = 2.33371232948867 | epot = -21.4767119016419 | etot = -17.2283558564891
889000  ekin = 1.88227414130201 |  erot = 2.45915914930408 | epot = -21.5790392436829 | etot = -17.2376059530768
890000  ekin = 1.84515176532447 |  erot = 2.24992378831499 | epot = -21.6747594004542 | etot = -17.5796838468148
891000  ekin = 2.6016566869706 |  erot = 2.34500453305753 | epot = -21.8016735536793 | etot = -16.8550123336512
892000  ekin = 2.71287751886859 |  erot = 2.69544224573131 | epot = -21.9063749565585 | etot = -16.4980551919586
893000  ekin = 2.17862714611329 |  erot = 2.98452123742221 | epot = -21.9155556335137 | etot = -16.7524072499782
894000  ekin = 2.52079948361477 |  erot = 2.46355933674925 | epot = -21.915110079455 | etot = -16.930751259091
895000  ekin = 2.53566097944338 |  erot = 2.4513045444294 | epot = -21.947786087834 | etot = -16.9608205639612
896000  ekin = 1.84455393639213 |  erot = 2.77499090684945 | epot = -21.9167554809878 | etot = -17.2972106377463
897000  ekin = 2.38519326880694 |  erot = 2.019802873173 | epot = -21.8644918203993 | etot = -17.4594956784193
898000  ekin = 2.14354914407572 |  erot = 1.89196669459414 | epot = -21.7953104274974 | etot = -17.7597945888276
899000  ekin = 2.65485657727374 |  erot = 2.3237456003819 | epot = -21.6964754705568 | etot = -16.7178732929012
900000  ekin = 2.1437154528087 |  erot = 2.28119066740275 | epot = -21.6934954112434 | etot = -17.2685892910319
901000  ekin = 1.93965814946881 |  erot = 1.81495571440908 | epot = -21.7369092433376 | etot = -17.9822953794597
902000  ekin = 2.60993957981555 |  erot = 2.50321386623391 | epot = -21.6842517568354 | etot = -16.571098310786
903000  ekin = 1.87484955546757 |  erot = 2.17008893987962 | epot = -21.6383913984978 | etot = -17.5934529031506
904000  ekin = 1.87454064845764 |  erot = 2.32484081519398 | epot = -21.5866637125315 | etot = -17.3872822488799
905000  ekin = 2.31407473814844 |  erot = 2.15094868542391 | epot = -21.5154415841816 | etot = -17.0504181606093
906000  ekin = 2.49583383758853 |  erot = 2.25091096848461 | epot = -21.5170853902294 | etot = -16.7703405841563
907000  ekin = 4.19798796104344 |  erot = 2.5030532322807 | epot = -21.5976736513859 | etot = -14.8966324580618
908000  ekin = 3.26730891548756 |  erot = 2.11222217905481 | epot = -21.7526644402476 | etot = -16.3731333457052
909000  ekin = 2.64106561110374 |  erot = 1.92197432194202 | epot = -21.8748043207924 | etot = -17.3117643877467
910000  ekin = 2.61805562731904 |  erot = 2.90737422678703 | epot = -21.9709470207745 | etot = -16.4455171666685
911000  ekin = 2.62012718860141 |  erot = 4.35318528241844 | epot = -22.0282478750366 | etot = -15.0549354040167
912000  ekin = 3.07628909273118 |  erot = 3.69371809788395 | epot = -22.0511180009901 | etot = -15.281110810375
913000  ekin = 2.82956898268831 |  erot = 2.17078429141201 | epot = -22.0149543706266 | etot = -17.0146010965263
914000  ekin = 2.16386655780066 |  erot = 1.22303673036133 | epot = -21.9243495493208 | etot = -18.5374462611589
915000  ekin = 1.59447095066509 |  erot = 2.95966391292002 | epot = -21.8264580452026 | etot = -17.2723231816175
916000  ekin = 2.58365539107523 |  erot = 3.75147270955029 | epot = -21.8922962938608 | etot = -15.5571681932352
917000  ekin = 3.01643029206973 |  erot = 2.88035639021004 | epot = -21.9150526568514 | etot = -16.0182659745717
918000  ekin = 2.89929776900147 |  erot = 2.64137394041291 | epot = -21.9078998623094 | etot = -16.367228152895
919000  ekin = 3.20476671865012 |  erot = 2.76036957969153 | epot = -21.8878055443404 | etot = -15.9226692459988
920000  ekin = 2.28949350558683 |  erot = 2.38558870046816 | epot = -21.8659406759967 | etot = -17.1908584699418
921000  ekin = 2.39158312157105 |  erot = 2.44959700788167 | epot = -21.8638974869225 | etot = -17.0227173574697
922000  ekin = 2.30678787768012 |  erot = 2.42145678067298 | epot = -21.8218369909645 | etot = -17.0935923326114
923000  ekin = 2.49697778842282 |  erot = 2.66565493744118 | epot = -21.8078634464733 | etot = -16.6452307206093
924000  ekin = 1.55676047489501 |  erot = 2.97115254541007 | epot = -21.7829722234117 | etot = -17.2550592031067
925000  ekin = 1.86603413909288 |  erot = 1.96274861601779 | epot = -21.7288604040749 | etot = -17.9000776489642
926000  ekin = 1.36993364395821 |  erot = 2.11749584641399 | epot = -21.7083442855147 | etot = -18.2209147951426
927000  ekin = 2.55718977538496 |  erot = 2.08109095048881 | epot = -21.7242353526192 | etot = -17.0859546267455
928000  ekin = 2.0974272910786 |  erot = 2.73922911267236 | epot = -21.7673808868819 | etot = -16.9307244831309
929000  ekin = 1.85550591174834 |  erot = 1.84990976935039 | epot = -21.8639426090857 | etot = -18.158526927987
930000  ekin = 1.99594723517184 |  erot = 2.09151231016387 | epot = -21.8461015073053 | etot = -17.7586419619696
931000  ekin = 2.45331651079283 |  erot = 1.86703658018613 | epot = -21.7382799817762 | etot = -17.4179268907972
932000  ekin = 2.76909250526759 |  erot = 2.34990175754269 | epot = -21.7639792890094 | etot = -16.6449850261991
933000  ekin = 3.04747366335481 |  erot = 2.52740756503515 | epot = -21.6783727845496 | etot = -16.1034915561597
934000  ekin = 2.93463275640818 |  erot = 2.48893095891026 | epot = -21.5784996926914 | etot = -16.1549359773729
935000  ekin = 2.77799347567549 |  erot = 2.1392935841225 | epot = -21.5334239467005 | etot = -16.6161368869025
936000  ekin = 2.96529953690398 |  erot = 2.07095365726714 | epot = -21.5249249864244 | etot = -16.4886717922533
937000  ekin = 3.0485053770175 |  erot = 2.32432162998051 | epot = -21.4386642161072 | etot = -16.0658372091092
938000  ekin = 2.9926262850536 |  erot = 2.35224559307843 | epot = -21.3457080466208 | etot = -16.0008361684887
939000  ekin = 2.61238181353703 |  erot = 2.26780356837292 | epot = -21.3079422537804 | etot = -16.4277568718705
940000  ekin = 2.65930112044942 |  erot = 2.75497479722395 | epot = -21.2170493356504 | etot = -15.802773417977
941000  ekin = 2.27574261339217 |  erot = 2.61419196501686 | epot = -21.1297657597673 | etot = -16.2398311813583
942000  ekin = 1.89172011891055 |  erot = 2.82029488513784 | epot = -21.0410099256114 | etot = -16.328994921563
943000  ekin = 2.47643464476757 |  erot = 2.34737109151876 | epot = -21.046668772798 | etot = -16.2228630365117
944000  ekin = 2.13883995897326 |  erot = 1.92577316206138 | epot = -21.0114219746514 | etot = -16.9468088536167
945000  ekin = 2.57768697869113 |  erot = 2.21470136124069 | epot = -21.0634624131725 | etot = -16.2710740732407
946000  ekin = 2.36420709243625 |  erot = 2.89647330776424 | epot = -21.088814693033 | etot = -15.8281342928325
947000  ekin = 2.07104171538467 |  erot = 1.86575631327232 | epot = -21.1004860950452 | etot = -17.1636880663882
948000  ekin = 1.85532958802997 |  erot = 1.36952834086551 | epot = -21.1364231315616 | etot = -17.9115652026661
949000  ekin = 1.76206591178366 |  erot = 2.31737328558629 | epot = -21.1463744779337 | etot = -17.0669352805638
950000  ekin = 1.72021033353108 |  erot = 2.24191394295309 | epot = -21.1376324866856 | etot = -17.1755082102014
951000  ekin = 1.96140007830504 |  erot = 2.32248863487758 | epot = -21.1955927656813 | etot = -16.9117040524987
952000  ekin = 2.93256201500608 |  erot = 2.74550490827503 | epot = -21.234781024541 | etot = -15.5567141012599
953000  ekin = 2.95031285986317 |  erot = 2.39822873263993 | epot = -21.252609183133 | etot = -15.9040675906299
954000  ekin = 3.09579074538114 |  erot = 1.98159252445734 | epot = -21.1641538136742 | etot = -16.0867705438357
955000  ekin = 3.59360323486038 |  erot = 2.06789679071821 | epot = -21.0522880782498 | etot = -15.3907880526712
956000  ekin = 2.97416074498497 |  erot = 3.66953591785751 | epot = -20.9097603766373 | etot = -14.2660637137948
957000  ekin = 3.03140562067951 |  erot = 2.66078083760708 | epot = -20.741905867784 | etot = -15.0497194094974
958000  ekin = 2.68913434704072 |  erot = 2.94057112873834 | epot = -20.5488384129041 | etot = -14.9191329371251
959000  ekin = 1.93264217407773 |  erot = 2.45198406257092 | epot = -20.468781161493 | etot = -16.0841549248444
960000  ekin = 1.49632279167952 |  erot = 3.13346348599987 | epot = -20.4844974178568 | etot = -15.8547111401774
961000  ekin = 1.96353429663481 |  erot = 2.07553358516994 | epot = -20.4805590123497 | etot = -16.441491130545
962000  ekin = 2.02830196392007 |  erot = 1.88908496389356 | epot = -20.5374211599971 | etot = -16.6200342321835
963000  ekin = 1.80829526034561 |  erot = 2.46258345726267 | epot = -20.5841835730967 | etot = -16.3133048554884
964000  ekin = 2.79449124937198 |  erot = 2.42527551362846 | epot = -20.623880544448 | etot = -15.4041137814476
965000  ekin = 2.53493670506137 |  erot = 2.27804362684503 | epot = -20.6549300812151 | etot = -15.8419497493087
966000  ekin = 2.0920817650402 |  erot = 2.27478990703181 | epot = -20.704473904241 | etot = -16.337602232169
967000  ekin = 1.55562260797661 |  erot = 3.55543363172458 | epot = -20.739375276301 | etot = -15.6283190365998
968000  ekin = 1.93439891222236 |  erot = 2.37295903815892 | epot = -20.7189229543385 | etot = -16.4115650039572
969000  ekin = 2.16199728898303 |  erot = 2.4601205252494 | epot = -20.6747113173023 | etot = -16.0525935030699
970000  ekin = 1.84926216722517 |  erot = 2.96951777569267 | epot = -20.6011599981509 | etot = -15.7823800552331
971000  ekin = 1.93656411083027 |  erot = 3.08724923997924 | epot = -20.5835250734812 | etot = -15.5597117226717
972000  ekin = 1.90452783927713 |  erot = 2.5823076678316 | epot = -20.5782905980209 | etot = -16.0914550909122
973000  ekin = 2.1922712122506 |  erot = 2.92686386394502 | epot = -20.5868173702649 | etot = -15.4676822940693
974000  ekin = 2.53094641465528 |  erot = 2.69271305556795 | epot = -20.5382547781502 | etot = -15.314595307927
975000  ekin = 3.41187201669925 |  erot = 2.32917219553093 | epot = -20.5109803919917 | etot = -14.7699361797616
976000  ekin = 2.88156114272554 |  erot = 3.10474521611246 | epot = -20.5158119249461 | etot = -14.5295055661081
977000  ekin = 2.73962881168093 |  erot = 2.50884169958543 | epot = -20.4964590297999 | etot = -15.2479885185336
978000  ekin = 1.79682802545478 |  erot = 2.06924041504343 | epot = -20.4730821934977 | etot = -16.6070137529995
979000  ekin = 1.86521389998383 |  erot = 2.22151626929011 | epot = -20.4069392895634 | etot = -16.3202091202894
980000  ekin = 1.92383169177414 |  erot = 1.56425965548877 | epot = -20.3533353734708 | etot = -16.8652440262079
981000  ekin = 1.55110199282939 |  erot = 2.05381225133935 | epot = -20.3970890782076 | etot = -16.7921748340389
982000  ekin = 1.85559395816058 |  erot = 1.96991369841493 | epot = -20.499354149896 | etot = -16.6738464933205
983000  ekin = 2.75061857015333 |  erot = 1.7944840218308 | epot = -20.5241519929378 | etot = -15.9790494009537
984000  ekin = 3.65069712553537 |  erot = 2.64237329124733 | epot = -20.6374699142712 | etot = -14.3443994974885
985000  ekin = 2.9563732193106 |  erot = 2.18846412126773 | epot = -20.8122975273334 | etot = -15.6674601867551
986000  ekin = 2.87072902054599 |  erot = 2.18810434250119 | epot = -20.9390290724605 | etot = -15.8801957094134
987000  ekin = 3.37463328642758 |  erot = 2.5371366667467 | epot = -21.0098323012658 | etot = -15.0980623480916
988000  ekin = 3.45107854450338 |  erot = 3.23625536313169 | epot = -21.0554260480417 | etot = -14.3680921404067
989000  ekin = 2.83591404363756 |  erot = 2.20564156324817 | epot = -21.19499265416 | etot = -16.1534370472743
990000  ekin = 2.79864389348437 |  erot = 1.83178426663539 | epot = -21.1880268304373 | etot = -16.5575986703175
991000  ekin = 3.14781925181036 |  erot = 3.2078247180891 | epot = -21.1115234865128 | etot = -14.7558795166133
992000  ekin = 3.30033725309946 |  erot = 2.62749912694387 | epot = -21.0030296251662 | etot = -15.0751932451229
993000  ekin = 3.07374297249949 |  erot = 2.22697230616356 | epot = -20.9385586572609 | etot = -15.6378433785979
994000  ekin = 3.21461776403449 |  erot = 2.80599707993708 | epot = -20.8790524582442 | etot = -14.8584376142727
995000  ekin = 3.25071478747345 |  erot = 1.73415439498321 | epot = -20.8037804714002 | etot = -15.8189112889436
996000  ekin = 3.07999632962569 |  erot = 3.18107550500824 | epot = -20.7805295335828 | etot = -14.5194576989488
997000  ekin = 2.97118118001025 |  erot = 3.14046656474894 | epot = -20.7334885248756 | etot = -14.6218407801164
998000  ekin = 3.09169861594907 |  erot = 1.99060706981745 | epot = -20.6553134096535 | etot = -15.573007723887
999000  ekin = 2.07498130576584 |  erot = 2.75045972766921 | epot = -20.616091526295 | etot = -15.79065049286
1000000  ekin = 2.07851119592057 |  erot = 2.11869313853035 | epot = -20.4539417072875 | etot = -16.2567373728366
 1000000  0.092378275   -1.3359709  0.057599499   -1.1484644 2.8477973e-05 
Loop time of 38.201 on 1 procs for 1000000 steps with 16 atoms

Performance: 22617.237 tau/day, 26177.358 timesteps/s
98.6% CPU use with 1 MPI tasks x no OpenMP threads

MPI task timing breakdown:
Section |  min time  |  avg time  |  max time  |%varavg| %total
---------------------------------------------------------------
Pair    | 27.344     | 27.344     | 27.344     |   0.0 | 71.58
Bond    | 0.88043    | 0.88043    | 0.88043    |   0.0 |  2.30
Neigh   | 0          | 0          | 0          |   0.0 |  0.00
Comm    | 0.2073     | 0.2073     | 0.2073     |   0.0 |  0.54
Output  | 7e-06      | 7e-06      | 7e-06      |   0.0 |  0.00
Modify  | 9.4379     | 9.4379     | 9.4379     |   0.0 | 24.71
Other   |            | 0.331      |            |       |  0.87

Nlocal:    16 ave 16 max 16 min
Histogram: 1 0 0 0 0 0 0 0 0 0
Nghost:    0 ave 0 max 0 min
Histogram: 1 0 0 0 0 0 0 0 0 0
Neighs:    88 ave 88 max 88 min
Histogram: 1 0 0 0 0 0 0 0 0 0

Total # of neighbors = 88
Ave neighs/atom = 5.5
Ave special neighs/atom = 3.75
Neighbor list builds = 0
Dangerous builds = 0

#write_restart config.${number}.*
Total wall time: 0:00:38
