ITEM: TIMESTEP
0
ITEM: NUMBER OF ATOMS
105
ITEM: BOX BOUNDS
0 25
0 25
0 25
ITEM: ATOMS id type xs ys zs
9 1 0.144572 0.0119036 0.0678684
88 2 0.37872 0.0721624 0.0685776
90 1 0.352083 0.0501316 0.0828708
51 3 0.13859 0.432588 0.221991
52 2 0.0726124 0.454266 0.187584
53 2 0.210642 0.417208 0.245731
54 1 0.0633128 0.436548 0.155978
55 1 0.236735 0.44282 0.237866
102 2 0.406796 0.480114 0.18033
104 1 0.408294 0.442829 0.177711
81 3 0.715374 0.324947 0.141806
83 2 0.671999 0.273316 0.103874
85 1 0.689242 0.250055 0.0801868
82 2 0.771088 0.365625 0.176917
84 1 0.780612 0.398489 0.161796
36 3 0.721061 0.191962 0.340417
38 2 0.694791 0.119673 0.331868
40 1 0.719867 0.0919384 0.332505
28 2 0.492242 0.335766 0.488046
5 1 0.506374 0.478691 0.406231
26 3 0.560691 0.368192 0.472537
27 2 0.621911 0.414738 0.46365
29 1 0.653749 0.404757 0.480607
37 2 0.757941 0.260119 0.341266
39 1 0.761599 0.278586 0.30892
97 2 0.102969 0.204318 0.593605
99 1 0.0842564 0.212473 0.625186
13 2 0.109021 0.478433 0.734423
78 2 0.0595928 0.311334 0.541282
80 1 0.0661376 0.34847 0.533311
96 3 0.127352 0.267427 0.552844
98 2 0.198363 0.286952 0.526514
100 1 0.219068 0.261599 0.508351
30 1 0.470171 0.353112 0.512804
65 1 0.553 0.37163 0.734155
49 1 0.805844 0.396832 0.749833
76 3 0.984629 0.289286 0.557587
77 2 0.908553 0.276242 0.560605
79 1 0.891931 0.257991 0.532602
92 2 0.0767432 0.216467 0.987476
94 1 0.10184 0.197744 0.967004
56 3 0.458985 0.220944 0.821313
57 2 0.481587 0.248912 0.894906
58 2 0.474462 0.180044 0.756026
60 1 0.498675 0.151932 0.756925
86 3 0.395148 0.064272 0.993332
87 2 0.39436 0.055846 0.916302
89 1 0.37757 0.0825552 0.896196
15 1 0.109109 0.445074 0.751289
91 3 0.0315576 0.267374 0.950277
16 3 0.411288 0.290335 0.906863
17 2 0.38863 0.262663 0.832803
18 2 0.38177 0.336682 0.961392
19 1 0.379858 0.286474 0.804876
20 1 0.347882 0.331548 0.976249
22 2 0.346606 0.480306 0.8319
24 1 0.374288 0.484417 0.80706
59 1 0.514132 0.268512 0.8982
61 3 0.55373 0.38951 0.832488
62 2 0.58563 0.423367 0.894375
63 2 0.531426 0.362825 0.763461
64 1 0.569602 0.45463 0.907253
46 3 0.862686 0.467532 0.791522
47 2 0.842413 0.401873 0.755973
93 2 0.983685 0.307216 0.90418
95 1 0.951313 0.290703 0.895247
33 2 0.143152 0.507581 0.0315868
35 1 0.118261 0.501444 0.0588352
101 3 0.341351 0.51465 0.157333
103 2 0.26872 0.541357 0.153468
105 1 0.254904 0.557404 0.184304
6 3 0.063216 0.972519 0.0244272
7 2 0.116651 0.98918 0.0780076
1 3 0.484719 0.511312 0.49859
3 2 0.484906 0.505268 0.42148
73 2 0.483358 0.83659 0.485208
75 1 0.447908 0.846122 0.478006
67 2 0.1044 0.730802 0.677918
69 1 0.0982496 0.700668 0.656619
2 2 0.492166 0.502766 0.575192
4 1 0.51675 0.525014 0.592516
66 3 0.142788 0.790049 0.645896
68 2 0.169812 0.848838 0.603392
70 1 0.145665 0.875916 0.594281
71 3 0.515986 0.86663 0.548652
72 2 0.536045 0.890701 0.61953
74 1 0.53595 0.865364 0.647055
11 3 0.0552756 0.528672 0.75759
31 3 0.132784 0.571284 0.988844
32 2 0.10803 0.632255 0.947894
34 1 0.115072 0.666104 0.962213
21 3 0.350992 0.518795 0.89906
23 2 0.369159 0.564657 0.958762
25 1 0.357608 0.600214 0.957537
12 2 0.99001 0.561246 0.783823
14 1 0.992093 0.583549 0.81382
48 2 0.863613 0.530531 0.836485
50 1 0.884412 0.529491 0.867551
8 2 0.019578 0.948777 0.965067
10 1 0.0268688 0.914926 0.950934
43 2 0.189806 0.853072 0.976294
45 1 0.163986 0.830659 0.961085
41 3 0.260808 0.823069 0.984067
42 2 0.328451 0.785658 0.977744
44 1 0.352146 0.79719 0.951177
ITEM: TIMESTEP
30
ITEM: NUMBER OF ATOMS
105
ITEM: BOX BOUNDS
0 25
0 25
0 25
ITEM: ATOMS id type xs ys zs
9 1 0.144263 0.0124308 0.0681952
88 2 0.378684 0.0721796 0.06862
90 1 0.352326 0.049948 0.0830677
51 3 0.138574 0.432595 0.221972
52 2 0.0726654 0.454287 0.18752
53 2 0.210772 0.417276 0.245693
54 1 0.0631406 0.436108 0.156243
55 1 0.236628 0.442879 0.23737
102 2 0.406808 0.480132 0.180248
104 1 0.408967 0.442895 0.17734
81 3 0.715385 0.324946 0.141795
83 2 0.671941 0.273232 0.103943
85 1 0.688958 0.250496 0.0795698
82 2 0.771079 0.365628 0.176898
84 1 0.780873 0.398719 0.162487
36 3 0.721068 0.191992 0.340402
38 2 0.694792 0.119609 0.331863
40 1 0.719858 0.0919136 0.3325
28 2 0.492146 0.335747 0.48796
5 1 0.507412 0.479974 0.405533
26 3 0.560692 0.368224 0.472561
27 2 0.621857 0.414823 0.463787
29 1 0.65437 0.404394 0.479204
37 2 0.757919 0.260084 0.341313
39 1 0.761912 0.278679 0.309037
97 2 0.102925 0.204435 0.593641
99 1 0.0846435 0.209076 0.627046
13 2 0.109162 0.478236 0.734346
78 2 0.0591448 0.311215 0.541377
80 1 0.0631498 0.349109 0.533432
96 3 0.127475 0.267358 0.552809
98 2 0.198375 0.287258 0.52653
100 1 0.216409 0.258799 0.509283
30 1 0.47017 0.351747 0.513711
65 1 0.551656 0.371453 0.733256
49 1 0.806334 0.39489 0.749116
76 3 0.984721 0.289375 0.557518
77 2 0.908303 0.276215 0.560777
79 1 0.894014 0.258341 0.531398
92 2 0.0766953 0.216411 0.987437
94 1 0.102011 0.198371 0.966588
56 3 0.459099 0.220773 0.821033
57 2 0.482078 0.24844 0.895019
58 2 0.474673 0.180146 0.756145
60 1 0.49792 0.152061 0.760071
86 3 0.395146 0.0642724 0.99332
87 2 0.394414 0.0559072 0.916299
89 1 0.377406 0.0823583 0.89605
15 1 0.111362 0.444895 0.750758
91 3 0.0315701 0.267366 0.950298
16 3 0.411212 0.290423 0.906945
17 2 0.387981 0.262487 0.832399
18 2 0.3817 0.337818 0.962195
19 1 0.379862 0.289937 0.808338
20 1 0.347149 0.325058 0.971331
22 2 0.346601 0.480183 0.83201
24 1 0.374005 0.485901 0.807052
59 1 0.51389 0.269604 0.896285
61 3 0.553737 0.389531 0.832524
62 2 0.58568 0.423401 0.894325
63 2 0.531352 0.362623 0.76353
64 1 0.569453 0.454107 0.908305
46 3 0.862656 0.467547 0.791564
47 2 0.842493 0.401913 0.755877
93 2 0.983657 0.307297 0.90417
95 1 0.951518 0.290778 0.894446
33 2 0.143036 0.507437 0.031597
35 1 0.119253 0.501751 0.0598649
101 3 0.341352 0.51463 0.15735
103 2 0.268614 0.541328 0.153543
105 1 0.255595 0.558455 0.184112
6 3 0.0632338 0.972521 0.0244458
7 2 0.116678 0.98913 0.0779828
1 3 0.484737 0.511291 0.498586
3 2 0.484807 0.505237 0.421407
73 2 0.483328 0.836553 0.485181
75 1 0.447904 0.845996 0.477843
67 2 0.104424 0.730823 0.677909
69 1 0.0984272 0.700749 0.656448
2 2 0.492283 0.502716 0.575166
4 1 0.516358 0.525437 0.592577
66 3 0.142779 0.790035 0.645902
68 2 0.169831 0.84888 0.603334
70 1 0.14606 0.876317 0.594429
71 3 0.515989 0.866639 0.548671
72 2 0.536042 0.890707 0.619506
74 1 0.536078 0.86529 0.646984
11 3 0.0551972 0.528733 0.757634
31 3 0.132782 0.571288 0.988863
32 2 0.108115 0.632247 0.947866
34 1 0.114506 0.666235 0.962179
21 3 0.350997 0.518773 0.899056
23 2 0.369156 0.564673 0.958798
25 1 0.357568 0.600218 0.957863
12 2 0.990117 0.561058 0.783779
14 1 0.993254 0.585437 0.812262
48 2 0.863395 0.530573 0.836614
50 1 0.885622 0.529508 0.866755
8 2 0.0195432 0.948742 0.965029
10 1 0.0271384 0.915063 0.950711
43 2 0.189706 0.853104 0.976299
45 1 0.163602 0.831369 0.960704
41 3 0.260836 0.823055 0.984061
42 2 0.328381 0.785611 0.977718
44 1 0.352211 0.797922 0.951554
ITEM: TIMESTEP
60
ITEM: NUMBER OF ATOMS
105
ITEM: BOX BOUNDS
0 25
0 25
0 25
ITEM: ATOMS id type xs ys zs
9 1 0.143235 0.0138017 0.0688967
88 2 0.3786 0.0722324 0.0687037
90 1 0.35291 0.0493318 0.0834698
51 3 0.138547 0.432609 0.221928
52 2 0.0727968 0.454338 0.187335
53 2 0.211021 0.417485 0.245558
54 1 0.062541 0.435031 0.156951
55 1 0.237011 0.443009 0.236139
102 2 0.406913 0.4802 0.180065
104 1 0.409941 0.443178 0.175942
81 3 0.715413 0.324945 0.141756
83 2 0.671799 0.273024 0.104139
85 1 0.688214 0.25187 0.0780689
82 2 0.771106 0.365619 0.176926
84 1 0.780743 0.39915 0.163463
36 3 0.721077 0.192053 0.340358
38 2 0.694805 0.119492 0.331857
40 1 0.719974 0.091723 0.332488
28 2 0.491893 0.335647 0.487703
5 1 0.510162 0.483427 0.404783
26 3 0.560679 0.368308 0.472637
27 2 0.621755 0.415098 0.464133
29 1 0.655212 0.402939 0.475549
37 2 0.757891 0.26005 0.341453
39 1 0.762517 0.278467 0.309328
97 2 0.102707 0.204313 0.593923
99 1 0.0885992 0.205588 0.626646
13 2 0.109554 0.477914 0.734014
78 2 0.0578616 0.311185 0.541543
80 1 0.061821 0.347171 0.534064
96 3 0.127734 0.267276 0.552779
98 2 0.198213 0.287454 0.526467
100 1 0.214468 0.258027 0.511504
30 1 0.471217 0.348814 0.515941
65 1 0.549035 0.371932 0.732691
49 1 0.807374 0.392743 0.748737
76 3 0.984867 0.289572 0.557394
77 2 0.908067 0.276108 0.560993
79 1 0.895025 0.25919 0.529756
92 2 0.0765859 0.216264 0.987267
94 1 0.102736 0.199582 0.966344
56 3 0.459243 0.220521 0.820477
57 2 0.482801 0.247596 0.894935
58 2 0.475288 0.180457 0.75668
60 1 0.497203 0.148957 0.76425
86 3 0.395137 0.0642762 0.9933
87 2 0.394569 0.0560491 0.916268
89 1 0.376877 0.0820161 0.895933
15 1 0.114999 0.4449 0.751401
91 3 0.031582 0.267354 0.950351
16 3 0.411213 0.290556 0.907037
17 2 0.38673 0.262372 0.832282
18 2 0.381115 0.339181 0.963185
19 1 0.380268 0.296187 0.810572
20 1 0.34812 0.32311 0.969039
22 2 0.346695 0.479918 0.83228
24 1 0.372177 0.488846 0.806517
59 1 0.512779 0.27049 0.893019
61 3 0.553758 0.389592 0.832595
62 2 0.585877 0.423495 0.894251
63 2 0.531058 0.362016 0.763698
64 1 0.568478 0.452397 0.910319
46 3 0.862542 0.467592 0.79167
47 2 0.84284 0.401843 0.755541
93 2 0.983617 0.307524 0.904151
95 1 0.952325 0.290536 0.892709
33 2 0.142751 0.507071 0.031591
35 1 0.121609 0.503184 0.0623724
101 3 0.341336 0.514572 0.157387
103 2 0.268408 0.541241 0.15379
105 1 0.256891 0.561373 0.183333
6 3 0.0632727 0.972525 0.0244827
7 2 0.116771 0.989001 0.0779443
1 3 0.484791 0.511225 0.498562
3 2 0.484529 0.50518 0.421196
73 2 0.483277 0.836452 0.485128
75 1 0.447814 0.845856 0.47764
67 2 0.104481 0.730852 0.67787
69 1 0.0987412 0.700863 0.656298
2 2 0.492595 0.502584 0.575106
4 1 0.51533 0.526549 0.592732
66 3 0.142759 0.790017 0.645908
68 2 0.169912 0.848955 0.603195
70 1 0.146612 0.877139 0.59511
71 3 0.515989 0.866657 0.548709
72 2 0.536038 0.890718 0.619468
74 1 0.536449 0.865242 0.646801
11 3 0.0550534 0.528814 0.757729
31 3 0.132775 0.571288 0.988928
32 2 0.108324 0.632236 0.947749
34 1 0.113231 0.666223 0.96254
21 3 0.351002 0.51872 0.899069
23 2 0.369161 0.564697 0.958892
25 1 0.35726 0.600153 0.958356
12 2 0.990362 0.560717 0.783826
14 1 0.994816 0.589503 0.807041
48 2 0.862878 0.530577 0.836976
50 1 0.888263 0.530742 0.864354
8 2 0.0194831 0.948667 0.964972
10 1 0.0277944 0.915345 0.950006
43 2 0.189491 0.853248 0.976348
45 1 0.163337 0.832315 0.959533
41 3 0.260873 0.823019 0.984044
42 2 0.328227 0.785514 0.977606
44 1 0.352636 0.799276 0.952925
ITEM: TIMESTEP
90
ITEM: NUMBER OF ATOMS
105
ITEM: BOX BOUNDS
0 25
0 25
0 25
ITEM: ATOMS id type xs ys zs
9 1 0.141284 0.0160687 0.0699134
88 2 0.378473 0.0723119 0.0687742
90 1 0.354012 0.0483161 0.0838094
51 3 0.138547 0.432621 0.221873
52 2 0.0729872 0.454412 0.186991
53 2 0.211309 0.41793 0.245254
54 1 0.0613404 0.43349 0.158221
55 1 0.23758 0.442398 0.234483
102 2 0.407178 0.480344 0.179793
104 1 0.410577 0.443687 0.17317
81 3 0.715453 0.324939 0.141674
83 2 0.671604 0.272726 0.104504
85 1 0.686985 0.254403 0.0757403
82 2 0.771212 0.365571 0.177073
84 1 0.779361 0.399609 0.163875
36 3 0.721075 0.192109 0.340275
38 2 0.694874 0.119394 0.331865
40 1 0.720026 0.0916945 0.332454
28 2 0.491549 0.335447 0.487239
5 1 0.51421 0.489449 0.40497
26 3 0.560618 0.368441 0.472783
27 2 0.621638 0.415591 0.464687
29 1 0.655495 0.400241 0.469537
37 2 0.75789 0.260082 0.34174
39 1 0.763333 0.277808 0.309266
97 2 0.102535 0.20361 0.593925
99 1 0.0937355 0.2071 0.629595
13 2 0.110081 0.477681 0.733398
78 2 0.0565153 0.310996 0.541715
80 1 0.0644658 0.348489 0.53386
96 3 0.127993 0.267248 0.552831
98 2 0.197719 0.287306 0.526327
100 1 0.220163 0.261029 0.512264
30 1 0.474365 0.344844 0.519169
65 1 0.546549 0.374327 0.7332
49 1 0.807655 0.393053 0.750093
76 3 0.984837 0.289822 0.557289
77 2 0.9083 0.275856 0.560916
79 1 0.89122 0.261295 0.530802
92 2 0.0764447 0.215998 0.986906
94 1 0.104401 0.200946 0.967087
56 3 0.459195 0.220437 0.819896
57 2 0.483055 0.246767 0.894036
58 2 0.476797 0.180395 0.757806
60 1 0.492383 0.14599 0.762335
86 3 0.395114 0.0642888 0.993288
87 2 0.394838 0.0562589 0.916184
89 1 0.375911 0.0816382 0.896235
15 1 0.117537 0.447629 0.75456
91 3 0.0315573 0.267366 0.950418
16 3 0.411436 0.290649 0.907094
17 2 0.38559 0.263321 0.833007
18 2 0.380224 0.339524 0.963225
19 1 0.380906 0.290495 0.807542
20 1 0.346324 0.335022 0.979308
22 2 0.346985 0.479559 0.832683
24 1 0.367985 0.492114 0.804323
59 1 0.513371 0.269822 0.891925
61 3 0.553788 0.389695 0.832661
62 2 0.58629 0.423658 0.894205
63 2 0.530424 0.360913 0.764104
64 1 0.566099 0.449199 0.912687
46 3 0.862297 0.467662 0.791839
47 2 0.843695 0.401573 0.754907
93 2 0.983636 0.30787 0.904168
95 1 0.954037 0.289612 0.890365
33 2 0.142259 0.506553 0.0315581
35 1 0.125844 0.50634 0.0652934
101 3 0.341279 0.514467 0.157436
103 2 0.2682 0.541105 0.154318
105 1 0.258554 0.565813 0.180831
6 3 0.0633183 0.972521 0.0245165
7 2 0.116958 0.988793 0.0779199
1 3 0.484884 0.511102 0.498485
3 2 0.484091 0.505105 0.420892
73 2 0.483242 0.836303 0.485101
75 1 0.447826 0.845843 0.477712
67 2 0.104554 0.73085 0.677802
69 1 0.0990035 0.700701 0.656361
2 2 0.493126 0.502386 0.57502
4 1 0.513512 0.528188 0.592909
66 3 0.142742 0.790034 0.645893
68 2 0.170052 0.849003 0.60301
70 1 0.147077 0.877866 0.596739
71 3 0.51597 0.866676 0.548737
72 2 0.536044 0.890746 0.619444
74 1 0.537119 0.865175 0.646714
11 3 0.0549804 0.528769 0.757823
31 3 0.13276 0.571257 0.989065
32 2 0.108667 0.632223 0.947504
34 1 0.11137 0.665823 0.963753
21 3 0.350998 0.518649 0.899139
23 2 0.369175 0.564694 0.959028
25 1 0.3565 0.599879 0.95858
12 2 0.990622 0.560469 0.784135
14 1 0.994412 0.595131 0.798119
48 2 0.862115 0.530403 0.837574
50 1 0.891839 0.534656 0.86
8 2 0.0194565 0.948559 0.96496
10 1 0.0287524 0.916067 0.948897
43 2 0.189269 0.853504 0.976466
45 1 0.164299 0.832948 0.95761
41 3 0.260854 0.822977 0.984012
42 2 0.328031 0.785364 0.977382
44 1 0.354052 0.800773 0.955354
ITEM: TIMESTEP
120
ITEM: NUMBER OF ATOMS
105
ITEM: BOX BOUNDS
0 25
0 25
0 25
ITEM: ATOMS id type xs ys zs
9 1 0.138561 0.0187304 0.0716062
88 2 0.378326 0.0723886 0.0687534
90 1 0.355511 0.0470961 0.0840819
51 3 0.138603 0.432635 0.221813
52 2 0.073193 0.454494 0.18652
53 2 0.211532 0.418527 0.244796
54 1 0.0597226 0.43183 0.159967
55 1 0.237899 0.44163 0.232452
102 2 0.407513 0.480526 0.179383
104 1 0.411571 0.444509 0.169943
81 3 0.715501 0.324918 0.141562
83 2 0.671439 0.272414 0.105003
85 1 0.685007 0.257936 0.0731836
82 2 0.771306 0.365487 0.177245
84 1 0.777417 0.400038 0.164255
36 3 0.721052 0.192129 0.340159
38 2 0.69501 0.119397 0.3319
40 1 0.720136 0.0918574 0.332378
28 2 0.491335 0.335283 0.486711
5 1 0.51718 0.497794 0.405115
26 3 0.56048 0.368611 0.472979
27 2 0.621548 0.416064 0.465419
29 1 0.654689 0.3986 0.461513
37 2 0.757908 0.260196 0.34212
39 1 0.764541 0.276983 0.30918
97 2 0.102317 0.202775 0.593762
99 1 0.102049 0.21181 0.632594
13 2 0.110316 0.477827 0.732813
78 2 0.056772 0.31093 0.541688
80 1 0.0632975 0.349317 0.534104
96 3 0.128098 0.267154 0.552972
98 2 0.197506 0.287285 0.525964
100 1 0.226247 0.26506 0.513997
30 1 0.478539 0.339491 0.521777
65 1 0.543255 0.377348 0.734489
49 1 0.808017 0.394493 0.752534
76 3 0.984442 0.290055 0.557221
77 2 0.908736 0.275562 0.560784
79 1 0.887734 0.264399 0.532674
92 2 0.076322 0.215575 0.986458
94 1 0.106532 0.202905 0.968299
56 3 0.458831 0.220642 0.819573
57 2 0.482529 0.246377 0.892336
58 2 0.478951 0.17968 0.758551
60 1 0.485921 0.144901 0.759552
86 3 0.39508 0.0643129 0.993298
87 2 0.395183 0.056528 0.91608
89 1 0.374698 0.081152 0.896767
15 1 0.119528 0.452733 0.758413
91 3 0.0314793 0.267424 0.95047
16 3 0.411728 0.290689 0.907157
17 2 0.385424 0.264322 0.834131
18 2 0.379291 0.339301 0.962669
19 1 0.37866 0.283374 0.804878
20 1 0.351577 0.348646 0.986808
22 2 0.347465 0.479103 0.833033
24 1 0.361264 0.495197 0.801819
59 1 0.515452 0.266189 0.894242
61 3 0.553808 0.389805 0.832687
62 2 0.586767 0.423897 0.894152
63 2 0.529672 0.359583 0.764859
64 1 0.56377 0.444576 0.915473
46 3 0.861949 0.467713 0.792045
47 2 0.844912 0.401403 0.754163
93 2 0.983773 0.308184 0.904283
95 1 0.956483 0.288734 0.887556
33 2 0.141569 0.506154 0.0315119
35 1 0.131976 0.509524 0.067506
101 3 0.341171 0.51434 0.157508
103 2 0.268067 0.540947 0.155074
105 1 0.260625 0.570592 0.176571
6 3 0.0633562 0.972497 0.0245294
7 2 0.117229 0.988564 0.0778831
1 3 0.484995 0.510927 0.498338
3 2 0.483726 0.504993 0.420709
73 2 0.483255 0.836153 0.485174
75 1 0.447928 0.845888 0.477939
67 2 0.104601 0.730779 0.677741
69 1 0.0993342 0.700372 0.656504
2 2 0.493826 0.502178 0.574906
4 1 0.51108 0.52991 0.593139
66 3 0.142747 0.790109 0.645838
68 2 0.170167 0.84894 0.602876
70 1 0.14774 0.878537 0.598896
71 3 0.515926 0.866683 0.548731
72 2 0.536068 0.890804 0.619471
74 1 0.538018 0.865076 0.64664
11 3 0.0551122 0.5285 0.757847
31 3 0.132733 0.571167 0.989261
32 2 0.10917 0.632195 0.947237
34 1 0.108735 0.665139 0.965098
21 3 0.350997 0.518587 0.899288
23 2 0.369152 0.564622 0.959148
25 1 0.355613 0.59948 0.958605
12 2 0.990722 0.56067 0.784804
14 1 0.990798 0.598832 0.786039
48 2 0.861293 0.530057 0.838374
50 1 0.894714 0.540668 0.852495
8 2 0.0194999 0.948462 0.965047
10 1 0.0300077 0.917145 0.947665
43 2 0.189248 0.853716 0.976622
45 1 0.165804 0.833898 0.955383
41 3 0.26073 0.822962 0.983966
42 2 0.327889 0.785142 0.977065
44 1 0.35584 0.802277 0.958723
ITEM: TIMESTEP
150
ITEM: NUMBER OF ATOMS
105
ITEM: BOX BOUNDS
0 25
0 25
0 25
ITEM: ATOMS id type xs ys zs
9 1 0.135153 0.0212668 0.0745285
88 2 0.37817 0.0724418 0.0686144
90 1 0.357288 0.045774 0.0845353
51 3 0.138713 0.432664 0.221738
52 2 0.0734179 0.454564 0.185961
53 2 0.211677 0.419189 0.244222
54 1 0.0579158 0.430214 0.162138
55 1 0.237994 0.441627 0.229733
102 2 0.407827 0.480728 0.178734
104 1 0.413795 0.445668 0.167146
81 3 0.715565 0.324868 0.141437
83 2 0.67136 0.272131 0.105582
85 1 0.681752 0.262186 0.0709932
82 2 0.771259 0.365384 0.177301
84 1 0.776298 0.400651 0.165839
36 3 0.721015 0.19212 0.340014
38 2 0.695195 0.119507 0.331969
40 1 0.720547 0.0919826 0.332225
28 2 0.491433 0.33523 0.486285
39 1 0.766444 0.276368 0.309819
26 3 0.560253 0.368838 0.473206
27 2 0.621497 0.416266 0.466268
29 1 0.65264 0.400593 0.452239
37 2 0.7579 0.260342 0.342525
97 2 0.102393 0.202848 0.59396
99 1 0.109273 0.207762 0.630348
13 2 0.109992 0.478464 0.732588
78 2 0.0584437 0.311137 0.541483
80 1 0.0610619 0.347004 0.534939
96 3 0.12802 0.266891 0.553135
98 2 0.197958 0.287913 0.525311
100 1 0.22663 0.265169 0.518328
30 1 0.481585 0.331996 0.52234
65 1 0.537085 0.378044 0.735229
49 1 0.809971 0.392423 0.753434
76 3 0.983768 0.290255 0.557155
77 2 0.9089 0.275259 0.561029
79 1 0.88766 0.267984 0.530969
92 2 0.0762098 0.214966 0.98598
94 1 0.108636 0.206324 0.969363
56 3 0.458144 0.221098 0.819475
57 2 0.48136 0.24649 0.890613
58 2 0.481635 0.178747 0.758545
60 1 0.478235 0.140811 0.76017
86 3 0.395037 0.0643481 0.993327
87 2 0.395569 0.0568952 0.916024
89 1 0.373416 0.0802744 0.896951
15 1 0.124611 0.457438 0.760143
91 3 0.0313605 0.26753 0.950505
16 3 0.41209 0.290727 0.907227
17 2 0.386397 0.264432 0.83531
18 2 0.378684 0.338986 0.96177
19 1 0.371056 0.283862 0.802554
20 1 0.360513 0.357461 0.988403
22 2 0.348105 0.47854 0.833199
24 1 0.352131 0.49797 0.801316
59 1 0.516096 0.260477 0.896309
61 3 0.553811 0.389895 0.832685
62 2 0.587096 0.424179 0.894018
63 2 0.529029 0.358322 0.766028
64 1 0.56361 0.438943 0.919237
46 3 0.861537 0.467716 0.792286
47 2 0.846234 0.401751 0.753543
93 2 0.984029 0.308373 0.9045
95 1 0.959444 0.288822 0.884113
33 2 0.140715 0.506056 0.0315013
35 1 0.139848 0.51073 0.0687736
101 3 0.341019 0.514194 0.157621
103 2 0.268012 0.540795 0.15601
105 1 0.263171 0.57504 0.170672
6 3 0.0633934 0.972448 0.0245275
7 2 0.117557 0.988368 0.0777727
1 3 0.485107 0.510688 0.498128
3 2 0.483651 0.504897 0.420771
73 2 0.483317 0.836017 0.485372
75 1 0.447967 0.845815 0.477966
5 1 0.516941 0.507686 0.403578
67 2 0.104612 0.730652 0.677693
69 1 0.100027 0.700167 0.656512
2 2 0.494676 0.502002 0.574721
4 1 0.508119 0.531459 0.593514
66 3 0.142776 0.790231 0.645742
68 2 0.170202 0.848752 0.602839
70 1 0.149125 0.879639 0.600999
71 3 0.51586 0.866678 0.548696
72 2 0.536103 0.890885 0.619538
74 1 0.539117 0.865007 0.646368
11 3 0.0554237 0.52804 0.757792
31 3 0.132679 0.571009 0.989491
32 2 0.109908 0.63213 0.947073
34 1 0.104869 0.66429 0.965573
21 3 0.351012 0.51854 0.899505
23 2 0.369033 0.564475 0.959245
25 1 0.355129 0.599212 0.958854
12 2 0.990672 0.561503 0.78562
14 1 0.984865 0.596597 0.773136
48 2 0.86067 0.529625 0.839327
50 1 0.894056 0.547374 0.841082
8 2 0.0196032 0.948393 0.965233
10 1 0.0316423 0.918412 0.946339
43 2 0.189508 0.85378 0.976766
45 1 0.166506 0.8361 0.953056
41 3 0.260514 0.822982 0.983908
42 2 0.327814 0.784844 0.976678
44 1 0.357011 0.803898 0.963077
ITEM: TIMESTEP
180
ITEM: NUMBER OF ATOMS
105
ITEM: BOX BOUNDS
0 25
0 25
0 25
ITEM: ATOMS id type xs ys zs
9 1 0.131074 0.0232511 0.0785518
88 2 0.377996 0.0724559 0.0684146
90 1 0.359335 0.0445731 0.08512
51 3 0.138843 0.432721 0.22163
52 2 0.073688 0.454581 0.185382
53 2 0.211839 0.419917 0.24352
54 1 0.0561355 0.428884 0.164586
55 1 0.2377 0.441936 0.227062
102 2 0.408158 0.480994 0.177839
104 1 0.416318 0.446988 0.164722
81 3 0.715651 0.324792 0.141311
83 2 0.671347 0.271905 0.106164
85 1 0.677191 0.26658 0.0695848
82 2 0.771075 0.365278 0.177257
84 1 0.775911 0.401305 0.168405
36 3 0.72098 0.19212 0.339843
38 2 0.695417 0.119631 0.332069
40 1 0.721014 0.092184 0.33195
28 2 0.491762 0.33515 0.485991
39 1 0.768909 0.275918 0.310896
26 3 0.55997 0.369143 0.47346
27 2 0.62149 0.416182 0.467107
29 1 0.648686 0.405913 0.443423
37 2 0.757831 0.260457 0.342966
97 2 0.102954 0.203562 0.594276
99 1 0.113087 0.198125 0.62748
13 2 0.109429 0.479271 0.732728
78 2 0.060015 0.311151 0.541308
80 1 0.0662591 0.348689 0.534527
96 3 0.127884 0.266514 0.553278
98 2 0.19864 0.288995 0.524578
100 1 0.223014 0.261753 0.524082
30 1 0.483533 0.323597 0.520641
65 1 0.528916 0.376556 0.735786
49 1 0.813664 0.387131 0.752865
76 3 0.983089 0.290447 0.557074
77 2 0.908415 0.27483 0.561507
79 1 0.891282 0.272758 0.527492
92 2 0.0760767 0.214275 0.985369
94 1 0.110522 0.210848 0.971068
56 3 0.457236 0.221645 0.819218
57 2 0.479923 0.246935 0.889883
58 2 0.484659 0.177354 0.758454
60 1 0.468611 0.141105 0.76111
86 3 0.39499 0.0643938 0.993354
87 2 0.395975 0.0573718 0.916045
89 1 0.372164 0.0788912 0.896755
15 1 0.132371 0.46226 0.757834
91 3 0.0312282 0.267648 0.950553
16 3 0.412509 0.290865 0.907382
17 2 0.387599 0.263824 0.835489
18 2 0.37842 0.338531 0.960519
19 1 0.365664 0.287434 0.812932
20 1 0.371003 0.363091 0.987132
22 2 0.34884 0.478057 0.833244
24 1 0.341613 0.49879 0.802952
59 1 0.516316 0.256388 0.896275
61 3 0.553804 0.389982 0.832683
62 2 0.587244 0.42442 0.893803
63 2 0.528434 0.357107 0.767483
64 1 0.565694 0.432888 0.923183
46 3 0.861055 0.467668 0.792587
47 2 0.847601 0.402555 0.753012
93 2 0.984333 0.308505 0.904726
95 1 0.962925 0.289746 0.880412
33 2 0.139835 0.506184 0.0316333
35 1 0.148463 0.510016 0.0681097
101 3 0.34084 0.514014 0.157788
103 2 0.268046 0.540764 0.157086
105 1 0.265189 0.577869 0.163109
6 3 0.0634502 0.972381 0.0245312
7 2 0.117898 0.988234 0.0775687
1 3 0.485226 0.510375 0.497898
3 2 0.483858 0.50492 0.420905
73 2 0.483388 0.835863 0.485623
75 1 0.448053 0.845607 0.477812
5 1 0.513319 0.517745 0.401548
67 2 0.104637 0.730548 0.677604
69 1 0.101049 0.699961 0.656455
2 2 0.495641 0.501904 0.574433
4 1 0.504743 0.532576 0.593914
66 3 0.142807 0.79036 0.645629
68 2 0.170195 0.84854 0.602843
70 1 0.151233 0.880893 0.603019
71 3 0.515785 0.866673 0.548663
72 2 0.536132 0.890965 0.619577
74 1 0.540414 0.864951 0.646023
11 3 0.0557357 0.527513 0.75775
31 3 0.132575 0.570811 0.989736
32 2 0.110914 0.63203 0.947035
34 1 0.099793 0.662808 0.965187
21 3 0.351046 0.518477 0.899747
23 2 0.36879 0.564283 0.959411
25 1 0.355377 0.599227 0.959199
12 2 0.990706 0.562692 0.786085
14 1 0.977886 0.589477 0.763652
48 2 0.860598 0.529215 0.840055
50 1 0.887426 0.553804 0.830252
8 2 0.0197416 0.948314 0.965463
10 1 0.0333417 0.920023 0.944931
43 2 0.189861 0.853788 0.976871
45 1 0.166968 0.839261 0.950887
41 3 0.260273 0.822999 0.983835
42 2 0.327686 0.784571 0.97626
44 1 0.357656 0.805242 0.968086
ITEM: TIMESTEP
210
ITEM: NUMBER OF ATOMS
105
ITEM: BOX BOUNDS
0 25
0 25
0 25
ITEM: ATOMS id type xs ys zs
9 1 0.126178 0.0243468 0.0832064
88 2 0.377799 0.0724323 0.068256
90 1 0.361573 0.0435637 0.0856083
51 3 0.138955 0.432819 0.221476
52 2 0.0740177 0.454508 0.184848
53 2 0.21212 0.420733 0.242647
54 1 0.0544787 0.428009 0.167093
55 1 0.237486 0.442083 0.225526
102 2 0.40861 0.481382 0.176748
104 1 0.417595 0.448198 0.162017
81 3 0.715761 0.324704 0.141181
83 2 0.671323 0.271716 0.106689
85 1 0.67171 0.270846 0.0691859
82 2 0.7709 0.365173 0.177263
84 1 0.77472 0.401748 0.170488
36 3 0.720961 0.192168 0.339643
38 2 0.695662 0.119658 0.332194
40 1 0.72128 0.0924912 0.331527
28 2 0.49203 0.334855 0.485722
39 1 0.771572 0.27502 0.311816
26 3 0.55968 0.369544 0.473751
27 2 0.62156 0.41594 0.46786
29 1 0.641976 0.412937 0.43631
37 2 0.757691 0.260526 0.343492
97 2 0.103464 0.204207 0.594435
99 1 0.120029 0.188954 0.626261
13 2 0.109337 0.479717 0.732693
78 2 0.0609162 0.311203 0.541142
80 1 0.072858 0.348888 0.534445
96 3 0.127838 0.266158 0.553401
98 2 0.198783 0.289737 0.524159
100 1 0.222351 0.260288 0.528282
30 1 0.486436 0.315985 0.517666
65 1 0.520533 0.375774 0.738066
49 1 0.817762 0.383051 0.754146
76 3 0.982645 0.290721 0.55701
77 2 0.907532 0.274339 0.561575
79 1 0.891521 0.277034 0.5281
92 2 0.0759179 0.213682 0.984469
94 1 0.112169 0.21509 0.97489
56 3 0.456349 0.22206 0.818378
57 2 0.479041 0.247359 0.890519
58 2 0.487029 0.175654 0.759357
60 1 0.466957 0.145822 0.754188
86 3 0.39494 0.0644535 0.993358
87 2 0.396409 0.0579266 0.916107
89 1 0.37085 0.0772233 0.896775
15 1 0.138073 0.469802 0.754275
91 3 0.0311051 0.267729 0.950652
16 3 0.412926 0.291202 0.90776
17 2 0.387781 0.263175 0.83537
18 2 0.378043 0.338141 0.959273
19 1 0.367992 0.288088 0.821497
20 1 0.385455 0.366774 0.983277
22 2 0.349562 0.477935 0.833318
24 1 0.330945 0.495198 0.805355
59 1 0.516346 0.256073 0.895496
61 3 0.553788 0.390116 0.832712
62 2 0.587361 0.424591 0.893561
63 2 0.527701 0.355594 0.768998
64 1 0.568424 0.426297 0.925912
46 3 0.860473 0.467582 0.793003
47 2 0.849202 0.403368 0.752204
93 2 0.984578 0.308732 0.90485
95 1 0.967218 0.290738 0.876935
33 2 0.139074 0.506283 0.0319851
35 1 0.156496 0.508971 0.065056
101 3 0.340651 0.513771 0.158013
103 2 0.268175 0.540962 0.158198
105 1 0.265349 0.578174 0.154761
6 3 0.0635488 0.972309 0.0245627
7 2 0.118234 0.988175 0.0772899
1 3 0.485375 0.509987 0.497692
3 2 0.484211 0.505086 0.420818
73 2 0.483428 0.835625 0.485819
75 1 0.448266 0.845464 0.477786
5 1 0.507332 0.527432 0.401286
67 2 0.104741 0.730546 0.677404
69 1 0.102139 0.699492 0.656661
2 2 0.496689 0.501904 0.574039
4 1 0.501072 0.533152 0.594151
66 3 0.142809 0.790456 0.645533
68 2 0.170261 0.848435 0.602778
70 1 0.153441 0.881723 0.605401
71 3 0.515712 0.866685 0.548666
72 2 0.536139 0.891022 0.619526
74 1 0.541928 0.864916 0.64573
11 3 0.0558495 0.527071 0.757875
31 3 0.132404 0.570611 0.98999
32 2 0.112202 0.631958 0.94707
34 1 0.0936706 0.65966 0.964327
21 3 0.351107 0.518361 0.899973
23 2 0.368424 0.564079 0.959795
25 1 0.356402 0.599503 0.958875
12 2 0.991187 0.563839 0.785809
14 1 0.970039 0.580205 0.758962
48 2 0.861003 0.528925 0.840176
50 1 0.876712 0.560103 0.825717
8 2 0.0198812 0.948178 0.965658
10 1 0.0347047 0.922062 0.943389
43 2 0.190018 0.853952 0.976956
45 1 0.168538 0.842087 0.948748
41 3 0.260076 0.822955 0.983741
42 2 0.327381 0.784456 0.975842
44 1 0.358367 0.805502 0.973542
ITEM: TIMESTEP
240
ITEM: NUMBER OF ATOMS
105
ITEM: BOX BOUNDS
0 25
0 25
0 25
ITEM: ATOMS id type xs ys zs
9 1 0.120772 0.0239675 0.0882715
88 2 0.377582 0.0723789 0.0682052
90 1 0.363781 0.0425771 0.086041
51 3 0.139036 0.432968 0.221262
52 2 0.0743667 0.45434 0.184392
53 2 0.212559 0.421558 0.241661
54 1 0.0530118 0.427522 0.169443
55 1 0.237978 0.442942 0.224804
102 2 0.4092 0.48189 0.175454
104 1 0.417447 0.449243 0.159097
81 3 0.715898 0.324606 0.141046
83 2 0.6712 0.271537 0.107102
85 1 0.665819 0.27484 0.0701073
82 2 0.770824 0.365089 0.177395
84 1 0.772119 0.40202 0.171512
36 3 0.720964 0.192281 0.339417
38 2 0.695902 0.119552 0.332341
40 1 0.721589 0.0925264 0.330949
28 2 0.492088 0.334264 0.485454
39 1 0.774082 0.273357 0.312916
26 3 0.559403 0.370043 0.474084
27 2 0.621716 0.415574 0.468367
29 1 0.633054 0.421594 0.432832
37 2 0.757495 0.260558 0.344076
97 2 0.103731 0.204184 0.595064
99 1 0.130773 0.185783 0.617851
13 2 0.109945 0.479592 0.732175
78 2 0.0614178 0.311359 0.540958
80 1 0.0688036 0.346855 0.535284
96 3 0.127958 0.26588 0.553476
98 2 0.198033 0.289536 0.524368
100 1 0.228461 0.26641 0.527855
30 1 0.490721 0.309758 0.513883
65 1 0.512763 0.37592 0.743273
49 1 0.821732 0.381726 0.758808
76 3 0.982503 0.291121 0.556972
77 2 0.906661 0.27392 0.561162
79 1 0.884596 0.279662 0.531976
92 2 0.0757875 0.213252 0.983288
94 1 0.11289 0.21853 0.980962
56 3 0.455609 0.222248 0.816954
57 2 0.479138 0.247348 0.89195
58 2 0.488717 0.174482 0.761323
60 1 0.469745 0.149 0.744619
86 3 0.394888 0.0645339 0.99333
87 2 0.396869 0.0585184 0.916166
89 1 0.369457 0.0755465 0.897236
15 1 0.141629 0.479529 0.751746
91 3 0.0310025 0.267751 0.950806
16 3 0.413373 0.291696 0.90839
17 2 0.387124 0.262354 0.835509
18 2 0.377252 0.338381 0.958616
19 1 0.367929 0.292068 0.815218
20 1 0.404494 0.362782 0.97141
22 2 0.350107 0.478235 0.833434
24 1 0.32226 0.486545 0.809194
59 1 0.514577 0.26046 0.895392
61 3 0.553762 0.390319 0.832779
62 2 0.587517 0.424684 0.893372
63 2 0.526743 0.353673 0.770408
64 1 0.571342 0.419353 0.926859
46 3 0.859831 0.467488 0.793539
47 2 0.851056 0.403944 0.750892
93 2 0.984705 0.309097 0.904817
95 1 0.972362 0.291935 0.873845
33 2 0.138506 0.506239 0.0325646
35 1 0.163318 0.507684 0.0605791
101 3 0.340467 0.513466 0.158306
103 2 0.268304 0.541357 0.159227
105 1 0.264007 0.576385 0.146758
6 3 0.0637012 0.972232 0.0246294