LAMMPS (29 Jun 2018)
# Axilrod-Teller-Muto potential example

variable	x index 1
variable	y index 1
variable	z index 1

variable	xx equal 10*$x
variable	xx equal 10*1
variable	yy equal 10*$y
variable	yy equal 10*1
variable	zz equal 10*$z
variable	zz equal 10*1

units		lj
atom_style	atomic

lattice		fcc 0.65
Lattice spacing in x,y,z = 1.83252 1.83252 1.83252
region		box block 0 ${xx} 0 ${yy} 0 ${zz}
region		box block 0 10 0 ${yy} 0 ${zz}
region		box block 0 10 0 10 0 ${zz}
region		box block 0 10 0 10 0 10
create_box	1 box
Created orthogonal box = (0 0 0) to (18.3252 18.3252 18.3252)
  1 by 1 by 1 MPI processor grid
create_atoms	1 box
Created 4000 atoms
  Time spent = 0.00125098 secs

pair_style	hybrid/overlay lj/cut 4.5 atm 2.5
pair_coeff	* * lj/cut 1.0 1.0
pair_coeff	* * atm * 0.072

mass		* 1.0
velocity	all create 1.033 12345678 loop geom

fix		1 all nvt temp 1.033 1.033 0.05

timestep        0.002
thermo		5

run 		25
Neighbor list info ...
  update every 1 steps, delay 10 steps, check yes
  max neighbors/atom: 2000, page size: 100000
  master list distance cutoff = 4.8
  ghost atom cutoff = 4.8
  binsize = 2.4, bins = 8 8 8
  2 neighbor lists, perpetual/occasional/extra = 2 0 0
  (1) pair lj/cut, perpetual, half/full from (2)
      attributes: half, newton on
      pair build: halffull/newton
      stencil: none
      bin: none
  (2) pair atm, perpetual
      attributes: full, newton on
      pair build: full/bin/atomonly
      stencil: full/bin/3d
      bin: standard
Per MPI rank memory allocation (min/avg/max) = 11.47 | 11.47 | 11.47 Mbytes
Step Temp E_pair E_mol TotEng Press 
       0        1.033    -4.733482            0   -3.1843694    -3.924644 
       5    1.0335743   -4.7330528            0   -3.1830789   -3.9119065 
      10    1.0349987   -4.7346788            0   -3.1825689   -3.8769962 
      15    1.0362024   -4.7401425            0   -3.1862275   -3.8225106 
      20    1.0352365   -4.7459627            0   -3.1934962   -3.7403572 
      25    1.0295963   -4.7444397            0   -3.2004313   -3.6132651 
Loop time of 27.841 on 1 procs for 25 steps with 4000 atoms

Performance: 155.167 tau/day, 0.898 timesteps/s
100.0% CPU use with 1 MPI tasks x no OpenMP threads

MPI task timing breakdown:
Section |  min time  |  avg time  |  max time  |%varavg| %total
---------------------------------------------------------------
Pair    | 27.837     | 27.837     | 27.837     |   0.0 | 99.99
Neigh   | 0          | 0          | 0          |   0.0 |  0.00
Comm    | 0.0015321  | 0.0015321  | 0.0015321  |   0.0 |  0.01
Output  | 0.00016594 | 0.00016594 | 0.00016594 |   0.0 |  0.00
Modify  | 0.001785   | 0.001785   | 0.001785   |   0.0 |  0.01
Other   |            | 0.0006731  |            |       |  0.00

Nlocal:    4000 ave 4000 max 4000 min
Histogram: 1 0 0 0 0 0 0 0 0 0
Nghost:    10895 ave 10895 max 10895 min
Histogram: 1 0 0 0 0 0 0 0 0 0
Neighs:    640000 ave 640000 max 640000 min
Histogram: 1 0 0 0 0 0 0 0 0 0
FullNghs:  1.28e+06 ave 1.28e+06 max 1.28e+06 min
Histogram: 1 0 0 0 0 0 0 0 0 0

Total # of neighbors = 1280000
Ave neighs/atom = 320
Neighbor list builds = 0
Dangerous builds = 0

Please see the log.cite file for references relevant to this simulation

Total wall time: 0:00:29
