LAMMPS data file via write_data, version 31 Aug 2018, timestep = 0

1224 atoms
2 atom types

0.0000000000000000e+00 9.5244063118091962e+00 xlo xhi
0.0000000000000000e+00 9.5244063118091962e+00 ylo yhi
-2.0e+00 1.6e+01 zlo zhi

Masses

1 1
2 1

Atoms # atomic

793 2 0.0000000000000000e+00 0.0000000000000000e+00 -1.5874010519681994e+00 0 0 0
794 2 7.9370052598409979e-01 7.9370052598409979e-01 -1.5874010519681994e+00 0 0 0
797 2 1.5874010519681996e+00 0.0000000000000000e+00 -1.5874010519681994e+00 0 0 0
798 2 2.3811015779522990e+00 7.9370052598409979e-01 -1.5874010519681994e+00 0 0 0
801 2 3.1748021039363992e+00 0.0000000000000000e+00 -1.5874010519681994e+00 0 0 0
802 2 3.9685026299204984e+00 7.9370052598409979e-01 -1.5874010519681994e+00 0 0 0
805 2 4.7622031559045981e+00 0.0000000000000000e+00 -1.5874010519681994e+00 0 0 0
806 2 5.5559036818886973e+00 7.9370052598409979e-01 -1.5874010519681994e+00 0 0 0
809 2 6.3496042078727983e+00 0.0000000000000000e+00 -1.5874010519681994e+00 0 0 0
810 2 7.1433047338568993e+00 7.9370052598409979e-01 -1.5874010519681994e+00 0 0 0
813 2 7.9370052598409968e+00 0.0000000000000000e+00 -1.5874010519681994e+00 0 0 0
814 2 8.7307057858250960e+00 7.9370052598409979e-01 -1.5874010519681994e+00 0 0 0
817 2 0.0000000000000000e+00 1.5874010519681996e+00 -1.5874010519681994e+00 0 0 0
818 2 7.9370052598409979e-01 2.3811015779522990e+00 -1.5874010519681994e+00 0 0 0
821 2 1.5874010519681996e+00 1.5874010519681996e+00 -1.5874010519681994e+00 0 0 0
822 2 2.3811015779522990e+00 2.3811015779522990e+00 -1.5874010519681994e+00 0 0 0
825 2 3.1748021039363992e+00 1.5874010519681996e+00 -1.5874010519681994e+00 0 0 0
826 2 3.9685026299204984e+00 2.3811015779522990e+00 -1.5874010519681994e+00 0 0 0
829 2 4.7622031559045981e+00 1.5874010519681996e+00 -1.5874010519681994e+00 0 0 0
830 2 5.5559036818886973e+00 2.3811015779522990e+00 -1.5874010519681994e+00 0 0 0
833 2 6.3496042078727983e+00 1.5874010519681996e+00 -1.5874010519681994e+00 0 0 0
834 2 7.1433047338568993e+00 2.3811015779522990e+00 -1.5874010519681994e+00 0 0 0
837 2 7.9370052598409968e+00 1.5874010519681996e+00 -1.5874010519681994e+00 0 0 0
838 2 8.7307057858250960e+00 2.3811015779522990e+00 -1.5874010519681994e+00 0 0 0
841 2 0.0000000000000000e+00 3.1748021039363992e+00 -1.5874010519681994e+00 0 0 0
842 2 7.9370052598409979e-01 3.9685026299204984e+00 -1.5874010519681994e+00 0 0 0
845 2 1.5874010519681996e+00 3.1748021039363992e+00 -1.5874010519681994e+00 0 0 0
846 2 2.3811015779522990e+00 3.9685026299204984e+00 -1.5874010519681994e+00 0 0 0
849 2 3.1748021039363992e+00 3.1748021039363992e+00 -1.5874010519681994e+00 0 0 0
850 2 3.9685026299204984e+00 3.9685026299204984e+00 -1.5874010519681994e+00 0 0 0
853 2 4.7622031559045981e+00 3.1748021039363992e+00 -1.5874010519681994e+00 0 0 0
854 2 5.5559036818886973e+00 3.9685026299204984e+00 -1.5874010519681994e+00 0 0 0
857 2 6.3496042078727983e+00 3.1748021039363992e+00 -1.5874010519681994e+00 0 0 0
858 2 7.1433047338568993e+00 3.9685026299204984e+00 -1.5874010519681994e+00 0 0 0
861 2 7.9370052598409968e+00 3.1748021039363992e+00 -1.5874010519681994e+00 0 0 0
862 2 8.7307057858250960e+00 3.9685026299204984e+00 -1.5874010519681994e+00 0 0 0
865 2 0.0000000000000000e+00 4.7622031559045981e+00 -1.5874010519681994e+00 0 0 0
866 2 7.9370052598409979e-01 5.5559036818886973e+00 -1.5874010519681994e+00 0 0 0
869 2 1.5874010519681996e+00 4.7622031559045981e+00 -1.5874010519681994e+00 0 0 0
870 2 2.3811015779522990e+00 5.5559036818886973e+00 -1.5874010519681994e+00 0 0 0
873 2 3.1748021039363992e+00 4.7622031559045981e+00 -1.5874010519681994e+00 0 0 0
874 2 3.9685026299204984e+00 5.5559036818886973e+00 -1.5874010519681994e+00 0 0 0
877 2 4.7622031559045981e+00 4.7622031559045981e+00 -1.5874010519681994e+00 0 0 0
878 2 5.5559036818886973e+00 5.5559036818886973e+00 -1.5874010519681994e+00 0 0 0
881 2 6.3496042078727983e+00 4.7622031559045981e+00 -1.5874010519681994e+00 0 0 0
882 2 7.1433047338568993e+00 5.5559036818886973e+00 -1.5874010519681994e+00 0 0 0
885 2 7.9370052598409968e+00 4.7622031559045981e+00 -1.5874010519681994e+00 0 0 0
886 2 8.7307057858250960e+00 5.5559036818886973e+00 -1.5874010519681994e+00 0 0 0
889 2 0.0000000000000000e+00 6.3496042078727983e+00 -1.5874010519681994e+00 0 0 0
890 2 7.9370052598409979e-01 7.1433047338568993e+00 -1.5874010519681994e+00 0 0 0
893 2 1.5874010519681996e+00 6.3496042078727983e+00 -1.5874010519681994e+00 0 0 0
894 2 2.3811015779522990e+00 7.1433047338568993e+00 -1.5874010519681994e+00 0 0 0
897 2 3.1748021039363992e+00 6.3496042078727983e+00 -1.5874010519681994e+00 0 0 0
898 2 3.9685026299204984e+00 7.1433047338568993e+00 -1.5874010519681994e+00 0 0 0
901 2 4.7622031559045981e+00 6.3496042078727983e+00 -1.5874010519681994e+00 0 0 0
902 2 5.5559036818886973e+00 7.1433047338568993e+00 -1.5874010519681994e+00 0 0 0
905 2 6.3496042078727983e+00 6.3496042078727983e+00 -1.5874010519681994e+00 0 0 0
906 2 7.1433047338568993e+00 7.1433047338568993e+00 -1.5874010519681994e+00 0 0 0
909 2 7.9370052598409968e+00 6.3496042078727983e+00 -1.5874010519681994e+00 0 0 0
910 2 8.7307057858250960e+00 7.1433047338568993e+00 -1.5874010519681994e+00 0 0 0
913 2 0.0000000000000000e+00 7.9370052598409968e+00 -1.5874010519681994e+00 0 0 0
914 2 7.9370052598409979e-01 8.7307057858250960e+00 -1.5874010519681994e+00 0 0 0
917 2 1.5874010519681996e+00 7.9370052598409968e+00 -1.5874010519681994e+00 0 0 0
918 2 2.3811015779522990e+00 8.7307057858250960e+00 -1.5874010519681994e+00 0 0 0
921 2 3.1748021039363992e+00 7.9370052598409968e+00 -1.5874010519681994e+00 0 0 0
922 2 3.9685026299204984e+00 8.7307057858250960e+00 -1.5874010519681994e+00 0 0 0
925 2 4.7622031559045981e+00 7.9370052598409968e+00 -1.5874010519681994e+00 0 0 0
926 2 5.5559036818886973e+00 8.7307057858250960e+00 -1.5874010519681994e+00 0 0 0
929 2 6.3496042078727983e+00 7.9370052598409968e+00 -1.5874010519681994e+00 0 0 0
930 2 7.1433047338568993e+00 8.7307057858250960e+00 -1.5874010519681994e+00 0 0 0
933 2 7.9370052598409968e+00 7.9370052598409968e+00 -1.5874010519681994e+00 0 0 0
934 2 8.7307057858250960e+00 8.7307057858250960e+00 -1.5874010519681994e+00 0 0 0
795 2 7.9370052598409979e-01 0.0000000000000000e+00 -7.9370052598409924e-01 0 0 0
796 2 0.0000000000000000e+00 7.9370052598409979e-01 -7.9370052598409924e-01 0 0 0
937 2 0.0000000000000000e+00 0.0000000000000000e+00 0.0000000000000000e+00 0 0 0
938 2 7.9370052598409979e-01 7.9370052598409979e-01 0.0000000000000000e+00 0 0 0
799 2 2.3811015779522990e+00 0.0000000000000000e+00 -7.9370052598409924e-01 0 0 0
800 2 1.5874010519681996e+00 7.9370052598409979e-01 -7.9370052598409924e-01 0 0 0
939 2 1.5874010519681996e+00 0.0000000000000000e+00 0.0000000000000000e+00 0 0 0
940 2 2.3811015779522990e+00 7.9370052598409979e-01 0.0000000000000000e+00 0 0 0
803 2 3.9685026299204984e+00 0.0000000000000000e+00 -7.9370052598409924e-01 0 0 0
804 2 3.1748021039363992e+00 7.9370052598409979e-01 -7.9370052598409924e-01 0 0 0
941 2 3.1748021039363992e+00 0.0000000000000000e+00 0.0000000000000000e+00 0 0 0
942 2 3.9685026299204984e+00 7.9370052598409979e-01 0.0000000000000000e+00 0 0 0
807 2 5.5559036818886973e+00 0.0000000000000000e+00 -7.9370052598409924e-01 0 0 0
808 2 4.7622031559045981e+00 7.9370052598409979e-01 -7.9370052598409924e-01 0 0 0
943 2 4.7622031559045981e+00 0.0000000000000000e+00 0.0000000000000000e+00 0 0 0
944 2 5.5559036818886973e+00 7.9370052598409979e-01 0.0000000000000000e+00 0 0 0
811 2 7.1433047338568993e+00 0.0000000000000000e+00 -7.9370052598409924e-01 0 0 0
812 2 6.3496042078727983e+00 7.9370052598409979e-01 -7.9370052598409924e-01 0 0 0
945 2 6.3496042078727983e+00 0.0000000000000000e+00 0.0000000000000000e+00 0 0 0
946 2 7.1433047338568993e+00 7.9370052598409979e-01 0.0000000000000000e+00 0 0 0
815 2 8.7307057858250960e+00 0.0000000000000000e+00 -7.9370052598409924e-01 0 0 0
816 2 7.9370052598409968e+00 7.9370052598409979e-01 -7.9370052598409924e-01 0 0 0
947 2 7.9370052598409968e+00 0.0000000000000000e+00 0.0000000000000000e+00 0 0 0
948 2 8.7307057858250960e+00 7.9370052598409979e-01 0.0000000000000000e+00 0 0 0
819 2 7.9370052598409979e-01 1.5874010519681996e+00 -7.9370052598409924e-01 0 0 0
820 2 0.0000000000000000e+00 2.3811015779522990e+00 -7.9370052598409924e-01 0 0 0
949 2 0.0000000000000000e+00 1.5874010519681996e+00 0.0000000000000000e+00 0 0 0
950 2 7.9370052598409979e-01 2.3811015779522990e+00 0.0000000000000000e+00 0 0 0
823 2 2.3811015779522990e+00 1.5874010519681996e+00 -7.9370052598409924e-01 0 0 0
824 2 1.5874010519681996e+00 2.3811015779522990e+00 -7.9370052598409924e-01 0 0 0
951 2 1.5874010519681996e+00 1.5874010519681996e+00 0.0000000000000000e+00 0 0 0
952 2 2.3811015779522990e+00 2.3811015779522990e+00 0.0000000000000000e+00 0 0 0
827 2 3.9685026299204984e+00 1.5874010519681996e+00 -7.9370052598409924e-01 0 0 0
828 2 3.1748021039363992e+00 2.3811015779522990e+00 -7.9370052598409924e-01 0 0 0
953 2 3.1748021039363992e+00 1.5874010519681996e+00 0.0000000000000000e+00 0 0 0
954 2 3.9685026299204984e+00 2.3811015779522990e+00 0.0000000000000000e+00 0 0 0
831 2 5.5559036818886973e+00 1.5874010519681996e+00 -7.9370052598409924e-01 0 0 0
832 2 4.7622031559045981e+00 2.3811015779522990e+00 -7.9370052598409924e-01 0 0 0
955 2 4.7622031559045981e+00 1.5874010519681996e+00 0.0000000000000000e+00 0 0 0
956 2 5.5559036818886973e+00 2.3811015779522990e+00 0.0000000000000000e+00 0 0 0
835 2 7.1433047338568993e+00 1.5874010519681996e+00 -7.9370052598409924e-01 0 0 0
836 2 6.3496042078727983e+00 2.3811015779522990e+00 -7.9370052598409924e-01 0 0 0
957 2 6.3496042078727983e+00 1.5874010519681996e+00 0.0000000000000000e+00 0 0 0
958 2 7.1433047338568993e+00 2.3811015779522990e+00 0.0000000000000000e+00 0 0 0
839 2 8.7307057858250960e+00 1.5874010519681996e+00 -7.9370052598409924e-01 0 0 0
840 2 7.9370052598409968e+00 2.3811015779522990e+00 -7.9370052598409924e-01 0 0 0
959 2 7.9370052598409968e+00 1.5874010519681996e+00 0.0000000000000000e+00 0 0 0
960 2 8.7307057858250960e+00 2.3811015779522990e+00 0.0000000000000000e+00 0 0 0
843 2 7.9370052598409979e-01 3.1748021039363992e+00 -7.9370052598409924e-01 0 0 0
844 2 0.0000000000000000e+00 3.9685026299204984e+00 -7.9370052598409924e-01 0 0 0
961 2 0.0000000000000000e+00 3.1748021039363992e+00 0.0000000000000000e+00 0 0 0
962 2 7.9370052598409979e-01 3.9685026299204984e+00 0.0000000000000000e+00 0 0 0
847 2 2.3811015779522990e+00 3.1748021039363992e+00 -7.9370052598409924e-01 0 0 0
848 2 1.5874010519681996e+00 3.9685026299204984e+00 -7.9370052598409924e-01 0 0 0
963 2 1.5874010519681996e+00 3.1748021039363992e+00 0.0000000000000000e+00 0 0 0
964 2 2.3811015779522990e+00 3.9685026299204984e+00 0.0000000000000000e+00 0 0 0
851 2 3.9685026299204984e+00 3.1748021039363992e+00 -7.9370052598409924e-01 0 0 0
852 2 3.1748021039363992e+00 3.9685026299204984e+00 -7.9370052598409924e-01 0 0 0
965 2 3.1748021039363992e+00 3.1748021039363992e+00 0.0000000000000000e+00 0 0 0
966 2 3.9685026299204984e+00 3.9685026299204984e+00 0.0000000000000000e+00 0 0 0
855 2 5.5559036818886973e+00 3.1748021039363992e+00 -7.9370052598409924e-01 0 0 0
856 2 4.7622031559045981e+00 3.9685026299204984e+00 -7.9370052598409924e-01 0 0 0
967 2 4.7622031559045981e+00 3.1748021039363992e+00 0.0000000000000000e+00 0 0 0
968 2 5.5559036818886973e+00 3.9685026299204984e+00 0.0000000000000000e+00 0 0 0
859 2 7.1433047338568993e+00 3.1748021039363992e+00 -7.9370052598409924e-01 0 0 0
860 2 6.3496042078727983e+00 3.9685026299204984e+00 -7.9370052598409924e-01 0 0 0
969 2 6.3496042078727983e+00 3.1748021039363992e+00 0.0000000000000000e+00 0 0 0
970 2 7.1433047338568993e+00 3.9685026299204984e+00 0.0000000000000000e+00 0 0 0
863 2 8.7307057858250960e+00 3.1748021039363992e+00 -7.9370052598409924e-01 0 0 0
864 2 7.9370052598409968e+00 3.9685026299204984e+00 -7.9370052598409924e-01 0 0 0
971 2 7.9370052598409968e+00 3.1748021039363992e+00 0.0000000000000000e+00 0 0 0
972 2 8.7307057858250960e+00 3.9685026299204984e+00 0.0000000000000000e+00 0 0 0
867 2 7.9370052598409979e-01 4.7622031559045981e+00 -7.9370052598409924e-01 0 0 0
868 2 0.0000000000000000e+00 5.5559036818886973e+00 -7.9370052598409924e-01 0 0 0
973 2 0.0000000000000000e+00 4.7622031559045981e+00 0.0000000000000000e+00 0 0 0
974 2 7.9370052598409979e-01 5.5559036818886973e+00 0.0000000000000000e+00 0 0 0
871 2 2.3811015779522990e+00 4.7622031559045981e+00 -7.9370052598409924e-01 0 0 0
872 2 1.5874010519681996e+00 5.5559036818886973e+00 -7.9370052598409924e-01 0 0 0
975 2 1.5874010519681996e+00 4.7622031559045981e+00 0.0000000000000000e+00 0 0 0
976 2 2.3811015779522990e+00 5.5559036818886973e+00 0.0000000000000000e+00 0 0 0
875 2 3.9685026299204984e+00 4.7622031559045981e+00 -7.9370052598409924e-01 0 0 0
876 2 3.1748021039363992e+00 5.5559036818886973e+00 -7.9370052598409924e-01 0 0 0
977 2 3.1748021039363992e+00 4.7622031559045981e+00 0.0000000000000000e+00 0 0 0
978 2 3.9685026299204984e+00 5.5559036818886973e+00 0.0000000000000000e+00 0 0 0
879 2 5.5559036818886973e+00 4.7622031559045981e+00 -7.9370052598409924e-01 0 0 0
880 2 4.7622031559045981e+00 5.5559036818886973e+00 -7.9370052598409924e-01 0 0 0
979 2 4.7622031559045981e+00 4.7622031559045981e+00 0.0000000000000000e+00 0 0 0
980 2 5.5559036818886973e+00 5.5559036818886973e+00 0.0000000000000000e+00 0 0 0
883 2 7.1433047338568993e+00 4.7622031559045981e+00 -7.9370052598409924e-01 0 0 0
884 2 6.3496042078727983e+00 5.5559036818886973e+00 -7.9370052598409924e-01 0 0 0
981 2 6.3496042078727983e+00 4.7622031559045981e+00 0.0000000000000000e+00 0 0 0
982 2 7.1433047338568993e+00 5.5559036818886973e+00 0.0000000000000000e+00 0 0 0
887 2 8.7307057858250960e+00 4.7622031559045981e+00 -7.9370052598409924e-01 0 0 0
888 2 7.9370052598409968e+00 5.5559036818886973e+00 -7.9370052598409924e-01 0 0 0
983 2 7.9370052598409968e+00 4.7622031559045981e+00 0.0000000000000000e+00 0 0 0
984 2 8.7307057858250960e+00 5.5559036818886973e+00 0.0000000000000000e+00 0 0 0
891 2 7.9370052598409979e-01 6.3496042078727983e+00 -7.9370052598409924e-01 0 0 0
892 2 0.0000000000000000e+00 7.1433047338568993e+00 -7.9370052598409924e-01 0 0 0
985 2 0.0000000000000000e+00 6.3496042078727983e+00 0.0000000000000000e+00 0 0 0
986 2 7.9370052598409979e-01 7.1433047338568993e+00 0.0000000000000000e+00 0 0 0
895 2 2.3811015779522990e+00 6.3496042078727983e+00 -7.9370052598409924e-01 0 0 0
896 2 1.5874010519681996e+00 7.1433047338568993e+00 -7.9370052598409924e-01 0 0 0
987 2 1.5874010519681996e+00 6.3496042078727983e+00 0.0000000000000000e+00 0 0 0
988 2 2.3811015779522990e+00 7.1433047338568993e+00 0.0000000000000000e+00 0 0 0
899 2 3.9685026299204984e+00 6.3496042078727983e+00 -7.9370052598409924e-01 0 0 0
900 2 3.1748021039363992e+00 7.1433047338568993e+00 -7.9370052598409924e-01 0 0 0
989 2 3.1748021039363992e+00 6.3496042078727983e+00 0.0000000000000000e+00 0 0 0
990 2 3.9685026299204984e+00 7.1433047338568993e+00 0.0000000000000000e+00 0 0 0
903 2 5.5559036818886973e+00 6.3496042078727983e+00 -7.9370052598409924e-01 0 0 0
904 2 4.7622031559045981e+00 7.1433047338568993e+00 -7.9370052598409924e-01 0 0 0
991 2 4.7622031559045981e+00 6.3496042078727983e+00 0.0000000000000000e+00 0 0 0
992 2 5.5559036818886973e+00 7.1433047338568993e+00 0.0000000000000000e+00 0 0 0
907 2 7.1433047338568993e+00 6.3496042078727983e+00 -7.9370052598409924e-01 0 0 0
908 2 6.3496042078727983e+00 7.1433047338568993e+00 -7.9370052598409924e-01 0 0 0
993 2 6.3496042078727983e+00 6.3496042078727983e+00 0.0000000000000000e+00 0 0 0
994 2 7.1433047338568993e+00 7.1433047338568993e+00 0.0000000000000000e+00 0 0 0
911 2 8.7307057858250960e+00 6.3496042078727983e+00 -7.9370052598409924e-01 0 0 0
912 2 7.9370052598409968e+00 7.1433047338568993e+00 -7.9370052598409924e-01 0 0 0
995 2 7.9370052598409968e+00 6.3496042078727983e+00 0.0000000000000000e+00 0 0 0
996 2 8.7307057858250960e+00 7.1433047338568993e+00 0.0000000000000000e+00 0 0 0
915 2 7.9370052598409979e-01 7.9370052598409968e+00 -7.9370052598409924e-01 0 0 0
916 2 0.0000000000000000e+00 8.7307057858250960e+00 -7.9370052598409924e-01 0 0 0
997 2 0.0000000000000000e+00 7.9370052598409968e+00 0.0000000000000000e+00 0 0 0
998 2 7.9370052598409979e-01 8.7307057858250960e+00 0.0000000000000000e+00 0 0 0
919 2 2.3811015779522990e+00 7.9370052598409968e+00 -7.9370052598409924e-01 0 0 0
920 2 1.5874010519681996e+00 8.7307057858250960e+00 -7.9370052598409924e-01 0 0 0
999 2 1.5874010519681996e+00 7.9370052598409968e+00 0.0000000000000000e+00 0 0 0
1000 2 2.3811015779522990e+00 8.7307057858250960e+00 0.0000000000000000e+00 0 0 0
923 2 3.9685026299204984e+00 7.9370052598409968e+00 -7.9370052598409924e-01 0 0 0
924 2 3.1748021039363992e+00 8.7307057858250960e+00 -7.9370052598409924e-01 0 0 0
1001 2 3.1748021039363992e+00 7.9370052598409968e+00 0.0000000000000000e+00 0 0 0
1002 2 3.9685026299204984e+00 8.7307057858250960e+00 0.0000000000000000e+00 0 0 0
927 2 5.5559036818886973e+00 7.9370052598409968e+00 -7.9370052598409924e-01 0 0 0
928 2 4.7622031559045981e+00 8.7307057858250960e+00 -7.9370052598409924e-01 0 0 0
1003 2 4.7622031559045981e+00 7.9370052598409968e+00 0.0000000000000000e+00 0 0 0
1004 2 5.5559036818886973e+00 8.7307057858250960e+00 0.0000000000000000e+00 0 0 0
931 2 7.1433047338568993e+00 7.9370052598409968e+00 -7.9370052598409924e-01 0 0 0
932 2 6.3496042078727983e+00 8.7307057858250960e+00 -7.9370052598409924e-01 0 0 0
1005 2 6.3496042078727983e+00 7.9370052598409968e+00 0.0000000000000000e+00 0 0 0
1006 2 7.1433047338568993e+00 8.7307057858250960e+00 0.0000000000000000e+00 0 0 0
935 2 8.7307057858250960e+00 7.9370052598409968e+00 -7.9370052598409924e-01 0 0 0
936 2 7.9370052598409968e+00 8.7307057858250960e+00 -7.9370052598409924e-01 0 0 0
1007 2 7.9370052598409968e+00 7.9370052598409968e+00 0.0000000000000000e+00 0 0 0
1008 2 8.7307057858250960e+00 8.7307057858250960e+00 0.0000000000000000e+00 0 0 0
189 1 1.3887035930193850e+00 9.6443047942402793e-01 9.8823228629224491e-01 0 1 0
575 1 1.4274352200685940e+00 1.4930614363689618e+00 1.8570539853301360e+00 1 0 0
349 1 5.5159299982031240e-01 4.9062844944486361e-01 1.5124564427742360e+00 1 1 0
216 1 3.7830289542434192e-01 1.5639962540224992e+00 1.3432448374020345e+00 1 1 0
55 1 1.9750287912689981e+00 2.5768305213803416e-01 1.7428116063841796e+00 1 1 0
111 1 3.5827565707557794e+00 5.8906094545476617e-01 1.0489902856335147e+00 0 0 0
624 1 4.4186537476094037e+00 1.4541308304734797e+00 9.9970278911426691e-01 0 1 0
263 1 5.3856006768793039e+00 7.1992721677160187e-01 1.3730304119323515e+00 1 0 0
31 1 7.1004544113457015e+00 4.3495991902128556e-01 1.0698214459037216e+00 0 1 0
603 1 6.8561530718678396e+00 1.5052634400370188e+00 1.2333409979206125e+00 0 0 0
281 1 8.0316719589679888e+00 1.1148324810573511e+00 1.1874606270746777e+00 -1 0 0
22 1 8.4978329476281260e+00 1.7816953403041130e-01 8.8117126998247863e-01 0 1 0
321 1 9.0561495847757367e+00 1.0599770851269745e+00 1.6617977211617008e+00 0 1 0
251 1 8.4076590052596600e+00 2.6264447971193772e-01 1.9523618641599669e+00 -1 1 0
470 1 3.0623665403758552e-02 2.8888641843142508e+00 1.0573831609786952e+00 0 0 0
355 1 1.1418667595573984e+00 2.7317291917619326e+00 1.0575956147070533e+00 1 1 0
417 1 5.1728619636257844e-01 2.8247604334794847e+00 1.9860684570268854e+00 0 1 0
288 1 2.7306606801635556e+00 2.0303263423122875e+00 1.0034125464042467e+00 1 2 0
375 1 3.6638789796655211e+00 1.9910854610863771e+00 1.6089477883631074e+00 0 2 0
270 1 4.6698019383089129e+00 1.9976536501697884e+00 1.7975841437315547e+00 0 1 0
398 1 4.8357658607360721e+00 3.0030359292308466e+00 1.6326889749121238e+00 0 0 0
109 1 6.0507479267861530e+00 2.3986670597148758e+00 1.1358980440669157e+00 -2 2 0
545 1 8.7844935973101475e+00 1.7445221456769211e+00 7.9088531583347665e-01 0 1 0
700 1 8.4768197316002905e+00 2.8864260924251104e+00 8.9632509206101607e-01 0 0 0
256 1 8.5259831487511288e+00 1.9604421933239242e+00 1.7018228825974882e+00 0 0 0
57 1 1.0933484875703767e+00 3.7998605800826795e+00 1.1429284943096927e+00 1 0 0
225 1 2.3118241109824997e+00 3.6931607591183542e+00 1.5347268814233106e+00 0 0 0
211 1 2.1885116961775020e+00 4.7473637039361307e+00 7.7988125770797667e-01 1 1 0
16 1 3.8414323228903053e+00 4.5056120156243464e+00 1.7620663491838218e+00 0 0 0
435 1 3.9289905658849360e+00 3.4395497323463546e+00 1.6016151797402647e+00 0 0 0
348 1 3.2728893199792326e+00 4.0839168747871373e+00 9.3000188487682001e-01 -1 2 0
5 1 4.6895084948294565e+00 4.2253163250468511e+00 1.1454178205122150e+00 1 2 0
358 1 5.9822540668934732e+00 4.5126426897365510e+00 1.0397200230047050e+00 0 0 0
12 1 7.5137758076840582e+00 3.6363046735086306e+00 1.2107024140230909e+00 0 0 0
654 1 6.4191256228277540e+00 3.4584416187056215e+00 1.6477573909581575e+00 -1 1 0
49 1 9.3433668152451492e+00 4.3975516334041425e+00 9.9598726282789252e-01 -2 1 0
467 1 8.7563012799208781e+00 3.7263584957281157e+00 1.6071254701217317e+00 1 0 0
121 1 8.3019907531825741e+00 4.6679316223340175e+00 1.4269803695048098e+00 0 0 0
311 1 1.1253134598153960e+00 5.2955997910576622e+00 1.0407061420624450e+00 1 1 0
86 1 2.0826587216536308e-01 6.0033497866260008e+00 1.0761879585385754e+00 1 0 0
745 1 2.7327751508308649e+00 5.9127188948638167e+00 1.8144177914745718e+00 1 2 0
772 1 4.3942624541702076e+00 5.9381534188483167e+00 1.3371081244885088e+00 1 -1 0
223 1 3.9014398620069439e+00 4.9586114728480748e+00 7.8698639307304208e-01 1 0 0
269 1 5.8477373057172262e+00 6.3390843058440582e+00 1.0216969722334419e+00 0 1 0
559 1 5.4112263683525139e+00 4.9616146148130511e+00 2.0251168676681193e+00 -1 0 0
353 1 7.1980999583811389e+00 5.2120721130736047e+00 1.7642846736721687e+00 0 1 0
446 1 6.9337656741605640e+00 4.9371290994370192e+00 8.1979862689016259e-01 -1 1 0
147 1 6.8757723827470274e+00 6.0960387828984404e+00 1.0417633685962133e+00 -1 1 0
439 1 7.9499072376016038e+00 5.7927233011342310e+00 9.2829236487336886e-01 -1 0 0
310 1 9.0637386813346179e+00 5.3846767273485794e+00 1.5220764763824066e+00 1 1 0
206 1 8.3239321468871399e+00 5.9477081144024257e+00 1.8730689221200649e+00 1 0 0
648 1 7.2731145819607823e-01 6.9548750779884285e+00 1.4245507604120704e+00 1 0 0
450 1 7.7227876647269833e-01 7.8978783354527193e+00 8.2143743781652134e-01 1 0 0
237 1 1.7454870164695224e+00 6.4287841498637093e+00 1.4866685942109130e+00 0 0 0
596 1 1.6937541784004966e+00 7.3340366171978326e+00 8.2760460250426027e-01 1 0 0
604 1 2.9474328789783564e+00 7.3431778355630772e+00 7.5865868258650015e-01 1 0 0
276 1 3.5124847815265685e+00 6.8606839648093034e+00 1.7477140758714809e+00 0 0 0
36 1 4.7895791235676857e+00 7.7036197959871169e+00 1.8789056798312882e+00 0 0 0
93 1 5.7510715090203846e+00 7.0218270658866695e+00 1.8643581649786207e+00 2 0 0
240 1 6.4953476029508579e+00 7.2332071565243776e+00 9.0633447738259343e-01 1 -1 0
466 1 7.1242895956139183e+00 6.8373838116304348e+00 1.8176104765424577e+00 0 0 0
210 1 7.6579637923166022e+00 7.4930959054100832e+00 9.0137952281118905e-01 0 0 0
333 1 7.4318434352029961e+00 7.8931702499038678e+00 1.8970764695591629e+00 0 0 0
670 1 9.1743384857154133e+00 6.7167295329985501e+00 1.8496194667988226e+00 0 0 0
140 1 8.1168335876890367e+00 7.1035370158455935e+00 1.6815571666814628e+00 0 -1 0
7 1 8.8396630856634566e+00 6.5245074207441220e+00 8.2140076858251720e-01 0 -1 0
285 1 9.3328207654552191e+00 7.4740298308622890e+00 9.5782337775250037e-01 1 1 0
394 1 5.1457872724117593e-01 8.6570230435747106e+00 1.4948884742475501e+00 0 0 0
781 1 1.4337244728262231e+00 7.9389594942882260e+00 1.5744948386030115e+00 0 0 0
215 1 1.2820766291825116e+00 9.3717166628016262e+00 1.0242713597386390e+00 0 0 0
390 1 2.2364061362708076e+00 8.5769643176543688e+00 9.4989967041278844e-01 1 0 0
246 1 4.3399957962171740e+00 8.9675988871998236e+00 1.9524943766550396e+00 1 -1 0
771 1 3.2171691456115421e+00 9.0801971536537636e+00 1.0831878959377768e+00 1 0 0
87 1 3.6519569136416323e+00 8.2259842685587863e+00 9.3617337101880260e-01 1 -1 0
4 1 6.0992855717412047e+00 9.4554965627199525e+00 1.5661204111131393e+00 1 -1 0
185 1 4.7644125931431685e+00 8.7255182105977855e+00 9.0862128411093002e-01 1 0 0
52 1 7.9048832790477466e+00 8.4292113107303361e+00 1.0717178640078862e+00 -2 0 0
32 1 7.1598104648187668e+00 9.1623398862022043e+00 1.7914110874744249e+00 0 1 0
744 1 6.3776087416876104e+00 8.2904484010795176e+00 1.4671598424621479e+00 0 0 0
123 1 6.6886292334641260e+00 9.0277923974007823e+00 7.7417834757356474e-01 0 1 0
320 1 9.0635014572589068e+00 8.9369737211061508e+00 1.6449201563374520e+00 -1 0 0
679 1 9.4311364993561799e+00 8.7500509917944971e+00 7.0567771676283020e-01 -1 0 0
112 1 8.7979918322451596e+00 7.9495506859490890e+00 1.8124150188207659e+00 1 0 0
11 1 1.0145209042829710e+00 7.9335478589849673e-01 2.4900898528351889e+00 2 1 0
497 1 1.3295783650342041e-01 1.5790009340823399e+00 2.4550141225692599e+00 0 0 0
24 1 1.7655590649688384e+00 1.4956878333616819e-01 2.9414490101269788e+00 2 1 0
709 1 3.1618598750338496e+00 5.0508100285035051e-01 2.0962224790357049e+00 0 1 0
74 1 1.8233268244291132e+00 1.3237764198678328e+00 3.0617177829302129e+00 0 3 0
318 1 2.4134590635154760e+00 1.4468576684067560e+00 2.1161841955970537e+00 0 1 0
98 1 2.4924288931726166e+00 5.6395031809805674e-01 3.5283793802039405e+00 0 1 0
89 1 4.3153945726262686e+00 1.1530563756605436e+00 2.4051898043193494e+00 1 0 0
525 1 3.4900195939069745e+00 5.5237545553071976e-01 3.0844552541293870e+00 0 1 0
151 1 5.3404116731464164e+00 1.4335822758490377e+00 2.2792817101081284e+00 -1 1 0
110 1 5.8649860762759332e+00 1.5139451553819203e+00 3.5156745831285390e+00 0 2 0
78 1 5.0152709663625910e+00 9.7395887278700266e-01 3.2611717912369640e+00 0 0 0
341 1 4.9620176203028281e+00 4.8001241195484115e-02 2.6497246651476707e+00 2 1 0
186 1 6.0629679506506715e+00 5.3796531236416001e-01 2.3943413109646041e+00 0 1 0
650 1 7.3149139051488596e+00 2.3658998559164893e-01 2.6438017646284195e+00 0 2 0
452 1 6.8257589586895877e+00 1.4453801996333135e+00 2.8731885344982246e+00 1 1 0
617 1 7.8441222696672384e+00 1.4537305683183117e+00 3.4782324106065921e+00 0 0 0
338 1 8.5689599869154733e+00 6.8820148303026085e-01 2.9864717191864139e+00 -1 1 0
155 1 9.4744559846638676e+00 4.4517645648662807e-01 2.3963975137952005e+00 0 0 0
107 1 9.5165319309882257e+00 1.3643541874905787e+00 3.4587891707434357e+00 -1 1 0
402 1 7.9697660003834141e+00 1.0955238090760844e+00 2.3310566504065129e+00 -1 1 0
168 1 1.1023487820467624e-01 2.5141657173398904e+00 3.2278579978294735e+00 0 1 0
590 1 1.0124622460197308e+00 1.6926462057908869e+00 3.5247313853074091e+00 0 1 0
454 1 1.1943807627584715e+00 2.1248561481758808e+00 2.5275355121828418e+00 0 1 0
359 1 1.1494185547567330e+00 3.0231664821906148e+00 3.1310545282040505e+00 1 0 0
451 1 1.5812396693566697e+00 2.8467904151251555e+00 2.0581733141682039e+00 0 0 0
169 1 2.4534486491425214e+00 2.1191524764417085e+00 3.5667541093556809e+00 1 2 0
28 1 2.3200710079191293e+00 2.9757357576128332e+00 2.9287749822556268e+00 0 1 0
142 1 3.4362104229108374e+00 2.1329167895388879e+00 2.8128550656808957e+00 0 1 0
582 1 4.4104788909120654e+00 2.0500877916185085e+00 3.0908316321543126e+00 1 1 0
487 1 4.1882600596227810e+00 3.0794406548661750e+00 2.5647673178342285e+00 -1 -1 0
611 1 5.5908713016738076e+00 2.7490836253512079e+00 2.9139390589286354e+00 0 1 0
521 1 6.5777520460822183e+00 2.4136927960342183e+00 3.3000381807622063e+00 0 1 0
268 1 7.7225700746201174e+00 2.5344936738002599e+00 3.5076572910547545e+00 0 1 0
346 1 6.4289635168508967e+00 2.2509294267100763e+00 2.2840492570180602e+00 -1 0 0
94 1 7.6415296501059480e+00 2.1006953221290114e+00 2.5920473559744179e+00 1 0 0
542 1 8.7351946468515163e+00 3.0808384475592825e+00 3.5418505814821679e+00 -1 0 0
83 1 8.9273427288853977e+00 2.9062377394139634e+00 2.1899911707240238e+00 0 0 0
414 1 8.6816778784263917e+00 2.0723379410211100e+00 2.7551548221793625e+00 -1 1 0
400 1 9.6130342870167917e-01 3.8236977590869063e+00 2.2685270746789916e+00 0 0 0
407 1 2.9985481017602837e+00 3.6329317964354702e+00 2.4386197925305240e+00 1 -1 0
97 1 1.9475855952147925e+00 3.8970675476184722e+00 2.7037011654404539e+00 -1 1 0
18 1 2.0584006141172875e+00 4.4798395323459328e+00 3.4550074343313604e+00 1 0 0
336 1 4.5635864841695541e+00 4.1191039908738851e+00 2.4236479217184610e+00 1 1 0
350 1 3.6169419859916734e+00 3.1903807434360449e+00 3.4573904236944064e+00 0 0 0
166 1 3.4159628958306967e+00 4.4607664710906700e+00 2.9023278314379759e+00 0 1 0
460 1 5.5784078276070765e+00 3.9561240683938901e+00 2.3115081675748277e+00 -1 1 0
301 1 6.0896289862752120e+00 3.8125387212455779e+00 3.4590911345902584e+00 0 0 0
180 1 4.8914396531217434e+00 3.5347033299934107e+00 3.3869863914288154e+00 0 1 0
196 1 7.3416833054813315e+00 4.4492466038004892e+00 2.8412960942673782e+00 -1 0 0
242 1 6.9238548217609912e+00 3.4395381757550529e+00 2.8620369126406233e+00 0 1 0
577 1 6.4652932747599552e+00 4.4694976882523703e+00 2.0532065486082640e+00 -1 0 0
69 1 9.4886142998460503e+00 3.6449097868686460e+00 2.6888258674414240e+00 -1 0 0
128 1 9.1672048315640069e+00 4.5841452188208223e+00 2.0962254317632105e+00 -2 1 0
306 1 8.6986370579544747e+00 4.2288686116524508e+00 3.2663440218948301e+00 0 1 0
81 1 8.0649194599742220e+00 3.4219105137745371e+00 2.5913927414064166e+00 0 0 0
192 1 3.5558377146176995e-01 4.9082465452656390e+00 3.1313748020401913e+00 1 1 0
297 1 9.3885465114263189e-01 5.8987460881713760e+00 2.0361671379843869e+00 1 1 0
684 1 1.6261433589828072e+00 5.5082201127808874e+00 2.8722894508279078e+00 0 0 0
43 1 2.7218578938795797e+00 5.5240179833725236e+00 2.7853713179959589e+00 0 1 0
356 1 2.1322041152613509e+00 6.1897394417167924e+00 3.5317127591909570e+00 1 1 0
354 1 2.8542298304454121e+00 4.8112106290695174e+00 2.0324274577995660e+00 0 1 0
37 1 4.1441869750325253e+00 5.6178007662555931e+00 2.5691938612663225e+00 -1 1 0
204 1 4.6568290943515764e+00 4.8626091539560781e+00 3.3828350412117763e+00 0 1 0
309 1 3.3120632939711347e+00 6.0761143729420839e+00 3.5064195018734230e+00 -1 -1 0
238 1 4.4941495103608089e+00 5.8964661400272700e+00 3.4552848880878479e+00 1 -1 0