Created	by	AJB		

3456 atoms			
2 atom types		

0 100.224 xlo xhi	
0 100.224 ylo yhi	
0 100.224 zlo zhi	

Masses				

1 6.941	#	Li	nuclei
2 1.000	#	electrons	

Atoms				

1	1	8.352	8.352	8.352	3	0	0
2	1	16.704	16.704	8.352	3	0	0
3	1	8.352	16.704	16.704	3	0	0
4	1	16.704	8.352	16.704	3	0	0
5	1	8.352	8.352	25.056	3	0	0
6	1	16.704	16.704	25.056	3	0	0
7	1	8.352	16.704	33.408	3	0	0
8	1	16.704	8.352	33.408	3	0	0
9	1	8.352	8.352	41.76	3	0	0
10	1	16.704	16.704	41.76	3	0	0
11	1	8.352	16.704	50.112	3	0	0
12	1	16.704	8.352	50.112	3	0	0
13	1	8.352	8.352	58.464	3	0	0
14	1	16.704	16.704	58.464	3	0	0
15	1	8.352	16.704	66.816	3	0	0
16	1	16.704	8.352	66.816	3	0	0
17	1	8.352	8.352	75.168	3	0	0
18	1	16.704	16.704	75.168	3	0	0
19	1	8.352	16.704	83.52	3	0	0
20	1	16.704	8.352	83.52	3	0	0
21	1	8.352	8.352	91.872	3	0	0
22	1	16.704	16.704	91.872	3	0	0
23	1	8.352	16.704	100.224	3	0	0
24	1	16.704	8.352	100.224	3	0	0
25	1	8.352	25.056	8.352	3	0	0
26	1	16.704	33.408	8.352	3	0	0
27	1	8.352	33.408	16.704	3	0	0
28	1	16.704	25.056	16.704	3	0	0
29	1	8.352	25.056	25.056	3	0	0
30	1	16.704	33.408	25.056	3	0	0
31	1	8.352	33.408	33.408	3	0	0
32	1	16.704	25.056	33.408	3	0	0
33	1	8.352	25.056	41.76	3	0	0
34	1	16.704	33.408	41.76	3	0	0
35	1	8.352	33.408	50.112	3	0	0
36	1	16.704	25.056	50.112	3	0	0
37	1	8.352	25.056	58.464	3	0	0
38	1	16.704	33.408	58.464	3	0	0
39	1	8.352	33.408	66.816	3	0	0
40	1	16.704	25.056	66.816	3	0	0
41	1	8.352	25.056	75.168	3	0	0
42	1	16.704	33.408	75.168	3	0	0
43	1	8.352	33.408	83.52	3	0	0
44	1	16.704	25.056	83.52	3	0	0
45	1	8.352	25.056	91.872	3	0	0
46	1	16.704	33.408	91.872	3	0	0
47	1	8.352	33.408	100.224	3	0	0
48	1	16.704	25.056	100.224	3	0	0
49	1	8.352	41.76	8.352	3	0	0
50	1	16.704	50.112	8.352	3	0	0
51	1	8.352	50.112	16.704	3	0	0
52	1	16.704	41.76	16.704	3	0	0
53	1	8.352	41.76	25.056	3	0	0
54	1	16.704	50.112	25.056	3	0	0
55	1	8.352	50.112	33.408	3	0	0
56	1	16.704	41.76	33.408	3	0	0
57	1	8.352	41.76	41.76	3	0	0
58	1	16.704	50.112	41.76	3	0	0
59	1	8.352	50.112	50.112	3	0	0
60	1	16.704	41.76	50.112	3	0	0
61	1	8.352	41.76	58.464	3	0	0
62	1	16.704	50.112	58.464	3	0	0
63	1	8.352	50.112	66.816	3	0	0
64	1	16.704	41.76	66.816	3	0	0
65	1	8.352	41.76	75.168	3	0	0
66	1	16.704	50.112	75.168	3	0	0
67	1	8.352	50.112	83.52	3	0	0
68	1	16.704	41.76	83.52	3	0	0
69	1	8.352	41.76	91.872	3	0	0
70	1	16.704	50.112	91.872	3	0	0
71	1	8.352	50.112	100.224	3	0	0
72	1	16.704	41.76	100.224	3	0	0
73	1	8.352	58.464	8.352	3	0	0
74	1	16.704	66.816	8.352	3	0	0
75	1	8.352	66.816	16.704	3	0	0
76	1	16.704	58.464	16.704	3	0	0
77	1	8.352	58.464	25.056	3	0	0
78	1	16.704	66.816	25.056	3	0	0
79	1	8.352	66.816	33.408	3	0	0
80	1	16.704	58.464	33.408	3	0	0
81	1	8.352	58.464	41.76	3	0	0
82	1	16.704	66.816	41.76	3	0	0
83	1	8.352	66.816	50.112	3	0	0
84	1	16.704	58.464	50.112	3	0	0
85	1	8.352	58.464	58.464	3	0	0
86	1	16.704	66.816	58.464	3	0	0
87	1	8.352	66.816	66.816	3	0	0
88	1	16.704	58.464	66.816	3	0	0
89	1	8.352	58.464	75.168	3	0	0
90	1	16.704	66.816	75.168	3	0	0
91	1	8.352	66.816	83.52	3	0	0
92	1	16.704	58.464	83.52	3	0	0
93	1	8.352	58.464	91.872	3	0	0
94	1	16.704	66.816	91.872	3	0	0
95	1	8.352	66.816	100.224	3	0	0
96	1	16.704	58.464	100.224	3	0	0
97	1	8.352	75.168	8.352	3	0	0
98	1	16.704	83.52	8.352	3	0	0
99	1	8.352	83.52	16.704	3	0	0
100	1	16.704	75.168	16.704	3	0	0
101	1	8.352	75.168	25.056	3	0	0
102	1	16.704	83.52	25.056	3	0	0
103	1	8.352	83.52	33.408	3	0	0
104	1	16.704	75.168	33.408	3	0	0
105	1	8.352	75.168	41.76	3	0	0
106	1	16.704	83.52	41.76	3	0	0
107	1	8.352	83.52	50.112	3	0	0
108	1	16.704	75.168	50.112	3	0	0
109	1	8.352	75.168	58.464	3	0	0
110	1	16.704	83.52	58.464	3	0	0
111	1	8.352	83.52	66.816	3	0	0
112	1	16.704	75.168	66.816	3	0	0
113	1	8.352	75.168	75.168	3	0	0
114	1	16.704	83.52	75.168	3	0	0
115	1	8.352	83.52	83.52	3	0	0
116	1	16.704	75.168	83.52	3	0	0
117	1	8.352	75.168	91.872	3	0	0
118	1	16.704	83.52	91.872	3	0	0
119	1	8.352	83.52	100.224	3	0	0
120	1	16.704	75.168	100.224	3	0	0
121	1	8.352	91.872	8.352	3	0	0
122	1	16.704	100.224	8.352	3	0	0
123	1	8.352	100.224	16.704	3	0	0
124	1	16.704	91.872	16.704	3	0	0
125	1	8.352	91.872	25.056	3	0	0
126	1	16.704	100.224	25.056	3	0	0
127	1	8.352	100.224	33.408	3	0	0
128	1	16.704	91.872	33.408	3	0	0
129	1	8.352	91.872	41.76	3	0	0
130	1	16.704	100.224	41.76	3	0	0
131	1	8.352	100.224	50.112	3	0	0
132	1	16.704	91.872	50.112	3	0	0
133	1	8.352	91.872	58.464	3	0	0
134	1	16.704	100.224	58.464	3	0	0
135	1	8.352	100.224	66.816	3	0	0
136	1	16.704	91.872	66.816	3	0	0
137	1	8.352	91.872	75.168	3	0	0
138	1	16.704	100.224	75.168	3	0	0
139	1	8.352	100.224	83.52	3	0	0
140	1	16.704	91.872	83.52	3	0	0
141	1	8.352	91.872	91.872	3	0	0
142	1	16.704	100.224	91.872	3	0	0
143	1	8.352	100.224	100.224	3	0	0
144	1	16.704	91.872	100.224	3	0	0
145	1	25.056	8.352	8.352	3	0	0
146	1	33.408	16.704	8.352	3	0	0
147	1	25.056	16.704	16.704	3	0	0
148	1	33.408	8.352	16.704	3	0	0
149	1	25.056	8.352	25.056	3	0	0
150	1	33.408	16.704	25.056	3	0	0
151	1	25.056	16.704	33.408	3	0	0
152	1	33.408	8.352	33.408	3	0	0
153	1	25.056	8.352	41.76	3	0	0
154	1	33.408	16.704	41.76	3	0	0
155	1	25.056	16.704	50.112	3	0	0
156	1	33.408	8.352	50.112	3	0	0
157	1	25.056	8.352	58.464	3	0	0
158	1	33.408	16.704	58.464	3	0	0
159	1	25.056	16.704	66.816	3	0	0
160	1	33.408	8.352	66.816	3	0	0
161	1	25.056	8.352	75.168	3	0	0
162	1	33.408	16.704	75.168	3	0	0
163	1	25.056	16.704	83.52	3	0	0
164	1	33.408	8.352	83.52	3	0	0
165	1	25.056	8.352	91.872	3	0	0
166	1	33.408	16.704	91.872	3	0	0
167	1	25.056	16.704	100.224	3	0	0
168	1	33.408	8.352	100.224	3	0	0
169	1	25.056	25.056	8.352	3	0	0
170	1	33.408	33.408	8.352	3	0	0
171	1	25.056	33.408	16.704	3	0	0
172	1	33.408	25.056	16.704	3	0	0
173	1	25.056	25.056	25.056	3	0	0
174	1	33.408	33.408	25.056	3	0	0
175	1	25.056	33.408	33.408	3	0	0
176	1	33.408	25.056	33.408	3	0	0
177	1	25.056	25.056	41.76	3	0	0
178	1	33.408	33.408	41.76	3	0	0
179	1	25.056	33.408	50.112	3	0	0
180	1	33.408	25.056	50.112	3	0	0
181	1	25.056	25.056	58.464	3	0	0
182	1	33.408	33.408	58.464	3	0	0
183	1	25.056	33.408	66.816	3	0	0
184	1	33.408	25.056	66.816	3	0	0
185	1	25.056	25.056	75.168	3	0	0
186	1	33.408	33.408	75.168	3	0	0
187	1	25.056	33.408	83.52	3	0	0
188	1	33.408	25.056	83.52	3	0	0
189	1	25.056	25.056	91.872	3	0	0
190	1	33.408	33.408	91.872	3	0	0
191	1	25.056	33.408	100.224	3	0	0
192	1	33.408	25.056	100.224	3	0	0
193	1	25.056	41.76	8.352	3	0	0
194	1	33.408	50.112	8.352	3	0	0
195	1	25.056	50.112	16.704	3	0	0
196	1	33.408	41.76	16.704	3	0	0
197	1	25.056	41.76	25.056	3	0	0
198	1	33.408	50.112	25.056	3	0	0
199	1	25.056	50.112	33.408	3	0	0
200	1	33.408	41.76	33.408	3	0	0
201	1	25.056	41.76	41.76	3	0	0
202	1	33.408	50.112	41.76	3	0	0
203	1	25.056	50.112	50.112	3	0	0
204	1	33.408	41.76	50.112	3	0	0
205	1	25.056	41.76	58.464	3	0	0
206	1	33.408	50.112	58.464	3	0	0
207	1	25.056	50.112	66.816	3	0	0
208	1	33.408	41.76	66.816	3	0	0
209	1	25.056	41.76	75.168	3	0	0
210	1	33.408	50.112	75.168	3	0	0
211	1	25.056	50.112	83.52	3	0	0
212	1	33.408	41.76	83.52	3	0	0
213	1	25.056	41.76	91.872	3	0	0
214	1	33.408	50.112	91.872	3	0	0
215	1	25.056	50.112	100.224	3	0	0
216	1	33.408	41.76	100.224	3	0	0
217	1	25.056	58.464	8.352	3	0	0
218	1	33.408	66.816	8.352	3	0	0
219	1	25.056	66.816	16.704	3	0	0
220	1	33.408	58.464	16.704	3	0	0
221	1	25.056	58.464	25.056	3	0	0
222	1	33.408	66.816	25.056	3	0	0
223	1	25.056	66.816	33.408	3	0	0
224	1	33.408	58.464	33.408	3	0	0
225	1	25.056	58.464	41.76	3	0	0
226	1	33.408	66.816	41.76	3	0	0
227	1	25.056	66.816	50.112	3	0	0
228	1	33.408	58.464	50.112	3	0	0
229	1	25.056	58.464	58.464	3	0	0
230	1	33.408	66.816	58.464	3	0	0
231	1	25.056	66.816	66.816	3	0	0
232	1	33.408	58.464	66.816	3	0	0
233	1	25.056	58.464	75.168	3	0	0
234	1	33.408	66.816	75.168	3	0	0
235	1	25.056	66.816	83.52	3	0	0
236	1	33.408	58.464	83.52	3	0	0
237	1	25.056	58.464	91.872	3	0	0
238	1	33.408	66.816	91.872	3	0	0
239	1	25.056	66.816	100.224	3	0	0
240	1	33.408	58.464	100.224	3	0	0
241	1	25.056	75.168	8.352	3	0	0
242	1	33.408	83.52	8.352	3	0	0
243	1	25.056	83.52	16.704	3	0	0
244	1	33.408	75.168	16.704	3	0	0
245	1	25.056	75.168	25.056	3	0	0
246	1	33.408	83.52	25.056	3	0	0
247	1	25.056	83.52	33.408	3	0	0
248	1	33.408	75.168	33.408	3	0	0
249	1	25.056	75.168	41.76	3	0	0
250	1	33.408	83.52	41.76	3	0	0
251	1	25.056	83.52	50.112	3	0	0
252	1	33.408	75.168	50.112	3	0	0
253	1	25.056	75.168	58.464	3	0	0
254	1	33.408	83.52	58.464	3	0	0
255	1	25.056	83.52	66.816	3	0	0
256	1	33.408	75.168	66.816	3	0	0
257	1	25.056	75.168	75.168	3	0	0
258	1	33.408	83.52	75.168	3	0	0
259	1	25.056	83.52	83.52	3	0	0
260	1	33.408	75.168	83.52	3	0	0
261	1	25.056	75.168	91.872	3	0	0
262	1	33.408	83.52	91.872	3	0	0
263	1	25.056	83.52	100.224	3	0	0
264	1	33.408	75.168	100.224	3	0	0
265	1	25.056	91.872	8.352	3	0	0
266	1	33.408	100.224	8.352	3	0	0
267	1	25.056	100.224	16.704	3	0	0
268	1	33.408	91.872	16.704	3	0	0
269	1	25.056	91.872	25.056	3	0	0
270	1	33.408	100.224	25.056	3	0	0
271	1	25.056	100.224	33.408	3	0	0
272	1	33.408	91.872	33.408	3	0	0
273	1	25.056	91.872	41.76	3	0	0
274	1	33.408	100.224	41.76	3	0	0
275	1	25.056	100.224	50.112	3	0	0
276	1	33.408	91.872	50.112	3	0	0
277	1	25.056	91.872	58.464	3	0	0
278	1	33.408	100.224	58.464	3	0	0
279	1	25.056	100.224	66.816	3	0	0
280	1	33.408	91.872	66.816	3	0	0
281	1	25.056	91.872	75.168	3	0	0
282	1	33.408	100.224	75.168	3	0	0
283	1	25.056	100.224	83.52	3	0	0
284	1	33.408	91.872	83.52	3	0	0
285	1	25.056	91.872	91.872	3	0	0
286	1	33.408	100.224	91.872	3	0	0
287	1	25.056	100.224	100.224	3	0	0
288	1	33.408	91.872	100.224	3	0	0
289	1	41.76	8.352	8.352	3	0	0
290	1	50.112	16.704	8.352	3	0	0
291	1	41.76	16.704	16.704	3	0	0
292	1	50.112	8.352	16.704	3	0	0
293	1	41.76	8.352	25.056	3	0	0
294	1	50.112	16.704	25.056	3	0	0
295	1	41.76	16.704	33.408	3	0	0
296	1	50.112	8.352	33.408	3	0	0
297	1	41.76	8.352	41.76	3	0	0
298	1	50.112	16.704	41.76	3	0	0
299	1	41.76	16.704	50.112	3	0	0
300	1	50.112	8.352	50.112	3	0	0
301	1	41.76	8.352	58.464	3	0	0
302	1	50.112	16.704	58.464	3	0	0
303	1	41.76	16.704	66.816	3	0	0
304	1	50.112	8.352	66.816	3	0	0
305	1	41.76	8.352	75.168	3	0	0
306	1	50.112	16.704	75.168	3	0	0
307	1	41.76	16.704	83.52	3	0	0
308	1	50.112	8.352	83.52	3	0	0
309	1	41.76	8.352	91.872	3	0	0
310	1	50.112	16.704	91.872	3	0	0
311	1	41.76	16.704	100.224	3	0	0
312	1	50.112	8.352	100.224	3	0	0
313	1	41.76	25.056	8.352	3	0	0
314	1	50.112	33.408	8.352	3	0	0
315	1	41.76	33.408	16.704	3	0	0
316	1	50.112	25.056	16.704	3	0	0
317	1	41.76	25.056	25.056	3	0	0
318	1	50.112	33.408	25.056	3	0	0
319	1	41.76	33.408	33.408	3	0	0
320	1	50.112	25.056	33.408	3	0	0
321	1	41.76	25.056	41.76	3	0	0
322	1	50.112	33.408	41.76	3	0	0
323	1	41.76	33.408	50.112	3	0	0
324	1	50.112	25.056	50.112	3	0	0
325	1	41.76	25.056	58.464	3	0	0
326	1	50.112	33.408	58.464	3	0	0
327	1	41.76	33.408	66.816	3	0	0
328	1	50.112	25.056	66.816	3	0	0
329	1	41.76	25.056	75.168	3	0	0
330	1	50.112	33.408	75.168	3	0	0
331	1	41.76	33.408	83.52	3	0	0
332	1	50.112	25.056	83.52	3	0	0
333	1	41.76	25.056	91.872	3	0	0
334	1	50.112	33.408	91.872	3	0	0
335	1	41.76	33.408	100.224	3	0	0
336	1	50.112	25.056	100.224	3	0	0
337	1	41.76	41.76	8.352	3	0	0
338	1	50.112	50.112	8.352	3	0	0
339	1	41.76	50.112	16.704	3	0	0
340	1	50.112	41.76	16.704	3	0	0
341	1	41.76	41.76	25.056	3	0	0
342	1	50.112	50.112	25.056	3	0	0
343	1	41.76	50.112	33.408	3	0	0
344	1	50.112	41.76	33.408	3	0	0
345	1	41.76	41.76	41.76	3	0	0
346	1	50.112	50.112	41.76	3	0	0
347	1	41.76	50.112	50.112	3	0	0
348	1	50.112	41.76	50.112	3	0	0
349	1	41.76	41.76	58.464	3	0	0
350	1	50.112	50.112	58.464	3	0	0
351	1	41.76	50.112	66.816	3	0	0
352	1	50.112	41.76	66.816	3	0	0
353	1	41.76	41.76	75.168	3	0	0
354	1	50.112	50.112	75.168	3	0	0
355	1	41.76	50.112	83.52	3	0	0
356	1	50.112	41.76	83.52	3	0	0
357	1	41.76	41.76	91.872	3	0	0
358	1	50.112	50.112	91.872	3	0	0
359	1	41.76	50.112	100.224	3	0	0
360	1	50.112	41.76	100.224	3	0	0
361	1	41.76	58.464	8.352	3	0	0
362	1	50.112	66.816	8.352	3	0	0
363	1	41.76	66.816	16.704	3	0	0
364	1	50.112	58.464	16.704	3	0	0
365	1	41.76	58.464	25.056	3	0	0
366	1	50.112	66.816	25.056	3	0	0
367	1	41.76	66.816	33.408	3	0	0
368	1	50.112	58.464	33.408	3	0	0
369	1	41.76	58.464	41.76	3	0	0
370	1	50.112	66.816	41.76	3	0	0
371	1	41.76	66.816	50.112	3	0	0
372	1	50.112	58.464	50.112	3	0	0
373	1	41.76	58.464	58.464	3	0	0
374	1	50.112	66.816	58.464	3	0	0
375	1	41.76	66.816	66.816	3	0	0
376	1	50.112	58.464	66.816	3	0	0
377	1	41.76	58.464	75.168	3	0	0
378	1	50.112	66.816	75.168	3	0	0
379	1	41.76	66.816	83.52	3	0	0
380	1	50.112	58.464	83.52	3	0	0
381	1	41.76	58.464	91.872	3	0	0
382	1	50.112	66.816	91.872	3	0	0
383	1	41.76	66.816	100.224	3	0	0
384	1	50.112	58.464	100.224	3	0	0
385	1	41.76	75.168	8.352	3	0	0
386	1	50.112	83.52	8.352	3	0	0
387	1	41.76	83.52	16.704	3	0	0
388	1	50.112	75.168	16.704	3	0	0
389	1	41.76	75.168	25.056	3	0	0
390	1	50.112	83.52	25.056	3	0	0
391	1	41.76	83.52	33.408	3	0	0
392	1	50.112	75.168	33.408	3	0	0
393	1	41.76	75.168	41.76	3	0	0
394	1	50.112	83.52	41.76	3	0	0
395	1	41.76	83.52	50.112	3	0	0
396	1	50.112	75.168	50.112	3	0	0
397	1	41.76	75.168	58.464	3	0	0
398	1	50.112	83.52	58.464	3	0	0
399	1	41.76	83.52	66.816	3	0	0
400	1	50.112	75.168	66.816	3	0	0
401	1	41.76	75.168	75.168	3	0	0
402	1	50.112	83.52	75.168	3	0	0
403	1	41.76	83.52	83.52	3	0	0
404	1	50.112	75.168	83.52	3	0	0
405	1	41.76	75.168	91.872	3	0	0
406	1	50.112	83.52	91.872	3	0	0
407	1	41.76	83.52	100.224	3	0	0
408	1	50.112	75.168	100.224	3	0	0
409	1	41.76	91.872	8.352	3	0	0
410	1	50.112	100.224	8.352	3	0	0
411	1	41.76	100.224	16.704	3	0	0
412	1	50.112	91.872	16.704	3	0	0
413	1	41.76	91.872	25.056	3	0	0
414	1	50.112	100.224	25.056	3	0	0
415	1	41.76	100.224	33.408	3	0	0
416	1	50.112	91.872	33.408	3	0	0
417	1	41.76	91.872	41.76	3	0	0
418	1	50.112	100.224	41.76	3	0	0
419	1	41.76	100.224	50.112	3	0	0
420	1	50.112	91.872	50.112	3	0	0
421	1	41.76	91.872	58.464	3	0	0
422	1	50.112	100.224	58.464	3	0	0
423	1	41.76	100.224	66.816	3	0	0
424	1	50.112	91.872	66.816	3	0	0
425	1	41.76	91.872	75.168	3	0	0
426	1	50.112	100.224	75.168	3	0	0
427	1	41.76	100.224	83.52	3	0	0
428	1	50.112	91.872	83.52	3	0	0
429	1	41.76	91.872	91.872	3	0	0
430	1	50.112	100.224	91.872	3	0	0
431	1	41.76	100.224	100.224	3	0	0
432	1	50.112	91.872	100.224	3	0	0
433	1	58.464	8.352	8.352	3	0	0
434	1	66.816	16.704	8.352	3	0	0
435	1	58.464	16.704	16.704	3	0	0
436	1	66.816	8.352	16.704	3	0	0
437	1	58.464	8.352	25.056	3	0	0
438	1	66.816	16.704	25.056	3	0	0
439	1	58.464	16.704	33.408	3	0	0
440	1	66.816	8.352	33.408	3	0	0
441	1	58.464	8.352	41.76	3	0	0
442	1	66.816	16.704	41.76	3	0	0
443	1	58.464	16.704	50.112	3	0	0
444	1	66.816	8.352	50.112	3	0	0
445	1	58.464	8.352	58.464	3	0	0
446	1	66.816	16.704	58.464	3	0	0
447	1	58.464	16.704	66.816	3	0	0
448	1	66.816	8.352	66.816	3	0	0
449	1	58.464	8.352	75.168	3	0	0
450	1	66.816	16.704	75.168	3	0	0
451	1	58.464	16.704	83.52	3	0	0
452	1	66.816	8.352	83.52	3	0	0
453	1	58.464	8.352	91.872	3	0	0
454	1	66.816	16.704	91.872	3	0	0
455	1	58.464	16.704	100.224	3	0	0
456	1	66.816	8.352	100.224	3	0	0
457	1	58.464	25.056	8.352	3	0	0
458	1	66.816	33.408	8.352	3	0	0
459	1	58.464	33.408	16.704	3	0	0
460	1	66.816	25.056	16.704	3	0	0
461	1	58.464	25.056	25.056	3	0	0
462	1	66.816	33.408	25.056	3	0	0
463	1	58.464	33.408	33.408	3	0	0
464	1	66.816	25.056	33.408	3	0	0
465	1	58.464	25.056	41.76	3	0	0
466	1	66.816	33.408	41.76	3	0	0
467	1	58.464	33.408	50.112	3	0	0
468	1	66.816	25.056	50.112	3	0	0
469	1	58.464	25.056	58.464	3	0	0
470	1	66.816	33.408	58.464	3	0	0
471	1	58.464	33.408	66.816	3	0	0
472	1	66.816	25.056	66.816	3	0	0
473	1	58.464	25.056	75.168	3	0	0
474	1	66.816	33.408	75.168	3	0	0
475	1	58.464	33.408	83.52	3	0	0
476	1	66.816	25.056	83.52	3	0	0
477	1	58.464	25.056	91.872	3	0	0
478	1	66.816	33.408	91.872	3	0	0
479	1	58.464	33.408	100.224	3	0	0
480	1	66.816	25.056	100.224	3	0	0
481	1	58.464	41.76	8.352	3	0	0
482	1	66.816	50.112	8.352	3	0	0
483	1	58.464	50.112	16.704	3	0	0
484	1	66.816	41.76	16.704	3	0	0
485	1	58.464	41.76	25.056	3	0	0
486	1	66.816	50.112	25.056	3	0	0
487	1	58.464	50.112	33.408	3	0	0
488	1	66.816	41.76	33.408	3	0	0
489	1	58.464	41.76	41.76	3	0	0
490	1	66.816	50.112	41.76	3	0	0
491	1	58.464	50.112	50.112	3	0	0
492	1	66.816	41.76	50.112	3	0	0
493	1	58.464	41.76	58.464	3	0	0
494	1	66.816	50.112	58.464	3	0	0
495	1	58.464	50.112	66.816	3	0	0
496	1	66.816	41.76	66.816	3	0	0
497	1	58.464	41.76	75.168	3	0	0
498	1	66.816	50.112	75.168	3	0	0
499	1	58.464	50.112	83.52	3	0	0
500	1	66.816	41.76	83.52	3	0	0
501	1	58.464	41.76	91.872	3	0	0
502	1	66.816	50.112	91.872	3	0	0
503	1	58.464	50.112	100.224	3	0	0
504	1	66.816	41.76	100.224	3	0	0
505	1	58.464	58.464	8.352	3	0	0
506	1	66.816	66.816	8.352	3	0	0
507	1	58.464	66.816	16.704	3	0	0
508	1	66.816	58.464	16.704	3	0	0
509	1	58.464	58.464	25.056	3	0	0
510	1	66.816	66.816	25.056	3	0	0
511	1	58.464	66.816	33.408	3	0	0
512	1	66.816	58.464	33.408	3	0	0
513	1	58.464	58.464	41.76	3	0	0
514	1	66.816	66.816	41.76	3	0	0
515	1	58.464	66.816	50.112	3	0	0
516	1	66.816	58.464	50.112	3	0	0
517	1	58.464	58.464	58.464	3	0	0
518	1	66.816	66.816	58.464	3	0	0
519	1	58.464	66.816	66.816	3	0	0
520	1	66.816	58.464	66.816	3	0	0
521	1	58.464	58.464	75.168	3	0	0
522	1	66.816	66.816	75.168	3	0	0
523	1	58.464	66.816	83.52	3	0	0
524	1	66.816	58.464	83.52	3	0	0
525	1	58.464	58.464	91.872	3	0	0
526	1	66.816	66.816	91.872	3	0	0
527	1	58.464	66.816	100.224	3	0	0
528	1	66.816	58.464	100.224	3	0	0
529	1	58.464	75.168	8.352	3	0	0
530	1	66.816	83.52	8.352	3	0	0
531	1	58.464	83.52	16.704	3	0	0
532	1	66.816	75.168	16.704	3	0	0
533	1	58.464	75.168	25.056	3	0	0
534	1	66.816	83.52	25.056	3	0	0
535	1	58.464	83.52	33.408	3	0	0
536	1	66.816	75.168	33.408	3	0	0
537	1	58.464	75.168	41.76	3	0	0
538	1	66.816	83.52	41.76	3	0	0
539	1	58.464	83.52	50.112	3	0	0
540	1	66.816	75.168	50.112	3	0	0
541	1	58.464	75.168	58.464	3	0	0
542	1	66.816	83.52	58.464	3	0	0
543	1	58.464	83.52	66.816	3	0	0
544	1	66.816	75.168	66.816	3	0	0
545	1	58.464	75.168	75.168	3	0	0
546	1	66.816	83.52	75.168	3	0	0
547	1	58.464	83.52	83.52	3	0	0
548	1	66.816	75.168	83.52	3	0	0
549	1	58.464	75.168	91.872	3	0	0
550	1	66.816	83.52	91.872	3	0	0
551	1	58.464	83.52	100.224	3	0	0
552	1	66.816	75.168	100.224	3	0	0
553	1	58.464	91.872	8.352	3	0	0
554	1	66.816	100.224	8.352	3	0	0
555	1	58.464	100.224	16.704	3	0	0
556	1	66.816	91.872	16.704	3	0	0
557	1	58.464	91.872	25.056	3	0	0
558	1	66.816	100.224	25.056	3	0	0
559	1	58.464	100.224	33.408	3	0	0
560	1	66.816	91.872	33.408	3	0	0
561	1	58.464	91.872	41.76	3	0	0
562	1	66.816	100.224	41.76	3	0	0
563	1	58.464	100.224	50.112	3	0	0
564	1	66.816	91.872	50.112	3	0	0
565	1	58.464	91.872	58.464	3	0	0
566	1	66.816	100.224	58.464	3	0	0
567	1	58.464	100.224	66.816	3	0	0
568	1	66.816	91.872	66.816	3	0	0
569	1	58.464	91.872	75.168	3	0	0
570	1	66.816	100.224	75.168	3	0	0
571	1	58.464	100.224	83.52	3	0	0
572	1	66.816	91.872	83.52	3	0	0
573	1	58.464	91.872	91.872	3	0	0
574	1	66.816	100.224	91.872	3	0	0
575	1	58.464	100.224	100.224	3	0	0
576	1	66.816	91.872	100.224	3	0	0
577	1	75.168	8.352	8.352	3	0	0
578	1	83.52	16.704	8.352	3	0	0
579	1	75.168	16.704	16.704	3	0	0
580	1	83.52	8.352	16.704	3	0	0
581	1	75.168	8.352	25.056	3	0	0
582	1	83.52	16.704	25.056	3	0	0
583	1	75.168	16.704	33.408	3	0	0
584	1	83.52	8.352	33.408	3	0	0
585	1	75.168	8.352	41.76	3	0	0
586	1	83.52	16.704	41.76	3	0	0
587	1	75.168	16.704	50.112	3	0	0
588	1	83.52	8.352	50.112	3	0	0
589	1	75.168	8.352	58.464	3	0	0
590	1	83.52	16.704	58.464	3	0	0
591	1	75.168	16.704	66.816	3	0	0
592	1	83.52	8.352	66.816	3	0	0
593	1	75.168	8.352	75.168	3	0	0
594	1	83.52	16.704	75.168	3	0	0
595	1	75.168	16.704	83.52	3	0	0
596	1	83.52	8.352	83.52	3	0	0
597	1	75.168	8.352	91.872	3	0	0
598	1	83.52	16.704	91.872	3	0	0
599	1	75.168	16.704	100.224	3	0	0
600	1	83.52	8.352	100.224	3	0	0
601	1	75.168	25.056	8.352	3	0	0
602	1	83.52	33.408	8.352	3	0	0
603	1	75.168	33.408	16.704	3	0	0
604	1	83.52	25.056	16.704	3	0	0
605	1	75.168	25.056	25.056	3	0	0
606	1	83.52	33.408	25.056	3	0	0
607	1	75.168	33.408	33.408	3	0	0
608	1	83.52	25.056	33.408	3	0	0
609	1	75.168	25.056	41.76	3	0	0
610	1	83.52	33.408	41.76	3	0	0
611	1	75.168	33.408	50.112	3	0	0
612	1	83.52	25.056	50.112	3	0	0
613	1	75.168	25.056	58.464	3	0	0
614	1	83.52	33.408	58.464	3	0	0
615	1	75.168	33.408	66.816	3	0	0
616	1	83.52	25.056	66.816	3	0	0
617	1	75.168	25.056	75.168	3	0	0
618	1	83.52	33.408	75.168	3	0	0
619	1	75.168	33.408	83.52	3	0	0
620	1	83.52	25.056	83.52	3	0	0
621	1	75.168	25.056	91.872	3	0	0
622	1	83.52	33.408	91.872	3	0	0
623	1	75.168	33.408	100.224	3	0	0
624	1	83.52	25.056	100.224	3	0	0
625	1	75.168	41.76	8.352	3	0	0
626	1	83.52	50.112	8.352	3	0	0
627	1	75.168	50.112	16.704	3	0	0
628	1	83.52	41.76	16.704	3	0	0
629	1	75.168	41.76	25.056	3	0	0
630	1	83.52	50.112	25.056	3	0	0
631	1	75.168	50.112	33.408	3	0	0
632	1	83.52	41.76	33.408	3	0	0
633	1	75.168	41.76	41.76	3	0	0
634	1	83.52	50.112	41.76	3	0	0
635	1	75.168	50.112	50.112	3	0	0
636	1	83.52	41.76	50.112	3	0	0
637	1	75.168	41.76	58.464	3	0	0
638	1	83.52	50.112	58.464	3	0	0
639	1	75.168	50.112	66.816	3	0	0
640	1	83.52	41.76	66.816	3	0	0
641	1	75.168	41.76	75.168	3	0	0
642	1	83.52	50.112	75.168	3	0	0
643	1	75.168	50.112	83.52	3	0	0
644	1	83.52	41.76	83.52	3	0	0
645	1	75.168	41.76	91.872	3	0	0
646	1	83.52	50.112	91.872	3	0	0
647	1	75.168	50.112	100.224	3	0	0
648	1	83.52	41.76	100.224	3	0	0
649	1	75.168	58.464	8.352	3	0	0
650	1	83.52	66.816	8.352	3	0	0
651	1	75.168	66.816	16.704	3	0	0
652	1	83.52	58.464	16.704	3	0	0
653	1	75.168	58.464	25.056	3	0	0
654	1	83.52	66.816	25.056	3	0	0
655	1	75.168	66.816	33.408	3	0	0
656	1	83.52	58.464	33.408	3	0	0
657	1	75.168	58.464	41.76	3	0	0
658	1	83.52	66.816	41.76	3	0	0
659	1	75.168	66.816	50.112	3	0	0
660	1	83.52	58.464	50.112	3	0	0
661	1	75.168	58.464	58.464	3	0	0
662	1	83.52	66.816	58.464	3	0	0
663	1	75.168	66.816	66.816	3	0	0
664	1	83.52	58.464	66.816	3	0	0
665	1	75.168	58.464	75.168	3	0	0
666	1	83.52	66.816	75.168	3	0	0
667	1	75.168	66.816	83.52	3	0	0
668	1	83.52	58.464	83.52	3	0	0
669	1	75.168	58.464	91.872	3	0	0
670	1	83.52	66.816	91.872	3	0	0
671	1	75.168	66.816	100.224	3	0	0
672	1	83.52	58.464	100.224	3	0	0
673	1	75.168	75.168	8.352	3	0	0
674	1	83.52	83.52	8.352	3	0	0
675	1	75.168	83.52	16.704	3	0	0
676	1	83.52	75.168	16.704	3	0	0
677	1	75.168	75.168	25.056	3	0	0
678	1	83.52	83.52	25.056	3	0	0
679	1	75.168	83.52	33.408	3	0	0
680	1	83.52	75.168	33.408	3	0	0
681	1	75.168	75.168	41.76	3	0	0
682	1	83.52	83.52	41.76	3	0	0
683	1	75.168	83.52	50.112	3	0	0
684	1	83.52	75.168	50.112	3	0	0
685	1	75.168	75.168	58.464	3	0	0
686	1	83.52	83.52	58.464	3	0	0
687	1	75.168	83.52	66.816	3	0	0
688	1	83.52	75.168	66.816	3	0	0
689	1	75.168	75.168	75.168	3	0	0
690	1	83.52	83.52	75.168	3	0	0
691	1	75.168	83.52	83.52	3	0	0
692	1	83.52	75.168	83.52	3	0	0
693	1	75.168	75.168	91.872	3	0	0
694	1	83.52	83.52	91.872	3	0	0
695	1	75.168	83.52	100.224	3	0	0
696	1	83.52	75.168	100.224	3	0	0
697	1	75.168	91.872	8.352	3	0	0
698	1	83.52	100.224	8.352	3	0	0
699	1	75.168	100.224	16.704	3	0	0
700	1	83.52	91.872	16.704	3	0	0
701	1	75.168	91.872	25.056	3	0	0
702	1	83.52	100.224	25.056	3	0	0
703	1	75.168	100.224	33.408	3	0	0
704	1	83.52	91.872	33.408	3	0	0
705	1	75.168	91.872	41.76	3	0	0
706	1	83.52	100.224	41.76	3	0	0
707	1	75.168	100.224	50.112	3	0	0
708	1	83.52	91.872	50.112	3	0	0
709	1	75.168	91.872	58.464	3	0	0
710	1	83.52	100.224	58.464	3	0	0
711	1	75.168	100.224	66.816	3	0	0
712	1	83.52	91.872	66.816	3	0	0
713	1	75.168	91.872	75.168	3	0	0
714	1	83.52	100.224	75.168	3	0	0
715	1	75.168	100.224	83.52	3	0	0
716	1	83.52	91.872	83.52	3	0	0
717	1	75.168	91.872	91.872	3	0	0
718	1	83.52	100.224	91.872	3	0	0
719	1	75.168	100.224	100.224	3	0	0
720	1	83.52	91.872	100.224	3	0	0
721	1	91.872	8.352	8.352	3	0	0
722	1	100.224	16.704	8.352	3	0	0
723	1	91.872	16.704	16.704	3	0	0
724	1	100.224	8.352	16.704	3	0	0
725	1	91.872	8.352	25.056	3	0	0
726	1	100.224	16.704	25.056	3	0	0
727	1	91.872	16.704	33.408	3	0	0
728	1	100.224	8.352	33.408	3	0	0
729	1	91.872	8.352	41.76	3	0	0
730	1	100.224	16.704	41.76	3	0	0
731	1	91.872	16.704	50.112	3	0	0
732	1	100.224	8.352	50.112	3	0	0
733	1	91.872	8.352	58.464	3	0	0
734	1	100.224	16.704	58.464	3	0	0
735	1	91.872	16.704	66.816	3	0	0
736	1	100.224	8.352	66.816	3	0	0
737	1	91.872	8.352	75.168	3	0	0
738	1	100.224	16.704	75.168	3	0	0
739	1	91.872	16.704	83.52	3	0	0
740	1	100.224	8.352	83.52	3	0	0
741	1	91.872	8.352	91.872	3	0	0
742	1	100.224	16.704	91.872	3	0	0
743	1	91.872	16.704	100.224	3	0	0
744	1	100.224	8.352	100.224	3	0	0
745	1	91.872	25.056	8.352	3	0	0
746	1	100.224	33.408	8.352	3	0	0
747	1	91.872	33.408	16.704	3	0	0
748	1	100.224	25.056	16.704	3	0	0
749	1	91.872	25.056	25.056	3	0	0
750	1	100.224	33.408	25.056	3	0	0
751	1	91.872	33.408	33.408	3	0	0
752	1	100.224	25.056	33.408	3	0	0
753	1	91.872	25.056	41.76	3	0	0
754	1	100.224	33.408	41.76	3	0	0
755	1	91.872	33.408	50.112	3	0	0
756	1	100.224	25.056	50.112	3	0	0
757	1	91.872	25.056	58.464	3	0	0
758	1	100.224	33.408	58.464	3	0	0
759	1	91.872	33.408	66.816	3	0	0
760	1	100.224	25.056	66.816	3	0	0
761	1	91.872	25.056	75.168	3	0	0
762	1	100.224	33.408	75.168	3	0	0
763	1	91.872	33.408	83.52	3	0	0
764	1	100.224	25.056	83.52	3	0	0
765	1	91.872	25.056	91.872	3	0	0
766	1	100.224	33.408	91.872	3	0	0
767	1	91.872	33.408	100.224	3	0	0
768	1	100.224	25.056	100.224	3	0	0
769	1	91.872	41.76	8.352	3	0	0
770	1	100.224	50.112	8.352	3	0	0
771	1	91.872	50.112	16.704	3	0	0
772	1	100.224	41.76	16.704	3	0	0
773	1	91.872	41.76	25.056	3	0	0
774	1	100.224	50.112	25.056	3	0	0
775	1	91.872	50.112	33.408	3	0	0
776	1	100.224	41.76	33.408	3	0	0
777	1	91.872	41.76	41.76	3	0	0
778	1	100.224	50.112	41.76	3	0	0
779	1	91.872	50.112	50.112	3	0	0
780	1	100.224	41.76	50.112	3	0	0
781	1	91.872	41.76	58.464	3	0	0
782	1	100.224	50.112	58.464	3	0	0
783	1	91.872	50.112	66.816	3	0	0
784	1	100.224	41.76	66.816	3	0	0
785	1	91.872	41.76	75.168	3	0	0
786	1	100.224	50.112	75.168	3	0	0
787	1	91.872	50.112	83.52	3	0	0
788	1	100.224	41.76	83.52	3	0	0
789	1	91.872	41.76	91.872	3	0	0
790	1	100.224	50.112	91.872	3	0	0
791	1	91.872	50.112	100.224	3	0	0
792	1	100.224	41.76	100.224	3	0	0
793	1	91.872	58.464	8.352	3	0	0
794	1	100.224	66.816	8.352	3	0	0
795	1	91.872	66.816	16.704	3	0	0
796	1	100.224	58.464	16.704	3	0	0
797	1	91.872	58.464	25.056	3	0	0
798	1	100.224	66.816	25.056	3	0	0
799	1	91.872	66.816	33.408	3	0	0
800	1	100.224	58.464	33.408	3	0	0
801	1	91.872	58.464	41.76	3	0	0
802	1	100.224	66.816	41.76	3	0	0
803	1	91.872	66.816	50.112	3	0	0
804	1	100.224	58.464	50.112	3	0	0
805	1	91.872	58.464	58.464	3	0	0
806	1	100.224	66.816	58.464	3	0	0
807	1	91.872	66.816	66.816	3	0	0
808	1	100.224	58.464	66.816	3	0	0
809	1	91.872	58.464	75.168	3	0	0
810	1	100.224	66.816	75.168	3	0	0
811	1	91.872	66.816	83.52	3	0	0
812	1	100.224	58.464	83.52	3	0	0
813	1	91.872	58.464	91.872	3	0	0
814	1	100.224	66.816	91.872	3	0	0
815	1	91.872	66.816	100.224	3	0	0
816	1	100.224	58.464	100.224	3	0	0
817	1	91.872	75.168	8.352	3	0	0
818	1	100.224	83.52	8.352	3	0	0
819	1	91.872	83.52	16.704	3	0	0
820	1	100.224	75.168	16.704	3	0	0
821	1	91.872	75.168	25.056	3	0	0
822	1	100.224	83.52	25.056	3	0	0
823	1	91.872	83.52	33.408	3	0	0
824	1	100.224	75.168	33.408	3	0	0
825	1	91.872	75.168	41.76	3	0	0
826	1	100.224	83.52	41.76	3	0	0
827	1	91.872	83.52	50.112	3	0	0
828	1	100.224	75.168	50.112	3	0	0
829	1	91.872	75.168	58.464	3	0	0
830	1	100.224	83.52	58.464	3	0	0
831	1	91.872	83.52	66.816	3	0	0
832	1	100.224	75.168	66.816	3	0	0
833	1	91.872	75.168	75.168	3	0	0
834	1	100.224	83.52	75.168	3	0	0
835	1	91.872	83.52	83.52	3	0	0
836	1	100.224	75.168	83.52	3	0	0
837	1	91.872	75.168	91.872	3	0	0
838	1	100.224	83.52	91.872	3	0	0
839	1	91.872	83.52	100.224	3	0	0
840	1	100.224	75.168	100.224	3	0	0
841	1	91.872	91.872	8.352	3	0	0
842	1	100.224	100.224	8.352	3	0	0
843	1	91.872	100.224	16.704	3	0	0
844	1	100.224	91.872	16.704	3	0	0
845	1	91.872	91.872	25.056	3	0	0
846	1	100.224	100.224	25.056	3	0	0
847	1	91.872	100.224	33.408	3	0	0
848	1	100.224	91.872	33.408	3	0	0
849	1	91.872	91.872	41.76	3	0	0
850	1	100.224	100.224	41.76	3	0	0
851	1	91.872	100.224	50.112	3	0	0
852	1	100.224	91.872	50.112	3	0	0
853	1	91.872	91.872	58.464	3	0	0
854	1	100.224	100.224	58.464	3	0	0
855	1	91.872	100.224	66.816	3	0	0
856	1	100.224	91.872	66.816	3	0	0
857	1	91.872	91.872	75.168	3	0	0
858	1	100.224	100.224	75.168	3	0	0
859	1	91.872	100.224	83.52	3	0	0
860	1	100.224	91.872	83.52	3	0	0
861	1	91.872	91.872	91.872	3	0	0
862	1	100.224	100.224	91.872	3	0	0
863	1	91.872	100.224	100.224	3	0	0
864	1	100.224	91.872	100.224	3	0	0
865	2	8.352	8.352	8.352	0	-1	0.7
866	2	16.704	16.704	8.352	0	-1	0.7
867	2	8.352	16.704	16.704	0	-1	0.7
868	2	16.704	8.352	16.704	0	-1	0.7
869	2	8.352	8.352	25.056	0	-1	0.7
870	2	16.704	16.704	25.056	0	-1	0.7
871	2	8.352	16.704	33.408	0	-1	0.7
872	2	16.704	8.352	33.408	0	-1	0.7
873	2	8.352	8.352	41.76	0	-1	0.7
874	2	16.704	16.704	41.76	0	-1	0.7
875	2	8.352	16.704	50.112	0	-1	0.7
876	2	16.704	8.352	50.112	0	-1	0.7
877	2	8.352	8.352	58.464	0	-1	0.7
878	2	16.704	16.704	58.464	0	-1	0.7
879	2	8.352	16.704	66.816	0	-1	0.7
880	2	16.704	8.352	66.816	0	-1	0.7
881	2	8.352	8.352	75.168	0	-1	0.7
882	2	16.704	16.704	75.168	0	-1	0.7
883	2	8.352	16.704	83.52	0	-1	0.7
884	2	16.704	8.352	83.52	0	-1	0.7
885	2	8.352	8.352	91.872	0	-1	0.7
886	2	16.704	16.704	91.872	0	-1	0.7
887	2	8.352	16.704	100.224	0	-1	0.7
888	2	16.704	8.352	100.224	0	-1	0.7
889	2	8.352	25.056	8.352	0	-1	0.7
890	2	16.704	33.408	8.352	0	-1	0.7
891	2	8.352	33.408	16.704	0	-1	0.7