8
Lattice="3.23024323 0.0 0.0 0.0 5.5949454 0.0 0.0 0.0 5.25357757" Properties=species:S:1:pos:R:3:forces:R:3 energy=-48.68182353 stress="1.7923955 0.0 0.0 0.0 1.5238435 0.0 0.0 0.0 0.76022654" pbc="T T T"
Ga 3.2302416148783855 1.864982844389808 2.632153002913624 -0.0 0.00023507 0.00029623
Ga 1.615119999878385 4.66245571223817 2.632153002913624 -0.0 0.00023507 0.00029623
Ga 1.615123230121615 0.932490023458554 0.005364217913624201 -0.0 -0.00023507 0.00029623
Ga 1.615121615e-06 3.7299628913069163 0.005364217913624201 -0.0 -0.00023507 0.00029623
N 3.2302416148783855 1.864982844389808 0.6513329783363758 0.0 0.00206405 -0.00029623
N 1.615119999878385 4.66245571223817 0.6513329783363758 0.0 0.00206405 -0.00029623
N 1.615123230121615 0.932490023458554 3.2781217633363755 0.0 -0.00206405 -0.00029623
N 1.615121615e-06 3.7299628913069163 3.2781217633363755 0.0 -0.00206405 -0.00029623
