8
Lattice="3.31991118 -0.02475181 -0.06005185 -0.00489483 5.6918852 -0.03270433 0.02057959 -0.03569531 5.33006429" Properties=species:S:1:pos:R:3:forces:R:3 energy=-48.59162414 stress="-118.67182458 10.71126281 13.84491064 10.71126294 -93.23879343 11.56572165 13.84491058 11.56572169 -81.38790183" pbc="T T T"
Ga 3.328588717126874 1.8546602294745804 2.599521191031731 -0.00642408 -0.11904521 0.06736616
Ga 1.6661857119800287 4.712978905231136 2.613194950050601 -0.00642408 -0.11904521 0.06736616
Ga 1.659162458718612 0.9362342771755183 -0.030034356124965893 -0.10858442 0.00531208 0.06900846
Ga -0.0032405464282328003 3.794552952932074 -0.0163605971060958 -0.10858442 0.00531208 0.06900846
N 3.3208293448845434 1.8681188648310376 0.589862451393836 0.12122006 -0.01963131 -0.06912566
N 1.658426339737698 4.726437540587593 0.6035362104127061 0.12122006 -0.01963131 -0.06912566
N 1.6719826764762813 0.9139976025319755 3.290371194237139 -0.00621156 0.13336444 -0.06724896
N 0.009579671329436398 3.7723162782885313 3.3040449532560094 -0.00621156 0.13336444 -0.06724896
8
Lattice="3.19770631 -0.09297138 0.07726632 0.06923087 5.57874715 0.09438017 -0.09268706 -0.06480259 5.30983989" Properties=species:S:1:pos:R:3:forces:R:3 energy=-48.64028571 stress="38.86498169 24.91827552 -5.49184381 24.91827545 15.55999406 -3.27474248 -5.49184375 -3.2747425 -37.59137517" pbc="T T T"
Ga 3.174343511687124 1.7341446288526126 2.769067965769222 0.22091711 0.10135466 -0.190546
Ga 1.61010579376405 4.570004061215027 2.777624893600627 0.22091711 0.10135466 -0.190546
Ga 1.610298582290835 0.883238413844711 0.0597848772983501 -0.1103721 -0.03279701 -0.19308862
Ga 0.0460608643677612 3.719097846207126 0.0683418051297552 -0.1103721 -0.03279701 -0.19308862
N 3.209290437286091 1.7585779347677033 0.767034676783055 0.13234938 0.04336639 0.1934858
N 1.6450527193630171 4.5944373671301175 0.7755916046144601 0.13234938 0.04336639 0.1934858
N 1.552558447889802 0.8428691297598018 3.367591478312183 -0.24289439 -0.11192403 0.19014881
N -0.011679270033271598 3.6787285621222168 3.3761484061435882 -0.24289439 -0.11192403 0.19014881
8
Lattice="3.13619554 -0.06452512 -0.07367478 0.05246859 5.52206186 -0.06762425 -0.07877476 0.03376191 5.33577188" Properties=species:S:1:pos:R:3:forces:R:3 energy=-48.40832677 stress="140.89257811 18.16070391 40.68224838 18.16070406 84.02126906 5.01376158 40.68224837 5.01376163 -35.01471451" pbc="T T T"
Ga 3.1142156979399216 1.7930786576499318 2.577117910783323 -0.1865571 0.15290197 -0.44411902
Ga 1.5723522245139787 4.586372313311787 2.5801431737545957 -0.1865571 0.15290197 -0.44411902
Ga 1.5767636611212452 0.8881146588835731 -0.0426599813404647 -0.48015478 -0.27130274 -0.4633392
Ga 0.034900187695303 3.681408314545429 -0.039634718369192204 -0.48015478 -0.27130274 -0.4633392
N 3.143917100452813 1.7803489955282825 0.5653071693117372 0.49539144 0.29644893 0.46380641
N 1.60205362702687 4.573642651190138 0.5683324322830097 0.49539144 0.29644893 0.46380641
N 1.5276903036341363 0.9091469067619239 3.28130115718795 0.17132043 -0.17804817 0.44365181
N -0.014173169791805797 3.7024405624237797 3.284326420159222 0.17132043 -0.17804817 0.44365181
8
Lattice="3.13926222 -0.07914636 -0.00648219 0.04394198 5.60811547 -0.02454001 -0.07351378 0.02788862 5.23624714" Properties=species:S:1:pos:R:3:forces:R:3 energy=-48.49329571 stress="129.92924574 27.29679868 18.0016252 27.29679869 27.53990003 -0.83199372 18.00162544 -0.83199373 35.26129749" pbc="T T T"
Ga 3.117076033257853 1.8041993357090718 2.608807897831728 0.08381566 0.3302605 -0.14885596
Ga 1.5694159145761124 4.647830418952536 2.5997789870955277 0.08381566 0.3302605 -0.14885596
Ga 1.576881274099993 0.8951402894430669 -0.001984573558391699 -0.35242513 -0.33360543 -0.16038311
Ga 0.0292211554182524 3.7387713726865313 -0.011013484294592 -0.35242513 -0.33360543 -0.16038311
N 3.1447938247182665 1.7936841513003974 0.6345221753221914 0.37628148 0.37636861 0.16078485
N 1.5971337060365258 4.637315234543862 0.6254932645859911 0.37628148 0.37636861 0.16078485
N 1.5310852855604065 0.9125137250343925 3.2599768439320713 -0.10767202 -0.37302368 0.14845421
N -0.016574833121334 3.756144808277857 3.250947933195871 -0.10767202 -0.37302368 0.14845421
8
Lattice="3.24485572 0.08694863 -0.05033659 -0.07633824 5.67348551 0.03354805 0.0835134 -0.08608927 5.16182198" Properties=species:S:1:pos:R:3:forces:R:3 energy=-48.6158339 stress="-19.56821389 -18.43476628 0.66977506 -18.43476604 -47.69745814 10.32751845 0.669775 10.32751844 68.55258385" pbc="T T T"
Ga 3.2612499755145388 1.934978944932954 2.54702764471483 -0.10280434 0.00822442 0.35352962
Ga 1.600652993224392 4.728247555137519 2.5889699657212715 -0.10280434 0.00822442 0.35352962
Ga 1.6097917265797215 0.9889664856515589 -0.014306453806590697 0.12663925 -0.1366296 0.343992
Ga -0.0508052557104256 3.782235095856124 0.027635867199850804 0.12663925 -0.1366296 0.343992
N 3.229761906130131 1.9674382258030063 0.6008033423130322 -0.14636696 0.15010972 -0.34344686
N 1.5691649238399838 4.7607068360075715 0.6427456633194737 -0.14636696 0.15010972 -0.34344686
N 1.6618170571953135 0.9353364965216113 3.201291223791612 0.12253205 -0.02170455 -0.35407476
N 0.0012200749051663985 3.7286051067261767 3.243233544798053 0.12253205 -0.02170455 -0.35407476
8
Lattice="3.31972581 0.0153469 -0.09453415 0.08677245 5.58827147 0.09005552 -0.01129067 0.04999297 5.28732448" Properties=species:S:1:pos:R:3:forces:R:3 energy=-48.58671293 stress="-100.18215606 -27.1366255 30.80086925 -27.13662543 -22.61079182 -24.96776102 30.80086899 -24.96776102 -40.69820464" pbc="T T T"
Ga 3.342991452883109 1.9031526229591724 2.584545336277654 -0.29375083 -0.05137648 0.05696935
Ga 1.7265147754862822 4.689615075607316 2.6768401739793197 -0.29375083 -0.05137648 0.05696935
Ga 1.6743150978170442 0.9391022063328677 -0.026859207508890995 0.00531648 0.37164944 0.04902081
Ga 0.0578384204202178 3.725564658981012 0.0654356301927746 0.00531648 0.37164944 0.04902081
N 3.3472485110361294 1.884303167565276 0.5910013052105565 -0.03669329 -0.4106089 -0.04813427
N 1.7307718336393025 4.67076562021342 0.6832961429122222 -0.03669329 -0.4106089 -0.04813427
N 1.6672814859700644 0.9702457209389713 3.266921241424011 0.32512764 0.09033594 -0.05785588
N 0.0508048085732382 3.7567081735871155 3.3592160791256767 0.32512764 0.09033594 -0.05785588
8
Lattice="3.15093416 0.04700347 -0.01907869 0.0998651 5.60667875 0.09516678 -0.0751229 -0.09374667 5.22506959" Properties=species:S:1:pos:R:3:forces:R:3 energy=-48.47248462 stress="116.67637929 -54.30533433 21.77901732 -54.3053345 28.03825468 0.41152821 21.77901739 0.41152795 42.70402364" pbc="T T T"
Ga 3.1465828148527977 1.868928353770095 2.6305135018593764 -0.55786401 0.32728832 -0.12687728
Ga 1.6210482878487507 4.648766161970458 2.68763623971438 -0.55786401 0.32728832 -0.12687728
Ga 1.592036118166607 0.9578516174805273 0.011656870106758201 0.22145766 -0.29754052 -0.10467092
Ga 0.06650159116256 3.7376894256808906 0.06877960796176161 0.22145766 -0.29754052 -0.10467092
N 3.1749073123293456 1.9042747969698353 0.6604421864982453 -0.26489823 0.33652338 0.10395516
N 1.6493727853252986 4.684112605170197 0.7175649243532486 -0.26489823 0.33652338 0.10395516
N 1.545237715643155 0.8994513906802677 3.2666551447456276 0.60130458 -0.36627117 0.12759304
N 0.019703188639108006 3.679289198880631 3.323777882600631 0.60130458 -0.36627117 0.12759304
8
Lattice="3.2408758 0.07991709 -0.08507837 0.01716258 5.56166163 0.09099478 0.09145902 0.09252362 5.16609152" Properties=species:S:1:pos:R:3:forces:R:3 energy=-48.52340482 stress="8.64191739 -43.40799941 11.1188441 -43.40799937 36.65713088 -35.5790143 11.11884408 -35.5790141 82.17184372" pbc="T T T"
Ga 3.292417937912743 1.9801615803857298 2.533573932265622 -0.34072181 0.13766903 0.20827715
Ga 1.6805613284276202 4.721034017235579 2.6216105099954654 -0.34072181 0.13766903 0.20827715
Ga 1.6233933328960568 0.9669957907989933 -0.022098555720955995 0.18971389 0.34602853 0.19205303
Ga 0.0115367234109344 3.7078682276488424 0.0659380220088874 0.18971389 0.34602853 0.19205303
N 3.2579340351188204 1.9452762785508553 0.5857398334507994 -0.22919131 -0.36062896 -0.19081387
N 1.6460774256336976 4.686148715400704 0.6737764111806428 -0.22919131 -0.36062896 -0.19081387
N 1.6803684501021345 1.0246341089641189 3.1961588654642217 0.38019923 -0.12306859 -0.20951631
N 0.068511840617012 3.7655065458139676 3.284195443194065 0.38019923 -0.12306859 -0.20951631
8
Lattice="3.29770495 -0.07354766 -0.02007114 0.02159583 5.55853046 -0.08802834 0.06336169 -0.07158071 5.16337002" Properties=species:S:1:pos:R:3:forces:R:3 energy=-48.55391645 stress="-59.67520421 27.83205929 -5.00736348 27.83205953 19.53671995 30.64167709 -5.00736356 30.64167714 72.28732907" pbc="T T T"
Ga 3.336647456265938 1.7434334578330966 2.5375431941962345 0.15362834 -0.44941756 0.28756266
Ga 1.6985928969138129 4.559472684589011 2.5035645915553846 0.15362834 -0.44941756 0.28756266
Ga 1.6525181215563196 0.8895739175233119 -0.019434845651842197 -0.10986658 0.06511218 0.32815869
Ga 0.0144635622041946 3.7056131442792264 -0.0534134482926924 -0.10986658 0.06511218 0.32815869
N 3.3127574303415552 1.770422400482602 0.5907352155109921 0.13532201 -0.10439661 -0.33021317
N 1.67470287098943 4.586461627238516 0.5567566128701418 0.13532201 -0.10439661 -0.33021317
N 1.6919897856319368 0.8449821501728172 3.1971271956629157 -0.17908378 0.48870199 -0.28550818
N 0.0539352262798118 3.661021376928731 3.1631485930220653 -0.17908378 0.48870199 -0.28550818
8
Lattice="3.2170492 -0.03376988 0.04819376 0.01580176 5.61163211 0.06635707 0.07436084 -0.00265724 5.32736422" Properties=species:S:1:pos:R:3:forces:R:3 energy=-48.64899459 stress="6.93838432 11.45243369 -29.33498543 11.45243371 -14.6344043 -11.18616709 -29.33498532 -11.18616733 -55.57145645" pbc="T T T"
Ga 3.2595711946376857 1.835443887854793 2.7394344401335795 0.26500572 0.14662155 -0.15780297
Ga 1.6589474751117383 4.658145051203756 2.7485160971242917 0.26500572 0.14662155 -0.15780297
Ga 1.611235759594948 0.9183834690912217 0.0405959638780789 0.10517339 0.00017897 -0.14603688
Ga 0.010612040069000801 3.7410846324401854 0.04967762086879101 0.10517339 0.00017897 -0.14603688
N 3.231534025879105 1.8364457792577418 0.7307937406126331 -0.09369024 0.01224216 0.14569142
N 1.6309103063531576 4.659146942606705 0.7398753976033452 -0.09369024 0.01224216 0.14569142
N 1.6575594308363673 0.9167281204941705 3.3593194843571323 -0.27648887 -0.15904268 0.15814843
N 0.05693571131042 3.739429283843134 3.3684011413478445 -0.27648887 -0.15904268 0.15814843
8
Lattice="3.21135589 -0.07420395 0.03939864 0.05533247 5.51200386 0.00480361 -0.08622041 0.08324922 5.23140259" Properties=species:S:1:pos:R:3:forces:R:3 energy=-48.56972256 stress="46.87749118 21.81290042 4.57581805 21.81290045 75.58511429 -17.96678351 4.57581815 -17.96678345 34.59465001" pbc="T T T"
Ga 3.186600210105615 1.8048413484579353 2.662042695459233 0.10914738 0.01785975 -0.08460342
Ga 1.608588501765589 4.5979454188180515 2.644745180603341 0.10914738 0.01785975 -0.08460342
Ga 1.61481358413069 0.8816494367993268 0.025841516541966498 -0.15514695 0.22920472 -0.09951019
Ga 0.036801875790664206 3.674753507159443 0.0085440016860748 -0.15514695 0.22920472 -0.09951019
N 3.219108936279284 1.773452886060789 0.6895835723521417 0.17212939 -0.24018201 0.10028307
N 1.6410972279392582 4.5665569564209045 0.67228605749625 0.17212939 -0.24018201 0.10028307
N 1.5611019003043591 0.9335101944021804 3.2847849834348755 -0.12612982 -0.00688247 0.08383053
N -0.016909808035666593 3.726614264762296 3.267487468578984 -0.12612982 -0.00688247 0.08383053
8
Lattice="3.25253374 0.01118021 0.03702305 0.00661361 5.62685251 0.05595669 -0.04066543 -0.05652122 5.34583141" Properties=species:S:1:pos:R:3:forces:R:3 energy=-48.68361126 stress="-41.46883798 -6.62268431 -3.42998769 -6.62268425 -38.44540696 0.96140444 -3.42998776 0.96140444 -77.38522624" pbc="T T T"
Ga 3.234362414790381 1.858480436532137 2.7340493915532185 -0.01602352 -0.01183165 -0.10052906
Ga 1.6114023499887895 4.666316755337712 2.743516213231919 -0.01602352 -0.01183165 -0.10052906
Ga 1.6273292417201153 0.9433402691596519 0.0332960643644715 0.05861758 0.006049 -0.10033176
Ga 0.0043691769185236 3.7511765879652272 0.04276288604317221 0.05861758 0.006049 -0.10033176
N 3.249694994728293 1.8797913171459233 0.7184457835642292 -0.06519719 -0.00605505 0.10028149
N 1.626734929926701 4.687627635951499 0.7279126052429299 -0.06519719 -0.00605505 0.10028149
N 1.6019963916580269 0.9081299297734382 3.363523866375482 0.02260313 0.01183769 0.10057933
N -0.0209636731435648 3.7159662485790137 3.3729906880541827 0.02260313 0.01183769 0.10057933
8
Lattice="3.14364906 -0.01776661 -0.06368528 -0.00728035 5.69053776 0.01087585 -0.08954864 0.05599649 5.16438554" Properties=species:S:1:pos:R:3:forces:R:3 energy=-48.42591086 stress="116.47044535 10.68595118 40.24979684 10.685951 -23.09677556 -13.36309752 40.24979693 -13.36309764 92.04696166" pbc="T T T"
Ga 3.09635494894878 1.9071358018930995 2.5274059547056043 -0.2326059 0.51280816 0.13040332
Ga 1.5208902437303689 4.761288157609232 2.56468652003188 -0.2326059 0.51280816 0.13040332
Ga 1.570521276764093 0.939595930375192 -0.024756884380384096 -0.36949591 -0.37126636 0.14714169
Ga -0.0049434284543174 3.7937482860913248 0.0125236809458914 -0.36949591 -0.37126636 0.14714169
N 3.1301185580174966 1.8860227665909406 0.5802150822066595 0.37715497 0.43552176 -0.14772124
N 1.5546538527990856 4.740175122307074 0.6174956475329351 0.37715497 0.43552176 -0.14772124
N 1.5147362458328097 0.9744793850730331 3.192437783120671 0.22494684 -0.57706356 -0.12982377
N -0.0607284593856006 3.828631740789166 3.229718348446946 0.22494684 -0.57706356 -0.12982377
8
Lattice="3.13670916 0.02287313 0.04485528 -0.02637466 5.57953754 -0.06755824 0.05092096 -0.09178805 5.17727015" Properties=species:S:1:pos:R:3:forces:R:3 energy=-48.3681192 stress="152.62903247 -4.21572473 -26.86711273 -4.21572463 62.05337054 33.29675009 -26.86711265 33.2967501 97.98106409" pbc="T T T"
Ga 3.1534285067442345 1.8367322606374428 2.616257210087514 0.15628869 0.07725257 -0.02342497
Ga 1.5718865959529946 4.615064633023568 2.560050448060767 0.15628869 0.07725257 -0.02342497
Ga 1.5640123691753607 0.9412649045360173 0.0164542698044566 0.27165159 -0.52258183 -0.06421529
Ga -0.017529541615878802 3.7195972769221437 -0.0397524922222906 0.27165159 -0.52258183 -0.06421529
N 3.1342291600333994 1.8713402216001087 0.6642082969187962 -0.27832208 0.55896138 0.06567782
N 1.5526872492421595 4.649672593986234 0.608001534892049 -0.27832208 0.55896138 0.06567782
N 1.5957339824645256 0.8840848154986833 3.2416755066357386 -0.1496182 -0.11363211 0.02196244
N 0.014192071673285999 3.6624171878848095 3.185468744608991 -0.1496182 -0.11363211 0.02196244
8
Lattice="3.27263021 0.02728254 -0.07541746 0.02850239 5.61841599 -0.01604576 -0.00716107 -0.00746222 5.31324153" Properties=species:S:1:pos:R:3:forces:R:3 energy=-48.66514541 stress="-58.45999799 -18.7538214 24.16816031 -18.75382155 -34.22552439 4.32845114 24.16816021 4.32845118 -55.95281597" pbc="T T T"
Ga 3.278541528789874 1.8963501757553616 2.5812798914434767 -0.22184111 -0.07658894 -0.03230842
Ga 1.6564776196449453 4.691917069307841 2.610965740962104 -0.22184111 -0.07658894 -0.03230842
Ga 1.6410598233009297 0.9500354490484116 -0.0349579201316058 -0.02625929 0.04512936 -0.02008506
Ga 0.018995914156001402 3.7456023426008915 -0.0052720706129785995 -0.02625929 0.04512936 -0.02008506
N 3.281241553804142 1.8991637470040679 0.577964040900233 0.00732748 -0.05559681 0.01965768
N 1.6591776446592137 4.694730640556548 0.6076498904188602 0.00732748 -0.05559681 0.01965768
N 1.636598778315198 0.9453868002971181 3.2749677593251505 0.24077293 0.08705638 0.0327358
N 0.0145348691702698 3.740953693849598 3.3046536088437777 0.24077293 0.08705638 0.0327358
8
Lattice="3.2751494 0.08415265 -0.05287116 0.09668591 5.57626391 0.02913908 -0.0409043 0.0038923 5.29621997" Properties=species:S:1:pos:R:3:forces:R:3 energy=-48.58753522 stress="-48.19064254 -61.98772393 24.1272049 -61.98772408 -0.53719666 -5.73404151 24.12720482 -5.73404164 -38.62778979" pbc="T T T"
Ga 3.2868825013954455 1.944858409764776 2.6103596419041097 -0.4744321 -0.05253325 -0.0748487
Ga 1.6976507592960224 4.6909142070526935 2.6513647627782824 -0.4744321 -0.05253325 -0.0748487
Ga 1.653648875016016 0.971456786066817 -0.016171339304801 0.20247677 0.17393916 -0.04000616
Ga 0.0644171329165934 3.7175125833547344 0.0248337815693714 0.20247677 0.17393916 -0.04000616
N 3.3023051453845613 1.9433908487211 0.6134616364289733 -0.26338755 -0.19607476 0.03881914
N 1.7130734032851385 4.689446646009017 0.6544667573031457 -0.26338755 -0.19607476 0.03881914
N 1.628167219005132 0.973881525023141 3.2831506252200624 0.53534288 0.07466885 0.07603571
N 0.0389354769057094 3.7199373223110586 3.324155746094235 0.53534288 0.07466885 0.07603571
8
Lattice="3.32055033 0.02714842 0.05215358 -0.06478622 5.68358823 -0.05841766 -0.00427823 -0.05630715 5.24331663" Properties=species:S:1:pos:R:3:forces:R:3 energy=-48.6074155 stress="-111.30414861 3.76405903 -15.34853274 3.76405882 -80.74965779 20.19500917 -15.34853264 20.19500921 -17.02843532" pbc="T T T"
Ga 3.2968097676352173 1.8934678093836805 2.6596930455634746 0.07205848 -0.17763146 0.23567704
Ga 1.6041414906916303 4.7216878848913275 2.6044074238109447 0.07205848 -0.17763146 0.23567704
Ga 1.649474763762149 0.9607805451668082 0.021694289440451195 0.04630561 -0.0159701 0.24683941
Ga -0.043193513181437604 3.7890006206744555 -0.03359133231207861 0.04630561 -0.0159701 0.24683941
N 3.298422840544265 1.9146979765908385 0.682741827557019 -0.04212012 -0.00109952 -0.24738034
N 1.6057545636006778 4.742918052098485 0.6274562058044891 -0.04212012 -0.00109952 -0.24738034
N 1.6468096066711966 0.9257035623739662 3.2880597014339954 -0.07624396 0.19470108 -0.23513611
N -0.045858670272390004 3.753923637881613 3.2327740796814655 -0.07624396 0.19470108 -0.23513611
8
Lattice="3.17450055 0.09536067 0.09853655 -0.06234101 5.58307292 0.0028101 0.01891704 0.09043183 5.20272381" Properties=species:S:1:pos:R:3:forces:R:3 energy=-48.4961986 stress="88.97891958 -29.39534718 -36.97732508 -29.39534715 37.61056854 -20.01247807 -36.97732513 -20.01247798 61.2868086" pbc="T T T"
Ga 3.1631964498789324 2.001694222484283 2.7061473994297156 0.06131799 0.28003377 -0.00601435
Ga 1.544775668008702 4.745550514976471 2.658284174514019 0.06131799 0.28003377 -0.00601435
Ga 1.576881019116562 0.978283997656584 0.0550489670014646 0.45738382 -0.05956951 -0.0156191
Ga -0.041539762753668004 3.722140290148772 0.007185742085767601 0.45738382 -0.05956951 -0.0156191
N 3.1560639290132078 1.9675976135856037 0.7445013843328384 -0.48062602 0.08201404 0.01614549
N 1.537643147142977 4.711453906077792 0.6966381594171414 -0.48062602 0.08201404 0.01614549
N 1.5886655382508372 1.0346192187579044 3.2961267619045875 -0.0380758 -0.3024783 0.00548797
N -0.0297552436193928 3.7784755112500923 3.2482635369888904 -0.0380758 -0.3024783 0.00548797
8
Lattice="3.19684689 0.05839129 -0.06947067 0.0251227 5.50593645 0.0986422 0.09662462 -0.06596342 5.21481418" Properties=species:S:1:pos:R:3:forces:R:3 energy=-48.51620249 stress="71.98481525 -37.39691177 2.89986778 -37.39691187 90.00131062 -4.52767008 2.89986787 -4.52767002 53.27066572" pbc="T T T"
Ga 3.2536304991339566 1.860655375969534 2.57614184464851 -0.27986117 -0.01449157 -0.0892032
Ga 1.6677684048876373 4.584428121147627 2.660198282607776 -0.27986117 -0.01449157 -0.0892032
Ga 1.6027108156887193 0.9467835339893093 -0.012970380355982197 0.21693933 0.10452641 -0.09528598
Ga 0.016848721442400204 3.6705562791674033 0.0710860576032838 0.21693933 0.10452641 -0.09528598
N 3.2171989475649623 1.8855263636887842 0.6099372508152482 -0.2466689 -0.11045776 0.09581721
N 1.631336853318643 4.609299108866877 0.6939936887745142 -0.2466689 -0.11045776 0.09581721
N 1.662903884119725 0.9056911017085597 3.2356392058107564 0.30959074 0.02042293 0.08867198
N 0.07704178987340579 3.6294638468866536 3.3196956437700225 0.30959074 0.02042293 0.08867198
8
Lattice="3.15801382 0.08088726 0.09512615 0.04830948 5.62440013 -0.06772989 -0.07972511 -0.07625619 5.19174168" Properties=species:S:1:pos:R:3:forces:R:3 energy=-48.45074934 stress="107.31554905 -55.38069674 -15.63814938 -55.38069664 16.46664595 28.04115268 -15.63814934 28.04115262 69.42816001" pbc="T T T"
Ga 3.1341714508900433 1.917482355632366 2.673721379553793 -0.26759393 0.09673294 0.03270416
Ga 1.5793192823393272 4.68923895936437 2.5922933575218963 -0.26759393 0.09673294 0.03270416
Ga 1.5869786573176081 0.9777649488089147 0.041575897933871904 0.55814994 -0.48089567 -0.00513679
Ga 0.0321264887668926 3.749521552540919 -0.0398521240980248 0.55814994 -0.48089567 -0.00513679
N 3.1642311753816768 1.9462341511730887 0.7162160900342314 -0.60592088 0.51796006 0.00621442
N 1.6093790068309604 4.717990754905093 0.6347880680023347 -0.60592088 0.51796006 0.00621442
N 1.5373132718092413 0.9302605543496376 3.27581228841431 0.31536487 -0.13379734 -0.03378179
N -0.0175388967414742 3.7020171580816417 3.1943842663824134 0.31536487 -0.13379734 -0.03378179
8
Lattice="3.22894273 -0.0611872 -0.09795953 -0.03794768 5.60432915 -0.0540459 0.0060102 0.00732254 5.32966124" Properties=species:S:1:pos:R:3:forces:R:3 energy=-48.62917956 stress="-5.53324541 37.85579927 28.64040578 37.85579903 -12.78951674 7.63577647 28.64040574 7.63577653 -59.11010154" pbc="T T T"
Ga 3.2193031185532135 1.8105923401544002 2.5542977327969116 0.0468411 -0.03375432 -0.13195492
Ga 1.5858579124147831 4.643350683284275 2.5762545461755346 0.0468411 -0.03375432 -0.13195492
Ga 1.60815450885798 0.9034678264808589 -0.0525455516068596 -0.41902588 -0.10423581 -0.15602228
Ga -0.0252906972804502 3.7362261696107337 -0.030588738228236604 -0.41902588 -0.10423581 -0.15602228
N 3.2170370200035894 1.8078314341490154 0.5447909599854825 0.45506919 0.10888202 0.15659839
N 1.583591813865159 4.64058977727889 0.5667477733641055 0.45506919 0.10888202 0.15659839
N 1.611898610308356 0.9080294604754741 3.2676089155817114 -0.08288441 0.02910811 0.13137881
N -0.0215465958300742 3.740787803605349 3.2895657289603344 -0.08288441 0.02910811 0.13137881
8
Lattice="3.14291757 -0.09528283 0.09975197 -0.07363743 5.5735165 -0.03866604 0.09313811 -0.03880633 5.28530998" Properties=species:S:1:pos:R:3:forces:R:3 energy=-48.34918147 stress="132.17972865 71.89617706 -52.21595531 71.896177 51.8463766 15.31778588 -52.21595542 15.31778579 -0.23711092" pbc="T T T"
Ga 3.1650343293941576 1.7431143027731852 2.734914841514533 0.91869338 0.27769435 -0.35958653
Ga 1.556756827185035 4.57751413497868 2.6657058353545517 0.91869338 0.27769435 -0.35958653
Ga 1.5592825625939122 0.8812374572496902 0.04882831954184339 -0.11749904 -0.35612467 -0.28240565
Ga -0.048994939615210606 3.7156372894551857 -0.0203806866181378 -0.11749904 -0.35612467 -0.28240565
N 3.1299173389469646 1.7577459237058048 0.7421303617981754 0.17215282 0.39136953 0.27897075
N 1.5216398367378416 4.592145755911299 0.6729213556381942 0.17215282 0.39136953 0.27897075
N 1.6173036821467188 0.8570627481823098 3.341353819825486 -0.97334715 -0.31293921 0.36302142
N 0.009026179937596192 3.6914625803878054 3.2721448136655047 -0.97334715 -0.31293921 0.36302142
8
Lattice="3.28020866 -0.08102805 0.00057266 0.05188032 5.56422796 0.02565798 0.09965529 0.00733434 5.26340884" Properties=species:S:1:pos:R:3:forces:R:3 energy=-48.65546565 stress="-53.22633675 23.27243444 -19.14581465 23.27243429 6.29655033 -6.20513702 -19.14581475 -6.20513708 -13.49291391" pbc="T T T"
Ga 3.347429868610404 1.7773903413044447 2.6462040007333303 0.2240895 -0.13438655 0.0192353
Ga 1.7332657001668135 4.600018513231284 2.6587466615030695 0.2240895 -0.13438655 0.0192353
Ga 1.6488544360068205 0.886863878224795 0.009936912496750201 -0.01527162 0.22327505 0.02846693
Ga 0.0346902675632302 3.709492050151634 0.0224795732664896 -0.01527162 0.22327505 0.02846693
N 3.3098556267995893 1.7746249862020438 0.6616771732729892 0.03727617 -0.25081341 -0.0288304
N 1.6956914583559985 4.597253158128883 0.6742198340427286 0.03727617 -0.25081341 -0.0288304
N 1.7109354841960056 0.8914328631223942 3.2888189250364097 -0.24609405 0.16192491 -0.01887183
N 0.09677131575241539 3.714061035049233 3.301361585806149 -0.24609405 0.16192491 -0.01887183
8
Lattice="3.19941454 -0.03214931 0.03084043 -0.06137163 5.66453194 -0.09863819 -0.04527733 0.07523199 5.27433578" Properties=species:S:1:pos:R:3:forces:R:3 energy=-48.65079433 stress="26.03654874 31.36596049 -0.99337202 31.3659602 -39.32649732 3.74085866 -0.99337218 3.74085865 -18.50908921" pbc="T T T"
Ga 3.156270822966123 1.8937218881629931 2.6405143027921834 0.20763553 0.17833373 -0.04103143
Ga 1.5258777361249736 4.742062683098951 2.5757749898330378 0.20763553 0.17833373 -0.04103143
Ga 1.5894340434515886 0.9280899145243837 0.0043659608317249 -0.19852479 -0.21264483 -0.04056537
Ga -0.04095904338956 3.776430709460342 -0.06037335212742081 -0.19852479 -0.21264483 -0.04056537
N 3.1733422834572624 1.8653562591615744 0.6518675587091294 0.22745032 0.24489012 0.04036083
N 1.5429491966161133 4.7136970540975325 0.5871282457499837 0.22745032 0.24489012 0.04036083
N 1.561228173942728 0.9749562755229648 3.2900549967486716 -0.23656105 -0.21057903 0.04123597
N -0.0691649128984204 3.8232970704589233 3.2253156837895256 -0.23656105 -0.21057903 0.04123597
8
Lattice="3.32832464 -0.01291668 -0.08858948 0.06017745 5.65862117 -0.00524355 -0.04196238 -0.03852298 5.28126502" Properties=species:S:1:pos:R:3:forces:R:3 energy=-48.58845285 stress="-118.22494575 -8.3222583 33.95464077 -8.32225809 -70.67067654 7.64654414 33.95464085 7.64654403 -44.49445836" pbc="T T T"
Ga 3.3273581009630813 1.8539906151269996 2.5556877117772654 -0.16886962 -0.14409542 0.1352267
Ga 1.693284507768405 4.689759709885634 2.597360676619959 -0.16886962 -0.14409542 0.1352267
Ga 1.6741507036267966 0.9366049610837179 -0.0397762200119293 -0.10335287 0.07551933 0.14966754
Ga 0.0400771104321202 3.772374055842353 0.0018967448307642008 -0.10335287 0.07551933 0.14966754
N 3.343179685678527 1.8685154011749172 0.5644283523546229 0.09411597 -0.09984796 -0.15040583
N 1.7091060924838504 4.7042844959335515 0.6061013171973163 0.09411597 -0.09984796 -0.15040583
N 1.6480099083422424 0.9126067671316355 3.250229440565428 0.17810652 0.16842405 -0.1344884
N 0.013936315147565803 3.748375861890271 3.2919024054081216 0.17810652 0.16842405 -0.1344884
8
Lattice="3.26584193 -0.05634684 0.00585952 -0.03080909 5.54174951 0.08249763 0.07457194 -0.02010884 5.17193974" Properties=species:S:1:pos:R:3:forces:R:3 energy=-48.56531791 stress="-19.9002782 35.158626 -16.53951426 35.1586261 41.93407118 -12.08516225 -16.53951423 -12.08516243 73.4842349" pbc="T T T"
Ga 3.2929327070863947 1.7808291069678248 2.624609473260722 0.30964381 -0.10800441 0.20320962
Ga 1.644607196162122 4.5798774482203095 2.662928530735651 0.30964381 -0.10800441 0.20320962
Ga 1.6278638968394454 0.8954300696203197 0.0219602157960557 -0.0980334 0.27430209 0.21530466
Ga -0.0204616140848272 3.694478410872805 0.060279273270984604 -0.0980334 0.27430209 0.21530466
N 3.264815944736282 1.7884109866321656 0.6745703491788732 0.1309819 -0.30120158 -0.21592291
N 1.6164904338120092 4.587459327884651 0.7128894066538021 0.1309819 -0.30120158 -0.21592291
N 1.6743190744893326 0.8829031092846604 3.243860831714207 -0.34259231 0.13490391 -0.20259137
N 0.02599356356506 3.6819514505371456 3.282179889189136 -0.34259231 0.13490391 -0.20259137
8
Lattice="3.26347075 -0.02789332 0.06828701 -0.04788645 5.63917204 -0.08236644 -0.0483 -0.0766618 5.24458355" Properties=species:S:1:pos:R:3:forces:R:3 energy=-48.64892921 stress="-44.09738538 23.92105064 -12.38615661 23.92105068 -37.31399737 29.6737903 -12.38615639 29.67379026 -3.08790163" pbc="T T T"
Ga 3.2233076421278213 1.8134225836279327 2.6684782899609893 0.17729094 -0.18138087 0.11227624
Ga 1.5676290406912277 4.646955432803094 2.593151562489996 0.17729094 -0.18138087 0.11227624
Ga 1.6237066220395853 0.9258361729522123 0.025770846527143593 -0.07729815 -0.13100832 0.11924709
Ga -0.031971979397008 3.759369022127374 -0.0495558809438496 -0.07729815 -0.13100832 0.11924709
N 3.2415187765238214 1.8423273112229488 0.6910493897518631 0.1011301 0.1273355 -0.11948672
N 1.5858401750872275 4.67586016039811 0.6157226622808699 0.1011301 0.1273355 -0.11948672
N 1.5936177564355853 0.8780791005472284 3.2929254963180172 -0.20112289 0.18505368 -0.11203661
N -0.062060845001008 3.71161194972239 3.217598768847024 -0.20112289 0.18505368 -0.11203661
8
Lattice="3.32654031 -0.0046661 -0.08279468 -0.08268106 5.51602118 -0.08657634 0.05711264 0.04730139 5.18592707" Properties=species:S:1:pos:R:3:forces:R:3 energy=-48.55373146 stress="-87.78371772 22.40110574 16.4992688 22.40110579 39.05171452 6.80337379 16.49926877 6.80337377 48.85488152" pbc="T T T"
Ga 3.3275929133949123 1.8577076512142772 2.4866052429305174 0.05322561 -0.44131277 0.23790532
Ga 1.6229822259144804 4.6180514566949125 2.4847144103332273 0.05322561 -0.44131277 0.23790532
Ga 1.6495499699890528 0.9170512443809051 -0.050531615139619186 -0.18109218 0.34350914 0.23593379
Ga -0.055060717491379 3.677395049861541 -0.052422447736909406 -0.18109218 0.34350914 0.23593379
N 3.3060590425305154 1.8398730348497303 0.5312923062923289 0.20485271 -0.40356857 -0.23589875
N 1.6014483550500835 4.600216840330366 0.5294014736950388 0.20485271 -0.40356857 -0.23589875
N 1.6851287391246559 0.9465180180163583 3.1800825182221923 -0.07698614 0.5013722 -0.23794037
N -0.019481948355775804 3.706861823496994 3.178191685624902 -0.07698614 0.5013722 -0.23794037
8
Lattice="3.16622969 0.03841141 -0.04312428 0.05163066 5.66253443 -0.09001116 0.04295264 -0.03688939 5.34107799" Properties=species:S:1:pos:R:3:forces:R:3 energy=-48.5805023 stress="62.77496082 -32.18752839 4.2398438 -32.18752833 -33.78059097 23.42786528 4.23984388 23.42786537 -61.75924813" pbc="T T T"
Ga 3.204958513745477 1.907441563186835 2.602864560852526 -0.24960167 0.15703018 -0.21720147
Ga 1.6476590002943965 4.719503243062868 2.579421118152191 -0.24960167 0.15703018 -0.21720147