8
Lattice="3.21021364 -0.02840687 0.03012763 -0.04895003 5.5696423 -0.02289892 -0.025174 0.04406776 5.23062063" Properties=species:S:1:pos:R:3:forces:R:3 energy=-48.62061884 stress="37.16772806 27.47972136 -4.87220001 27.47972147 31.55916693 -4.41537027 -4.8722 -4.41537019 28.53500068" pbc="T T T"
Ga 3.1812826449247344 1.8502204930303565 2.6431457298288543 0.21142613 0.05363712 -0.01979243
Ga 1.5517008084562336 4.649245245119626 2.616632454141887 0.21142613 0.05363712 -0.01979243
Ga 1.5969243902778847 0.9141143907129635 0.016588124485113598 -0.14512857 0.00922817 -0.01836849
Ga -0.032657446190616196 3.713139142802233 -0.009925151201854002 -0.14512857 0.00922817 -0.01836849
N 3.1907743032536144 1.8336050913763053 0.6709814385779188 0.16849459 -0.00508369 0.01839672
N 1.5611924667851136 4.632629843465574 0.6444681628909512 0.16849459 -0.00508369 0.01839672
N 1.5812420486067646 0.9415667490589124 3.275044463234178 -0.23479216 -0.0577816 0.01976419
N -0.0483397878617362 3.740591501148182 3.24853118754721 -0.23479216 -0.0577816 0.01976419
8
Lattice="3.20137797 0.00959207 0.04133383 0.04660972 5.62220092 -0.01571371 0.01338976 -0.02801154 5.22201906" Properties=species:S:1:pos:R:3:forces:R:3 energy=-48.62888592 stress="39.14558228 -17.40704087 -16.0945922 -17.40704098 -2.97169998 8.47064995 -16.09459226 8.47064992 31.72550946" pbc="T T T"
Ga 3.2236215030931747 1.869625716551771 2.65243742784793 -0.00887386 0.07816739 0.0505701
Ga 1.6462373794914664 4.675930310217799 2.6239136573765185 -0.00887386 0.07816739 0.0505701
Ga 1.6084725368018076 0.9418000441881917 0.0233799812434665 0.22449371 -0.1893434 0.03920017
Ga 0.0310884132000994 3.7481046378542198 -0.005143789227944799 0.22449371 -0.1893434 0.03920017
N 3.218572999596484 1.8801872469778358 0.6835162907851221 -0.24002651 0.20977087 -0.03856863
N 1.6411888759947753 4.686491840643864 0.6549925203137108 -0.24002651 0.20977087 -0.03856863
N 1.6168137933051163 0.9243500346142566 3.276477904180659 0.02440665 -0.09859486 -0.05120164
N 0.0394296697034082 3.730654628280284 3.2479541337092477 0.02440665 -0.09859486 -0.05120164
8
Lattice="3.18396431 -0.00925531 0.00579028 0.04489793 5.59540538 0.02459876 -0.04006377 0.0185121 5.25396347" Properties=species:S:1:pos:R:3:forces:R:3 energy=-48.62143812 stress="63.31942904 -8.37462068 6.37249871 -8.37462065 17.52119359 -8.43630469 6.3724988 -8.43630453 10.51544011" pbc="T T T"
Ga 3.1788559105524627 1.8651558177348186 2.6463362153039736 -0.09858682 0.19842869 -0.09939522
Ga 1.6093227218994002 4.66748633059698 2.6557404560419364 -0.09858682 0.19842869 -0.09939522
Ga 1.5994258207684828 0.9279579290569947 0.012359544315345802 0.01265387 -0.09240911 -0.09269799
Ga 0.029892632115421 3.7302884419191558 0.0217637850533086 0.01265387 -0.09240911 -0.09269799
N 3.193961639328455 1.8581759763051666 0.665370690172617 -0.01956377 0.11392457 0.09244058
N 1.6244284506753925 4.660506489167329 0.6747749309105797 -0.01956377 0.11392457 0.09244058
N 1.5744677795444753 0.9394901876273427 3.285357489183989 0.10549672 -0.21994415 0.09965264
N 0.004934590891413404 3.741820700489504 3.294761729921952 0.10549672 -0.21994415 0.09965264
8
Lattice="3.25043982 -0.03438465 0.01174975 0.00278478 5.63119518 0.03744051 0.04657624 0.00204476 5.26623788" Properties=species:S:1:pos:R:3:forces:R:3 energy=-48.68824733 stress="-30.56916768 14.53914135 -12.5926827 14.53914137 -31.72151987 -7.18678935 -12.59268257 -7.18678916 -17.52908936" pbc="T T T"
Ga 3.2747021324355305 1.8437059461714043 2.662726005963773 0.15833124 0.04729127 0.03989516
Ga 1.6508746125190734 4.676496030107259 2.6755713870869884 0.15833124 0.04729127 0.03989516
Ga 1.625733221919242 0.9213413934097422 0.0174921048589479 -0.0127243 0.03774957 0.04557488
Ga 0.0019057020027856003 3.754131477345598 0.030337485982163202 -0.0127243 0.03774957 0.04557488
N 3.2571409281643016 1.842934985526113 0.6771325112642674 0.0276615 -0.03606047 -0.04574067
N 1.6333134082478447 4.675725069461968 0.6899778923874827 0.0276615 -0.03606047 -0.04574067
N 1.654748257648013 0.922615192764451 3.2981364901594423 -0.17326845 -0.04898037 -0.03972936
N 0.030920737731556798 3.7554052767003068 3.3109818712826575 -0.17326845 -0.04898037 -0.03972936
8
Lattice="3.18922853 -0.01261653 -0.02126479 -0.0338833 5.63382784 0.02611148 -0.01603414 0.0347938 5.23661976" Properties=species:S:1:pos:R:3:forces:R:3 energy=-48.62848964 stress="50.68990904 15.48204782 10.12546856 15.48204775 -10.01136726 -11.84279065 10.12546849 -11.84279053 19.68953666" pbc="T T T"
Ga 3.1698990539085306 1.8827595678468898 2.6110958351453504 0.03434353 0.2520611 -0.00730971
Ga 1.5583431378920314 4.705981921861725 2.634783970928695 0.03434353 0.2520611 -0.00730971
Ga 1.5889522764369932 0.9326976792828015 -0.0009335934177145981 -0.1659044 -0.11914893 -0.00128586
Ga -0.022603639579505397 3.755920033297637 0.022754542365629803 -0.1659044 -0.11914893 -0.00128586
N 3.175944600046507 1.8696408397320339 0.636669619201059 0.17911682 0.1477112 0.00115954
N 1.5643886840300083 4.692863193746869 0.6603577549844034 0.17911682 0.1477112 0.00115954
N 1.5789636825749702 0.9543727511679454 3.261259950637994 -0.04755595 -0.28062338 0.00743603
N -0.0325922334415286 3.777595105182781 3.2849480864213385 -0.04755595 -0.28062338 0.00743603
8
Lattice="3.23083863 -0.01910624 0.04211582 -0.00701901 5.57745049 0.01199203 -0.01513657 -0.03045258 5.24747303" Properties=species:S:1:pos:R:3:forces:R:3 energy=-48.66570899 stress="5.30547085 10.87187369 -10.60074671 10.87187386 15.0539211 3.89800483 -10.60074688 3.89800506 7.83214742" pbc="T T T"
Ga 3.220913602924306 1.82478759009921 2.6752076443259476 0.12918833 -0.05187015 -0.00588943
Ga 1.6019847827137352 4.623066122422725 2.6601457496857086 0.12918833 -0.05187015 -0.00588943
Ga 1.6142356411727954 0.919989984401635 0.0284145856578371 -0.00142086 0.00809526 -0.00309406
Ga -0.0046931790377746 3.7182685167251504 0.013352691017598003 -0.00142086 0.00809526 -0.00309406
N 3.2266207273666345 1.8362694954218797 0.6966892884519238 0.01112815 -0.01073503 0.00297446
N 1.6076919071560638 4.634548027745395 0.6816273938116847 0.01112815 -0.01073503 0.00297446
N 1.6048061956151238 0.9010193097243047 3.297369259783814 -0.13889562 0.05450992 0.00600902
N -0.0141226245954462 3.69929784204782 3.2823073651435744 -0.13889562 0.05450992 0.00600902
8
Lattice="3.19658515 0.02197566 -0.00970188 0.0330404 5.63053422 0.03970391 -0.02651038 0.04034467 5.21321137" Properties=species:S:1:pos:R:3:forces:R:3 energy=-48.61680395 stress="44.94430101 -19.76737867 8.65819696 -19.76737885 -6.95819659 -15.6795327 8.65819705 -15.67953288 39.32960994" pbc="T T T"
Ga 3.1943147658530306 1.9190349693739748 2.6154614555304554 -0.19639006 0.25289426 0.05714716
Ga 1.6125423918442423 4.723314418290002 2.6401643517215727 -0.19639006 0.25289426 0.05714716
Ga 1.6037738327609763 0.9494505231995524 0.007089368863566301 0.07242155 -0.0641609 0.07276633
Ga 0.0220014587521882 3.75372997211558 0.031792265054683605 0.07242155 -0.0641609 0.07276633
N 3.2043102957302363 1.9038233294664744 0.6498611885775509 -0.09040317 0.0886042 -0.07330626
N 1.622537921721448 4.708102778382501 0.6745640847686682 -0.09040317 0.0886042 -0.07330626
N 1.587258982638182 0.974583553292052 3.2547004719106614 0.21437168 -0.27733756 -0.05660723
N 0.005486608629393801 3.7788630022080794 3.2794033681017787 0.21437168 -0.27733756 -0.05660723
8
Lattice="3.24194601 0.03522864 -0.03577192 -0.0173162 5.57074477 -0.03842122 -0.03129699 0.01070654 5.29015876" Properties=species:S:1:pos:R:3:forces:R:3 energy=-48.67327382 stress="-11.41068863 -11.77420231 17.36516642 -11.7742024 11.88469717 4.9293472 17.36516659 4.92934722 -27.13969623" pbc="T T T"
Ga 3.220491868023362 1.8975087876111028 2.601901966884151 -0.16997124 -0.10006987 -0.08615675
Ga 1.5908607625038755 4.665267019733446 2.6005773157315146 -0.16997124 -0.10006987 -0.08615675
Ga 1.6180566392479334 0.9460818585507049 -0.018887939029816597 -0.03442852 0.04203081 -0.08000028
Ga -0.0115744662715524 3.7138400906730484 -0.020212590182453204 -0.03442852 0.04203081 -0.08000028
N 3.232292151482581 1.893471971071638 0.60728929287718 0.02417279 -0.05029431 0.08031317
N 1.6026610459630943 4.661230203193981 0.6059646417245435 0.02417279 -0.05029431 0.08031317
N 1.5985599327071522 0.9527515820112402 3.276658146963212 0.18022697 0.10833337 0.08584385
N -0.031071172812333597 3.7205098141335835 3.2753334958105755 0.18022697 0.10833337 0.08584385
8
Lattice="3.24351396 -0.04975 -0.04492009 -0.04907288 5.57156445 0.02197893 0.02523626 0.00158549 5.21590321" Properties=species:S:1:pos:R:3:forces:R:3 energy=-48.62698459 stress="-3.68541074 37.0318713 9.90093342 37.03187139 21.05071054 -4.73788931 9.90093349 -4.73788926 34.11926386" pbc="T T T"
Ga 3.2397986001517185 1.8082335787807835 2.575683601694381 0.16942126 -0.04910111 0.08718849
Ga 1.5935051786795316 4.618890970927716 2.609133112353749 0.16942126 -0.04910111 0.08718849
Ga 1.6136055638473668 0.9037197961269888 -0.013471165771808097 -0.27655377 0.09391849 0.08098248
Ga -0.032687857624819606 3.714377188273923 0.019978344887559802 -0.27655377 0.09391849 0.08098248
N 3.2302834671804472 1.8076357822699447 0.6090683976811759 0.31195786 -0.10493225 -0.08091917
N 1.5839900457082603 4.618293174416878 0.6425179083405438 0.31195786 -0.10493225 -0.08091917
N 1.6293266908760955 0.90470748961615 3.2358168402149867 -0.20482534 0.06011486 -0.08725181
N -0.016966730596090805 3.715364881763084 3.2692663508743545 -0.20482534 0.06011486 -0.08725181
8
Lattice="3.20738571 -0.03880103 -0.03909721 0.03872919 5.58808593 0.01825638 0.00787708 0.04611434 5.20777327" Properties=species:S:1:pos:R:3:forces:R:3 energy=-48.61648434 stress="39.5593263 7.75323195 11.22869713 7.75323194 21.0795605 -12.83157013 11.2286971 -12.83157016 47.21772214" pbc="T T T"
Ga 3.2242404265078988 1.846999598017889 2.5761923569315286 -0.02206762 0.13522589 0.0575016
Ga 1.6399121676697743 4.660443245660467 2.6048691524792202 -0.02206762 0.13522589 0.0575016
Ga 1.6101573605965867 0.9119933306406895 -0.011188448433705 -0.12013375 0.02294359 0.05909046
Ga 0.025829101758462397 3.725436978283268 0.017488347113986398 -0.12013375 0.02294359 0.05909046
N 3.221270435565289 1.8296125495018882 0.6126424827313963 0.12673477 -0.01347323 -0.05918502
N 1.6369421767271648 4.643056197144466 0.6413192782790877 0.12673477 -0.01347323 -0.05918502
N 1.615064449653977 0.9407206221246888 3.2330349473661624 0.0154666 -0.14469625 -0.05740704
N 0.0307361908158528 3.754164269767267 3.261711742913854 0.0154666 -0.14469625 -0.05740704
8
Lattice="3.24421572 0.02852324 -0.01467524 -0.03953461 5.60783921 -0.03152301 -0.02423376 0.0259868 5.30044489" Properties=species:S:1:pos:R:3:forces:R:3 energy=-48.69542189 stress="-21.7472746 -2.4752458 8.79754243 -2.47524569 -16.46791809 0.62250641 8.79754254 0.62250629 -38.42805729" pbc="T T T"
Ga 3.2188942630560273 1.9108239432837073 2.630451608712708 -0.06741083 -0.02076195 -0.05710711
Ga 1.5770190968699889 4.700482096518883 2.622027722767018 -0.06741083 -0.02076195 -0.05710711
Ga 1.615495642511963 0.948927158115485 -0.007179385139631699 -0.03740274 0.0121166 -0.05653118
Ga -0.026379523674075003 3.7385853113506613 -0.015603271085322001 -0.03740274 0.0121166 -0.05653118
N 3.2280314113019983 1.9010258251196912 0.6319606304439414 0.0355431 -0.01228879 0.05664267
N 1.58615624511596 4.690683978354866 0.623536744498251 0.0355431 -0.01228879 0.05664267
N 1.6003990307579343 0.965115839951469 3.2947745265916013 0.06927046 0.02093414 0.05699562
N -0.0414761354281038 3.754773993186645 3.286350640645911 0.06927046 0.02093414 0.05699562
8
Lattice="3.22017776 -0.0226241 0.03550788 0.00530989 5.60734839 -0.03027698 0.04871504 0.04592731 5.26470186" Properties=species:S:1:pos:R:3:forces:R:3 energy=-48.66726104 stress="11.99721305 9.09357724 -20.90181259 9.09357727 -4.56560949 -3.42542979 -20.9018126 -3.4254297 -6.63190664" pbc="T T T"
Ga 3.2463533752143747 1.8695036375562315 2.663142036408862 0.19124848 0.07861807 -0.03606692
Ga 1.638919440373672 4.684490050776684 2.6302496055005524 0.19124848 0.07861807 -0.03606692
Ga 1.611025211902406 0.9232920197425175 0.018083375645171797 0.07032543 -0.03179943 -0.02973274
Ga 0.0035912770617030003 3.7382784329629697 -0.014809055263137604 0.07032543 -0.03179943 -0.02973274
N 3.22798575325689 1.8521871072279343 0.6781276859465187 -0.06148008 0.0414169 0.02843241
N 1.6205518184161871 4.667173520448387 0.6452352550382093 -0.06148008 0.0414169 0.02843241
N 1.6413726299449212 0.9519027994142203 3.2977708851828282 -0.20009383 -0.08823554 0.03736725
N 0.0339386951042182 3.7668892126346725 3.264878454274519 -0.20009383 -0.08823554 0.03736725
8
Lattice="3.21563156 -0.04228156 -0.02879654 0.02617368 5.58468255 0.01180345 -0.00570907 0.01166652 5.24020725" Properties=species:S:1:pos:R:3:forces:R:3 energy=-48.651145 stress="24.59260903 12.93226159 10.43385906 12.9322617 15.80344478 -4.61136627 10.43385901 -4.61136625 16.73309332" pbc="T T T"
Ga 3.2214941527669594 1.8251255258317673 2.6005921509495993 0.01667417 0.05407578 -0.008065
Ga 1.6267652135521695 4.638607748372244 2.620892146303703 0.01667417 0.05407578 -0.008065
Ga 1.6121738344122223 0.9096506611425317 -0.007080478566125497 -0.15014173 -0.000449 -0.01042808
Ga 0.017444895197433002 3.7231328836830087 0.013219516787978001 -0.15014173 -0.000449 -0.01042808
N 3.2236467126229877 1.8207267563979448 0.6248133001702291 0.160942 0.00533024 0.01082802
N 1.628917773408198 4.634208978938422 0.6451132955243325 0.160942 0.00533024 0.01082802
N 1.6086173242682509 0.9169184117087092 3.2573479206545044 -0.02747445 -0.05895702 0.00766506
N 0.013888385053461402 3.7304006342491864 3.277647916008608 -0.02747445 -0.05895702 0.00766506
8
Lattice="3.20397387 -0.00846944 -0.02970859 -0.00235469 5.55988688 0.02403996 0.045809 0.04046 5.21331923" Properties=species:S:1:pos:R:3:forces:R:3 energy=-48.60136548 stress="49.36828326 4.78648004 0.46549637 4.78648004 43.39898603 -12.87048604 0.46549651 -12.870486 46.74029947" pbc="T T T"
Ga 3.2261386446443967 1.8650985408345375 2.590287476074738 0.02989644 0.10137753 0.00207149
Ga 1.6229743645737553 4.649276867631143 2.617161751795937 0.02989644 0.10137753 0.00207149
Ga 1.601642862760043 0.9224535301372687 -0.0055245418875715996 -0.03463055 0.0673702 0.00360356
Ga -0.0015214173105976001 3.706631856933875 0.0213497338336272 -0.03463055 0.0673702 0.00360356
N 3.208866722169317 1.8498434166593376 0.6246465413587703 0.0388906 -0.06300889 -0.00358148
N 1.6057024420986754 4.634021743455943 0.6515208170799691 0.0388906 -0.06300889 -0.00358148
N 1.630179940284963 0.9476584059620686 3.2421537533964604 -0.03415649 -0.10573884 -0.00209357
N 0.0270156602143224 3.731836732758675 3.2690280291176594 -0.03415649 -0.10573884 -0.00209357
8
Lattice="3.22717013 -0.01978792 -0.01727614 -0.03153136 5.54638739 0.00867071 0.04892608 0.04448128 5.29784839" Properties=species:S:1:pos:R:3:forces:R:3 energy=-48.65263306 stress="10.54042668 18.10309745 -4.35430582 18.10309735 34.2035643 -10.59992621 -4.35430569 -10.59992607 -27.80169689" pbc="T T T"
Ga 3.2411710536589933 1.8512949799420295 2.639947723000363 0.13991388 -0.00728636 -0.15433546
Ga 1.611820307713052 4.6343828013336505 2.652921148260484 0.13991388 -0.00728636 -0.15433546
Ga 1.6083814133215562 0.9145484775611056 -0.0017835405860544985 -0.08646359 0.14375018 -0.15451056
Ga -0.0209693326243846 3.697636298952727 0.011189884674066801 -0.08646359 0.14375018 -0.15451056
N 3.2227238607325037 1.8345236638305158 0.6424357345961759 0.10314325 -0.15263186 0.15463365
N 1.5933731147865622 4.617611485222137 0.6554091598562971 0.10314325 -0.15263186 0.15463365
N 1.6388603003950666 0.942258441449592 3.2985528610097585 -0.15659354 0.01616804 0.15421237
N 0.009509554449125796 3.7253462628412137 3.31152628626988 -0.15659354 0.01616804 0.15421237
8
Lattice="3.27075396 0.03851249 -0.02344923 -0.01471982 5.64313461 0.03130033 0.04442433 0.043133 5.30241996" Properties=species:S:1:pos:R:3:forces:R:3 energy=-48.68328182 stress="-57.94866526 -12.5990866 -1.03423395 -12.59908649 -47.69145749 -13.1525718 -1.03423392 -13.15257167 -48.72220687" pbc="T T T"
Ga 3.288103240115043 1.941168935509862 2.643608299825034 -0.0632059 0.03953307 0.01523666
Ga 1.6453663496734487 4.7434801648039 2.670983080764044 -0.0632059 0.03953307 0.01523666
Ga 1.6329706742561414 0.959821856546136 -0.0010938210373091003 0.06937025 0.10252887 0.01160609
Ga -0.009766216185453 3.7621330858401745 0.026280959901700804 0.06937025 0.10252887 0.01160609
N 3.2713533965522634 1.924905977747902 0.644372636976319 -0.08234167 -0.10739362 -0.01136504
N 1.628616506110669 4.7272172070419405 0.6717474179153289 -0.08234167 -0.10739362 -0.01136504
N 1.6606451606933617 0.9866918987841761 3.3020904761139755 0.07617732 -0.03466832 -0.01547771
N 0.0179082702517674 3.7890031280782144 3.3294652570529855 0.07617732 -0.03466832 -0.01547771
8
Lattice="3.19736701 -0.00222745 -0.02132181 -0.01546964 5.55284527 -0.03311342 -0.04126198 0.01969804 5.27912034" Properties=species:S:1:pos:R:3:forces:R:3 energy=-48.62204049 stress="50.56081309 5.56346353 15.34639003 5.56346371 41.86160446 2.1380664 15.34639022 2.13806665 -8.13108855" pbc="T T T"
Ga 3.1715357408048637 1.8585911438588976 2.612590856427427 -0.06607988 0.01355585 -0.16787533
Ga 1.565117415340774 4.636127670444256 2.6066950504340247 -0.06607988 0.01355585 -0.16787533
Ga 1.5960647018164495 0.924379728487905 -0.010789515192108797 -0.14016808 -0.04912287 -0.17012379
Ga -0.010353623647639401 3.7019162550732627 -0.016685321185511397 -0.14016808 -0.04912287 -0.17012379
N 3.187093245219461 1.8511641530974527 0.6221401316987062 0.14483322 0.05523004 0.17014551
N 1.5806749197553718 4.628700679682811 0.6162443257053036 0.14483322 0.05523004 0.17014551
N 1.5703602262310472 0.9366507777264602 3.277880100079171 0.06141475 -0.01966302 0.16785361
N -0.0360580992330418 3.714187304311818 3.271984294085768 0.06141475 -0.01966302 0.16785361
8
Lattice="3.26713468 -0.01782903 -0.04317712 0.04243558 5.56195875 -0.01724083 0.00165185 0.0133205 5.27532642" Properties=species:S:1:pos:R:3:forces:R:3 energy=-48.67776759 stress="-38.36035954 -2.83470675 13.15505479 -2.83470675 11.60577279 0.40705164 13.15505481 0.40705161 -19.40438099" pbc="T T T"
Ga 3.282105859325262 1.8428321181765448 2.5941255898313433 -0.08924542 -0.15440832 -0.01762874
Ga 1.66975631059833 4.632726175035307 2.6070937343141187 -0.08924542 -0.15440832 -0.01762874
Ga 1.6406432502237267 0.9180913307416775 -0.019075625759758096 -0.05205688 0.14939909 -0.01714038
Ga 0.0282937014967942 3.70798538760044 -0.0061074812769830004 -0.05205688 0.14939909 -0.01714038
N 3.28148304229934 1.837809728617085 0.6051053327425332 0.04887944 -0.1702565 0.01713222
N 1.6691334935724078 4.6277037854758465 0.6180734772253083 0.04887944 -0.1702565 0.01713222
N 1.6416722831978046 0.9263894411822174 3.2672305371514314 0.09242287 0.17526573 0.0176369
N 0.0293227344708722 3.7162834980409802 3.2801986816342064 0.09242287 0.17526573 0.0176369
8
Lattice="3.19005825 0.01593237 -0.00647939 0.0466372 5.55343712 0.04095028 0.02230921 -0.00910648 5.23853968" Properties=species:S:1:pos:R:3:forces:R:3 energy=-48.58793855 stress="66.90878897 -21.49666463 -2.55727605 -21.49666476 50.50526541 -5.86198121 -2.5572759 -5.86198137 28.44983121" pbc="T T T"
Ga 3.2167797810517818 1.8625165670796084 2.631789417542741 -0.13048183 0.09705174 -0.09770182
Ga 1.6450692574508976 4.631269108682721 2.65550425377125 -0.13048183 0.09705174 -0.09770182
Ga 1.6028263584312594 0.9335288779985673 0.0089342053370886 0.15820679 -0.01742528 -0.09909235
Ga 0.0311158348303756 3.702281419601681 0.032649041565597 0.15820679 -0.01742528 -0.09909235
N 3.2083682692178566 1.8659500936045461 0.6566393108914197 -0.17591302 0.02627694 0.09930243
N 1.6366577456169724 4.634702635207659 0.6803541471199281 -0.17591302 0.02627694 0.09930243
N 1.6167240565973342 0.9278559245235048 3.2723237786857666 0.14818806 -0.1059034 0.09749174
N 0.045013532996450396 3.696608466126619 3.296038614914275 0.14818806 -0.1059034 0.09749174
8
Lattice="3.22162796 -0.01071441 0.01357288 0.01060788 5.60080621 0.04820043 0.02170131 0.04796233 5.22372528" Properties=species:S:1:pos:R:3:forces:R:3 energy=-48.64844194 stress="16.03941741 2.23843184 -8.92151517 2.23843181 4.3676855 -18.84584346 -8.92151529 -18.84584335 28.3914142" pbc="T T T"
Ga 3.2360351245057464 1.880252181591034 2.6468360691453703 0.07476274 0.14756567 0.05885996
Ga 1.6305250848239827 4.68601265961522 2.6641498455913832 0.07476274 0.14756567 0.05885996
Ga 1.6126057274916672 0.9281585862664918 0.0201535811694361 0.037978 0.08315088 0.0622436
Ga 0.0070956878099038 3.7339190642906788 0.037467357615449004 0.037978 0.08315088 0.0622436
N 3.2278528165765694 1.8621683630076944 0.6772716152765768 -0.03514863 -0.07628354 -0.0622831
N 1.6223427768948055 4.66792884103188 0.6945853917225896 -0.03514863 -0.07628354 -0.0622831
N 1.62612472956249 0.9580370976831523 3.2743144073006425 -0.07759211 -0.15443301 -0.05882046
N 0.0206146898807266 3.763797575707339 3.2916281837466554 -0.07759211 -0.15443301 -0.05882046
8
Lattice="3.26153018 0.02049628 -0.01576552 -0.00310974 5.64443274 0.00279988 0.00518981 0.04440463 5.24316931" Properties=species:S:1:pos:R:3:forces:R:3 energy=-48.68711905 stress="-41.90206046 -8.08941066 3.99677384 -8.0894107 -39.91958366 -8.77618337 3.99677379 -8.77618319 -1.64527324" pbc="T T T"
Ga 3.263092172761824 1.9242225581708126 2.612106027194406 -0.06724615 0.04262483 0.12565579
Ga 1.6307722126685316 4.736190957503794 2.621388727278403 -0.06724615 0.04262483 0.12565579
Ga 1.6302537303596811 0.9510313957451851 -0.002062531199072599 0.02411902 0.05669832 0.12594145
Ga -0.0020662297336110007 3.762999795078168 0.0072201688849238 0.02411902 0.05669832 0.12594145
N 3.2611353957970266 1.907480142337797 0.635210355033069 -0.03263864 -0.05697026 -0.12581342
N 1.6288154357037343 4.719448541670779 0.6444930551170653 -0.03263864 -0.05697026 -0.12581342
N 1.633486763394884 0.9786936099121696 3.26421110663959 0.07576577 -0.04235289 -0.12578382
N 0.0011668033015917998 3.7906620092451524 3.2734938067235864 0.07576577 -0.04235289 -0.12578382
8
Lattice="3.25179961 0.04233989 0.0496046 -0.00543794 5.55005189 0.01413979 -0.02197691 0.04190968 5.26144412" Properties=species:S:1:pos:R:3:forces:R:3 energy=-48.65801821 stress="-16.04374413 -18.18217384 -11.42593761 -18.18217385 27.57765639 -11.09955128 -11.42593765 -11.09955133 -3.88304513" pbc="T T T"
Ga 3.2389744416747215 1.9133558338042684 2.6904121513036285 -0.03841893 -0.0728433 -0.02527837
Ga 1.6103556665115832 4.667212000305825 2.672679746727822 -0.03841893 -0.0728433 -0.02527837
Ga 1.6249726686746908 0.9462205372930096 0.032531204386900096 0.16502769 0.20806315 -0.0360737
Ga -0.0036461064884472 3.7000767037945663 0.014798799811093801 0.16502769 0.20806315 -0.0360737
N 3.2472606624121707 1.8975541192085468 0.7066261060372936 -0.18122918 -0.2273552 0.03751787
N 1.6186418872490325 4.651410285710103 0.6888937014614873 -0.18122918 -0.2273552 0.03751787
N 1.61128197941214 0.972328502697288 3.3101892791205656 0.05462043 0.09213535 0.0238342
N -0.017336795750998 3.7261846691988447 3.2924568745447593 0.05462043 0.09213535 0.0238342
8
Lattice="3.23443163 -0.03755291 -0.03310308 -0.02370743 5.64217201 -0.00734493 -0.00734594 0.02343351 5.2915318" Properties=species:S:1:pos:R:3:forces:R:3 energy=-48.68261334 stress="-14.80087989 22.53391572 11.42800147 22.53391575 -35.63478567 -3.1493296 11.42800162 -3.14932967 -34.27248515" pbc="T T T"
Ga 3.222847061046635 1.8549128473349508 2.615617496640194 0.06676219 0.07542538 -0.02401529
Ga 1.593777530335412 4.69477547660011 2.6284965714198463 0.06676219 0.07542538 -0.02401529
Ga 1.613258696951149 0.9216085709696508 -0.0123727389411263 -0.20023285 -0.050753 -0.02908042
Ga -0.0158108337600736 3.761471200234811 0.0005063358385258001 -0.20023285 -0.050753 -0.02908042
N 3.225616789837628 1.8460774270455096 0.6204871287207783 0.22188973 0.06148671 0.02901924
N 1.596547259126405 4.6859400563106695 0.6333662035004304 0.22188973 0.06148671 0.02901924
N 1.608682485742142 0.9362066606802095 3.284028693139457 -0.08841907 -0.08615908 0.02407647
N -0.0203870449690808 3.77606928994537 3.2969077679191092 -0.08841907 -0.08615908 0.02407647
8
Lattice="3.24517403 -0.03976935 0.04471598 -0.04290337 5.6241142 0.03100804 -0.02760006 0.00995788 5.28681833" Properties=species:S:1:pos:R:3:forces:R:3 energy=-48.67927939 stress="-23.72419816 28.49348173 -8.49159591 28.49348166 -25.91598224 -7.18544684 -8.49159592 -7.18544679 -30.96186054" pbc="T T T"
Ga 3.217043064753759 1.839925560645612 2.7038593004875406 0.21978489 0.05713869 -0.01961259
Ga 1.5730043634666577 4.671867504369038 2.697005331417782 0.21978489 0.05713869 -0.01961259
Ga 1.6154099013246126 0.9174769582637198 0.032924172890760196 -0.11425939 0.03584442 -0.01570792
Ga -0.028628799962488405 3.7494189019871462 0.026070203821001402 -0.11425939 0.03584442 -0.01570792
N 3.227449449888286 1.8361710204597064 0.710506109289481 0.1416246 -0.03423996 0.01579042
N 1.583410748601185 4.668112964183132 0.7036521402197222 0.1416246 -0.03423996 0.01579042
N 1.5982162264591397 0.9236802980778142 3.3263893116927004 -0.2471501 -0.05874315 0.01953009
N -0.0458224748279612 3.7556222418012406 3.3195353426229417 -0.2471501 -0.05874315 0.01953009
8
Lattice="3.27933275 -0.00808849 -0.02795029 0.03564175 5.63913294 -0.00655202 -0.03104023 0.03325444 5.27095021" Properties=species:S:1:pos:R:3:forces:R:3 energy=-48.68291679 stress="-63.54815661 -5.21245325 14.22907334 -5.21245325 -44.14353019 -5.01918744 14.22907338 -5.01918755 -26.14048236" pbc="T T T"
Ga 3.2756598913828414 1.8882847214609 2.610722777506857 -0.10269847 -0.02251349 0.08564712
Ga 1.6538143924520936 4.711895605634887 2.6214219123102964 -0.10269847 -0.02251349 0.08564712
Ga 1.6455766068119235 0.9358443122701007 -0.009685204860572599 -0.04154906 0.08085598 0.08600469
Ga 0.023731107881176203 3.759455196444089 0.0010139299428668005 -0.04154906 0.08085598 0.08600469
N 3.287363365507329 1.8757463969038872 0.623352535914012 0.0358503 -0.08964009 -0.08598905
N 1.665517866576581 4.699357281077875 0.6340516707174514 0.0358503 -0.08964009 -0.08598905
N 1.626239850936411 0.9565604277130878 3.2738947635465823 0.10839724 0.0312976 -0.08566276
N 0.0043943520056638034 3.7801713118870763 3.2845938983500216 0.10839724 0.0312976 -0.08566276
8
Lattice="3.18167408 0.04179628 0.03198908 0.0404744 5.61061946 -0.04748285 -0.01152367 -0.02904395 5.2807259" Properties=species:S:1:pos:R:3:forces:R:3 energy=-48.6113351 stress="61.58779167 -32.11927766 -7.96759304 -32.11927774 4.71860846 14.68519943 -7.96759299 14.68519942 -12.52951254" pbc="T T T"
Ga 3.189390362026358 1.8974521624685718 2.6619163264627823 -0.15506442 0.0851277 -0.14017776
Ga 1.6187905232405897 4.681863920787155 2.6221803600382967 -0.15506442 0.0851277 -0.14017776
Ga 1.5975725914708938 0.9559708696188375 0.0134726930876405 0.28827118 -0.27450063 -0.1546765
Ga 0.026972752685125802 3.740382627937421 -0.026263273336845007 0.28827118 -0.27450063 -0.1546765
N 3.1937352709933386 1.9084029549497459 0.670860237987874 -0.31742494 0.30169454 0.15510926
N 1.62313543220757 4.692814713268329 0.6311242715633885 -0.31742494 0.30169454 0.15510926
N 1.5903938304378742 0.9378777121000115 3.3031425046127323 0.18421817 -0.11232161 0.139745
N 0.019793991652106203 3.722289470418595 3.2634065381882467 0.18421817 -0.11232161 0.139745
8
Lattice="3.20336244 0.02184474 -0.00897985 0.00945612 5.5778057 -0.0171724 -0.01787184 -0.04756458 5.23251666" Properties=species:S:1:pos:R:3:forces:R:3 energy=-48.62422324 stress="43.92224324 -13.17146732 6.44801014 -13.17146736 27.22993028 12.74066006 6.44801019 12.74066009 27.63270613" pbc="T T T"
Ga 3.1975587118629725 1.857283480644639 2.606897061411937 -0.12508758 -0.02786262 -0.02548351
Ga 1.6006055521466553 4.635264127978809 2.602800785896765 -0.12508758 -0.02786262 -0.02548351
Ga 1.6032405919788106 0.9405072241094221 -0.0020092800053893986 0.04438157 -0.13161735 -0.02626333
Ga 0.006287432262494401 3.7184878714435934 -0.006105555520561401 0.04438157 -0.13161735 -0.02626333
N 3.204297148304873 1.8752173307247486 0.6340178869902174 -0.05550127 0.14035242 0.02611672
N 1.607343988588556 4.653197978058919 0.6299216114750454 -0.05550127 0.14035242 0.02611672
N 1.5921071884207114 0.9108764941895316 3.257628205572891 0.13620729 0.01912755 0.02563012
N -0.004845971295604799 3.688857141523703 3.2535319300577195 0.13620729 0.01912755 0.02563012
8
Lattice="3.23250555 -0.03343975 -0.03129203 0.04057197 5.63015376 -0.04874314 -0.03095065 0.01713149 5.26888964" Properties=species:S:1:pos:R:3:forces:R:3 energy=-48.68642051 stress="-7.99228633 4.48972544 15.7737537 4.48972536 -24.66690015 5.42947713 15.77375372 5.42947705 -14.75140358" pbc="T T T"
Ga 3.2305210038499705 1.8518624749610895 2.5922849356697806 -0.06514499 0.01931796 0.00889268
Ga 1.6345542150671295 4.683659398865702 2.5835593792074865 -0.06514499 0.01931796 0.00889268
Ga 1.6229847774258106 0.9216556785018819 -0.018390027220437994 -0.12652754 -0.08393425 0.00648546
Ga 0.0270179886429698 3.753452602406495 -0.027115583682732196 -0.12652754 -0.08393425 0.00648546
N 3.2421907025413486 1.8454031816527305 0.6056916157581438 0.13125033 0.09291863 -0.00635838
N 1.6462239137585075 4.677200105557343 0.5969660592958497 0.13125033 0.09291863 -0.00635838
N 1.6037038261171885 0.9323278751935231 3.2639062928679254 0.0604222 -0.02830233 -0.00901976
N 0.007737037334347798 3.7641247990981364 3.2551807364056313 0.0604222 -0.02830233 -0.00901976
8
Lattice="3.22046933 -0.00208942 -0.0357545 -0.01870194 5.60860711 -0.03583 -0.0029622 0.04436179 5.22032275" Properties=species:S:1:pos:R:3:forces:R:3 energy=-48.65538924 stress="16.26817642 6.08005882 12.33105484 6.08005882 -0.79321317 -1.97899885 12.33105481 -1.97899882 30.13895141" pbc="T T T"
Ga 3.212749611690374 1.8896735223673347 2.5677938156027653 -0.03904731 0.06662306 0.07657905
Ga 1.593163976129316 4.695021955625547 2.567756064527865 -0.03904731 0.06662306 0.07657905