LAMMPS data file via write_data, version 8 Feb 2023, timestep = 100000

200 atoms
1 atom types

-11.876696863105703 11.876696863105703 xlo xhi
-11.876696863105703 11.876696863105703 ylo yhi
-11.876696863105703 11.876696863105703 zlo zhi

Masses

1 39.948

Pair Coeffs # lj/cut

1 0.00965188 3.4

Atoms # atomic

39 1 -10.354249178970125 -8.813051919915168 -8.382969093379817 0 -1 1
57 1 -6.095139656027609 -9.359263918713493 -7.698842353606457 1 0 0
82 1 -7.493664607592135 -7.0059769885785474 -10.165574967227153 0 0 0
8 1 -7.207830943811267 -11.030802786228156 -10.545758277848378 0 1 1
49 1 -0.3707760358866739 -8.703874147846175 -7.734231800660862 0 1 0
54 1 4.371171010756674 -9.822286390366472 -9.608608173022526 0 -1 1
114 1 3.857478702816806 -8.583003039261015 -6.26115845444949 -1 0 1
128 1 1.580452299690882 11.414121196534609 -7.383200117467098 0 0 -2
102 1 2.6350731915864145 -6.397417482172074 -10.801961817246344 1 -1 -1
157 1 6.611187455803048 -6.205022609136458 -7.392834911294685 -1 0 1
20 1 8.102933091687992 -11.214330088075124 -9.936524774492973 0 1 0
147 1 10.596045290286296 -5.759130098910738 -9.380762680610847 -1 2 0
169 1 9.366630474689176 -8.921006522319503 -6.843673029579733 0 1 1
123 1 -6.859009660270495 -3.2379537512590297 -10.864178266429683 -1 0 -1
130 1 -6.577322046738903 -2.5106835965921164 -7.224326100490352 -1 1 0
140 1 -9.107723436323155 -1.3229863757258506 -9.244986454221655 -1 1 0
153 1 -4.548656766959874 -5.17967134910819 -8.787434718939945 0 1 0
129 1 -0.17808656259561137 -5.023072792674526 -8.617493408883192 0 1 1
148 1 -3.2601725736553027 -2.033844854035978 -9.777384129731104 0 0 0
119 1 -3.5689822234610595 -3.8505044768944927 10.627709646886371 0 -1 -1
174 1 3.140197534695247 -1.913882100151838 -10.76389374977719 -1 1 -1
134 1 0.048608226174046365 -0.39555664243276595 -8.555122102444741 -1 0 2
189 1 2.8889478385298655 -1.3768037709890826 -6.4534432907832056 0 0 2
28 1 6.251824687614619 -1.150087307901578 -9.266876365488919 0 0 -1
1 1 7.556173300837827 -2.8495110668506705 -6.5781416096142475 1 -1 0
24 1 10.885498404916829 -2.163413929107282 -8.181530231530648 0 -1 1
176 1 10.317143708012939 -3.6994503272775026 -4.285905348037859 0 0 0
182 1 -10.866713794399553 0.5835390862478285 -5.190897922574198 0 1 -1
137 1 -8.197336531384668 3.7710266805092836 -8.628333311872499 -1 1 0
89 1 -5.830740775393367 0.9227024639457406 -8.56962226272939 0 0 -1
88 1 -3.2174671278447153 2.596119117918313 -11.010039397757382 0 1 -1
160 1 -0.16353319092958282 5.356569592952759 -6.027400461354258 0 0 1
125 1 -3.2660565494911986 3.5402608994580014 -7.139474945270797 0 1 0
107 1 2.5004686193441863 1.4213418016161157 -11.264390107008213 -1 1 1
167 1 2.6306438675911963 2.7047021139073024 -7.49322777752869 0 1 0
45 1 -0.26576210897417507 3.3660903959893673 -9.858663372020018 0 1 0
95 1 7.02981932063029 1.8215081284089933 -11.08913793230704 0 2 -1
111 1 11.249280516767561 1.4119125550850526 -8.355555586118154 0 1 1
37 1 7.519477058425284 1.5490589443573544 -7.629176894794767 1 0 2
53 1 9.42047942911636 5.244187392085703 -10.133263719784543 -1 -1 1
122 1 -8.63992654505136 11.450404981587694 -7.075458716341785 2 -1 -1
126 1 -8.723342916981192 9.13102883296233 -10.17466547482745 0 0 -1
72 1 -11.206699277582317 7.297248005363309 10.79372604446887 2 0 0
144 1 -3.0607758424636864 -9.877816322452732 -9.947243110943289 0 1 1
135 1 -0.051808796348424835 7.83802622288054 -8.426793042584595 1 0 0
183 1 2.8265474855254293 5.2650728973076095 -10.056888138059385 0 0 0
155 1 3.7333346013160673 9.271985029918303 -9.380687277523048 0 0 0
21 1 6.713007344355741 6.806136281598503 -8.223321187919673 1 0 0
66 1 9.521874492322397 7.474069880889854 -6.18586873962963 -2 -1 0
22 1 11.050170157856584 10.74761987425433 -6.194431008418831 -1 0 0
42 1 9.124991617085433 9.313926068749339 -10.259091612355418 -1 1 0
77 1 -6.847598261663958 -10.941109014822928 -3.892206492676891 1 -1 1
47 1 -8.72137736883077 -8.020553455249186 -5.411695457067339 1 2 1
46 1 11.333911554840483 -7.659682887184623 -4.080815689532784 1 0 -2
18 1 -10.646224114047842 -11.295142102189118 -3.8769976756703564 1 0 -1
14 1 -9.605745944890806 -7.401374860679573 -1.982921039201294 -1 0 2
178 1 -4.564495057067056 -8.050510749495825 -4.8659978849512635 2 1 0
48 1 -3.165816579392377 -10.956276319999837 -6.319173483966388 1 1 -1
55 1 -0.9801312338979216 -6.257580408615657 -4.2669674058977485 -1 0 -1
12 1 -1.844858616965503 -9.490670669998687 -2.2961766563429364 -1 0 2
15 1 6.049786455655653 -8.189634166823847 0.7790760301881896 -1 0 -1
64 1 2.7732180154018238 -10.586600242266561 -1.7220526985868578 1 1 0
44 1 7.987685169786731 -6.317537693048875 -3.624602682973471 -1 0 1
188 1 9.985693632064716 -8.552544016815117 -0.7260907476837022 -1 0 0
200 1 -9.468913996814749 -3.332006112139499 -5.219156914346259 -1 0 0
198 1 -7.176651640198091 -1.1963525306783946 -2.253714347543795 0 0 1
76 1 -9.922127224407973 -2.9538091484944595 -1.5482866071777552 1 0 0
194 1 -6.755129554954018 -4.9982944036574395 -2.6156955876752477 0 1 -1
68 1 -2.4837259122195063 -3.490803572414407 -6.114089975980331 0 1 1
96 1 -3.411864655652117 -4.073235933810771 -2.067669105620388 -1 2 0
91 1 3.0280594613502636 -6.3376596415711255 -2.326898295867128 1 -1 -1
154 1 -0.19811764587289105 -2.9629996027018635 -2.9145103486688195 -1 2 0
19 1 3.201765959673939 -2.0909064907714274 -2.3150720129859153 0 1 -1
120 1 6.666250093808799 -2.2381082538053363 -2.826357084420522 1 1 1
138 1 9.709412364194842 -4.510669257803851 -0.7371785941816178 -1 1 -1
9 1 7.576584804759921 -2.0173260225381977 0.5837619474494389 0 0 1
150 1 -9.925148350003655 2.008414757334357 -1.3585989335940631 1 -1 1
38 1 -5.774540065294694 4.703952130507923 -4.709776738882269 1 0 2
172 1 -9.650643801070206 4.065753015545833 -4.8890536457268325 0 0 2
152 1 11.354703841174967 -0.5574832611945055 -1.878354960063874 -2 -1 0
29 1 -7.8756923654824735 7.618259977195223 2.1884603240114373 1 -1 -1
87 1 -3.3182201208100697 -0.9619504843434044 -3.571516039019219 0 -1 1
93 1 -6.22447967806385 0.9237017015404234 -4.899961705314269 0 -1 1
195 1 0.9557760919893532 0.18190089307880442 -3.7530657563825116 1 -1 3
149 1 -2.258211757279497 2.7869892960968605 -2.6067337721972543 1 0 0
25 1 4.582659783463335 1.197304704789868 -0.6333382889463834 -1 0 1
35 1 2.8340362437473665 3.775198295599683 -3.7220216498098746 1 -1 0
5 1 5.712702262390174 1.525516395213053 -4.231454437885219 0 -1 -1
116 1 5.993880302160488 5.819609728686341 -4.981314501727478 0 1 0
112 1 4.993891288991353 5.44294004315121 -0.20000094912971011 -1 0 0
132 1 8.553215140035688 1.848923908331039 -1.3929852223418029 0 0 0
173 1 9.058614097754903 3.793989570565648 -5.529277027531151 0 0 1
73 1 -9.97609370360327 8.001052498887105 -6.678871508542809 0 -2 1
161 1 -11.443764897577033 7.1235053711641685 -3.5412879782897306 2 0 2
78 1 -1.7946589875472476 10.140074782001498 -1.7188309657767924 1 -2 1
11 1 4.48445505597226 -11.863465860429208 -4.995823112103199 0 2 1
84 1 2.463379766571318 7.427030445050496 -5.251636426023569 1 0 0
90 1 6.171978058160043 9.299313343642424 -0.9265676065333643 0 -1 1
36 1 1.9133463519046003 7.719511929183511 -1.7420567765226709 2 -1 0
56 1 7.255050752153057 10.433125182056429 -6.693622072998551 -1 0 1
109 1 9.138840387988623 11.32849279657362 -0.9075432219499753 -1 1 1
98 1 8.493633429672352 7.664253543281429 -2.9150549381854445 -1 0 0
115 1 -7.310435599643078 -8.126317136056372 2.852881189844054 1 0 0
124 1 -11.031652111608674 -8.829616358814924 4.11892916031843 1 0 -2
121 1 -8.24719811507558 -10.102559907485395 6.644774570363861 0 1 -1
80 1 -4.990158022745006 -7.228416620009519 -0.23616829431627906 0 0 1
101 1 -4.425835217027135 -8.041862792922046 4.912842377205241 1 3 1
4 1 1.6093443070111064 10.036215537003722 4.649624528139505 -1 -1 -1
6 1 8.957102959942503 -10.648514255179037 2.7520244907338807 1 1 0
81 1 7.208459443972924 -8.512507364143946 6.7186127098675 -1 1 1
166 1 -8.735612761804596 -5.051940162290023 4.287135452158321 0 2 0
40 1 -7.0154409632766175 -4.6058645552640805 1.2332349553758588 1 1 0
127 1 -5.628166701486109 -2.4571683554307384 3.9074191001707503 0 -1 0
104 1 -0.4346324933964958 -0.6513905925349095 -0.2958543835790408 -1 0 -1
151 1 0.3877075536664327 -6.4007225085014845 0.24945488280004469 0 1 2
60 1 -2.369840965541917 -2.0961144039265633 5.2852382593681435 0 1 0
168 1 3.911007973828095 -3.389123300929967 0.7576129789066393 -1 1 -1
51 1 0.3292384996563097 -3.420112775820937 2.935489834742583 0 0 -1
97 1 2.1485649172664862 -0.10439592636417316 2.279403065792625 0 -1 -1
103 1 4.042877904485135 -1.0208892892284567 6.118986931410435 -1 2 0
163 1 -10.685207062128164 -2.805182722090798 2.2992408280776737 0 -1 0
175 1 5.777080728790477 -3.428422767297768 3.9500489905592655 -1 1 0
158 1 8.901770795533949 -6.449835056793116 2.8925949474189174 -1 0 -1
85 1 10.225188926473791 0.0017773278841735195 5.209115671649155 1 0 1
63 1 -8.213348572388885 -0.1729333455438991 1.128439638194422 -1 0 1
133 1 -10.560391258433501 2.3871994933981604 3.6217764405881163 1 1 0
67 1 -6.58893267726452 3.5537178434565275 3.2475644463629347 1 0 0
83 1 -3.8515887631140515 0.6260605243857498 2.809794279660778 0 -2 1
162 1 0.5353669870800427 0.011171969691910696 6.140615526988775 0 0 0
170 1 -2.6982076482868784 4.239239002024167 6.5023488926564 -1 1 -2
181 1 -5.269736706670749 0.6633143508889567 5.80856876438175 -1 1 -1
71 1 1.6280398876142836 3.9922472717626896 -0.5550063690378906 0 -1 -1
31 1 1.1405250667226041 4.200703300864838 6.2167435118694465 0 -2 0
139 1 3.842562548009269 3.6547622321511497 3.2913955399115533 -1 2 0
3 1 10.98202973743475 1.2548431833407037 0.9250033618641567 0 -1 1
108 1 6.094576089388102 0.9247979169923504 3.624011344184912 1 1 0
16 1 8.94421023892344 3.592040529277952 3.968834804835023 0 -2 1
110 1 -11.386726712959288 6.012786074810452 3.1335330551037686 0 0 -2
50 1 -7.019873322974002 11.162655244151733 4.132863440221239 0 0 0
191 1 -8.58859990391919 7.042920679843704 5.549588183323656 1 -1 0
187 1 -10.694945657883851 11.280545373237025 5.089277301544773 1 1 0
180 1 -0.9832322177090624 6.17374336331137 -1.7810168677844587 1 -1 2
30 1 -0.5786545001726999 8.92644611919124 1.2001444343316763 1 -2 -1
2 1 -1.7987623083026563 5.385135175592104 2.641095387043805 1 -2 -1
17 1 -1.9803131781320147 8.340104277288379 5.2339610584552005 -2 0 -1
7 1 4.056078571838132 8.755054555667046 1.7129552906297647 -1 0 1
164 1 1.8606879960472185 6.264401812470137 2.238048307949188 -1 0 0
69 1 4.582260343749063 6.901308432226479 5.16724455389889 0 -2 -1
61 1 10.203999344055715 5.098875037493535 -0.6552273031803888 -1 -2 0
34 1 7.6452062423181015 9.296589241677342 2.4017008610787727 0 0 -1
43 1 7.186240451053859 6.044802069738282 2.458597580290494 -1 -2 1
177 1 8.52522272174418 7.310838340899178 5.550705478002598 -1 1 -1
179 1 11.738401405730409 -11.171052154041227 -10.46073671167246 -1 3 2
65 1 -9.923794257190753 -8.360277300667597 11.397343948439744 0 -1 -1
27 1 -10.96202039046517 -11.679459496759502 8.461761452894827 1 1 1
58 1 -9.782820449181592 -6.900116722543098 8.161461366886957 -1 0 -1
32 1 -6.176757614808324 -5.427580338396943 6.37353314773015 2 1 -2
26 1 -5.244950495195521 -8.48903289150118 9.276610316099598 1 0 0
142 1 -2.2192381371286913 -6.710860567512032 8.5692633945157 2 1 0
100 1 -1.5829434980745454 -10.919909502588283 6.783259906533759 1 2 0
184 1 7.415704119987677 -7.40752254135457 -11.394836902247562 0 1 2
105 1 1.324436294552863 -7.868824845245506 3.928981783067961 0 0 -1
75 1 4.559950916659301 -6.316720857110099 5.422215632967026 0 -1 0
99 1 1.6556187341181972 -11.042676696296036 10.823511254079808 0 0 0
193 1 2.1147403084852634 -6.885083505075134 9.409447220216105 1 1 -1
33 1 4.45464187128425 -11.736247949088288 7.271061852952995 0 -1 0
79 1 8.565919655629239 11.638486198403275 5.960760377855752 -1 0 0
92 1 9.769060714231218 -9.492631803351557 11.102372610406375 0 2 -1
165 1 -9.212711733999253 -3.259454828813142 7.377981593005203 0 0 0
199 1 -6.873376106851867 -4.9933518932685566 9.87422952115871 0 -1 1
70 1 -5.445601633222862 -2.349920544152827 7.807205278865663 0 1 1
146 1 -1.4368974006040247 -0.5526263308116413 11.329045170425331 2 1 1
106 1 -1.320489681644758 -2.525949605897458 8.649126125808394 0 0 -1
52 1 0.6432865601156172 -3.653577986848175 11.390625659771409 0 0 0
86 1 5.463936380191402 -4.545155299286932 8.600558169678536 -1 0 1
197 1 1.6297777023246702 -4.6288437196490895 7.127308915254101 -1 0 -1
185 1 2.117376701545396 -0.6740584604995838 9.981858778655166 -2 1 -2
190 1 7.391326441541653 -0.2420688149799064 9.912167028101104 0 0 -1
145 1 7.1433612487852685 -3.600502105720082 -11.787138473864353 -1 -2 0
131 1 11.237287581981867 -5.265986055819216 6.2884198947288406 1 0 0
156 1 -5.499196268975016 -0.3842368684419455 11.47923685297254 0 -1 -1
10 1 -9.091750969544233 -0.8101391784724588 4.798103517685853 0 0 2
196 1 -9.331229431870144 0.22379652065858124 8.694495890506026 1 2 1
143 1 -7.138465404537655 3.0174764853722347 8.68001066247089 1 0 0
13 1 -11.76499693524697 3.321385859999623 6.936314787144568 -1 -1 1
59 1 -3.4402166179497833 1.730296081472357 9.358944812035546 1 -1 1
186 1 0.1617283142132493 2.5970365582430226 9.662083422391825 1 1 0
136 1 3.4199513038280873 2.163828872826315 7.95543255977617 0 -1 -3
62 1 3.963989117283031 6.890950850270743 8.983560199060738 1 0 0
192 1 10.513433172209162 2.5350934882928264 9.78265608934408 1 1 1
113 1 7.161285582100181 2.2124289355489886 6.79272048842973 -1 -1 -1
74 1 -8.169335431227 9.77557136132564 9.00057456275031 1 -1 0
118 1 -11.608821137521177 8.521503367814617 7.013321378357836 0 1 0
117 1 -5.327579617349453 11.314505774662308 7.558097527322893 -1 -1 0
23 1 -5.129126916477775 5.721102420605024 11.278247239081892 0 0 -2
171 1 -4.352281149020513 7.112600115001591 7.871167109278595 0 2 -2
94 1 0.5998107735037941 9.708724091432982 9.014903980367055 -1 0 0
41 1 5.4449659738536695 11.522021070488632 11.662868284303414 0 0 -1
141 1 9.872190892571076 5.7761026505659245 8.948318084922565 1 -1 -1
159 1 9.641274357072867 9.726441601090215 9.76145240542319 0 -1 0

Velocities

39 2.577793097354695 -3.3983788380629387 0.9311775479132861
57 0.044350439903272976 -2.756321060337954 -1.0428315092461067
82 -2.504296787676701 -3.6468474399030493 0.2541672097953289
8 3.6367927137204146 -0.708503612114486 -3.734398328076926
49 1.8873851156019454 -1.4752561333771483 0.44317628658177016
54 2.0609459874818237 -3.7591063995516816 6.295629243534251
114 5.3525465279303015 -3.959388563871946 6.9201302420483755
128 1.2908060914043953 -2.111376197467554 -0.48873831716967264
102 -4.571293842871747 8.300052861760934 -2.8260260042769847
157 0.6864784580965262 2.3741938996988416 3.197851910441299
20 4.652994650182517 -2.368616661754701 -3.6239824640674376
147 2.3112278761829046 2.7926157746726785 0.3841905616879638
169 3.8809056176148298 -3.783797831749185 1.5132762830383186
123 1.2907138384495385 4.5605260997379515 6.265572889261794
130 2.3899251274818005 0.27666961403153456 4.415473432866114
140 1.0077403345435272 3.331618501750946 3.823686801783437
153 -4.158360194263056 -0.05792314282326738 -0.09170129980331274
129 -2.0924141264102167 -2.229463311149641 5.774701380963026
148 4.419535691773222 -2.221801500903651 -1.322900377568077
119 3.3013302732178436 1.0440417527080033 2.8019660816699443
174 1.8865107534171663 4.984254074383621 -4.4680569390231515
134 -3.051462360151183 0.13872483873263985 0.8334720216492622
189 -1.575075881871396 1.8217362685289014 -2.0444979947436
28 3.421168174684726 -5.498073809092277 -0.04014458535812704
1 1.9883484696931384 -5.62737172391044 -0.6897496957906657
24 -1.2667871307922316 4.30277534955836 -0.9434339008200991
176 5.33889839399068 -0.7261935889242956 -1.0648636501642632
182 -1.3434249574772492 -1.2612974855392476 -0.8264254407007674
137 1.9669241314073078 1.4304166951432975 -0.7941330665668798
89 3.0037245881229415 0.2485958612228784 0.43340084246330035
88 -4.773290068397481 -4.145612735120506 2.9587651882723076
160 3.2238819912540246 1.454427974780249 -0.8931785023147302
125 -2.027584749577839 0.2846539404784728 -1.9747515011844237
107 -0.4309962618034694 -3.6977689727188716 -1.9008509957370174
167 1.1593622921328293 -1.8699221821464713 -0.35243227029296986
45 3.8023301775972866 1.4226356824680009 0.7412574800338123
95 -6.444883722807761 -0.36547146467399716 -2.3313614045704956
111 2.654717565255864 1.4059595144409067 -0.8812624422906502
37 2.6344865612342447 3.1241557322031097 0.21727945365726709
53 -1.162490586497141 -1.8114743286402544 -3.3819238034771355
122 -0.39245032082132514 6.341371204609977 0.15639083036810653
126 -1.605697227924968 4.594486921923675 2.22444280178021
72 5.553154164868334 -1.6002168773168566 2.986954509825138
144 1.3403843285320132 -1.7279031413546053 1.3999311572505995
135 2.534876793407053 -3.9801581090182863 3.1492981080983657
183 -4.679242103632781 2.993032322724656 -1.3277928954591556
155 2.478325342602548 0.096505570078343 0.23454435113676975
21 -3.5229231861916004 -3.9816529561376006 0.026639755919907415
66 -4.078355783351698 -0.12178976416838905 3.6922808103625115
22 -3.6395126219587364 -6.832262596301959 1.5951115669463118
42 -4.403508549300507 -1.075423056570003 -0.591849033607009
77 -3.529890611915624 -4.75010415058562 1.6925557776838493
47 -2.1850961781212535 0.29268584139732723 -6.145825548126078
46 4.627258609793938 -0.35735610275796525 -4.228603145133978
18 3.73167019444449 -0.1412650186120299 1.8269713694609548
14 4.255528637119755 -1.6399584278487664 -2.3670010206718466
178 -5.547816263652345 -3.2716811779531016 0.3760629173372536
48 4.425750039051989 -1.6380895084775802 3.0834785539819825
55 0.9664608309050373 -3.9279561872107216 3.738153737041613
12 -0.41819517254673283 0.9367025298427245 1.548662259471958
15 -1.5561256264944465 -1.7138464717908113 -5.214325558070718
64 -4.340047339400262 -2.22675786620723 -1.8953705605237372
44 1.1388904606478099 1.1952052434483869 -4.7138321817777165
188 -0.6813174034115439 -5.349606335139992 -0.5494798369887832
200 4.5313662932423755 -1.509632335926491 -0.7143667001741889
198 -0.147474124917653 -4.398760900940008 -1.3829542092135303
76 3.499335281047853 4.321577651994544 1.8422196851357424
194 0.40702093571028386 2.536045454224767 -0.25948941675872716
68 1.095513798887539 6.302453994563069 -0.032465133466722085
96 -0.8025115532160563 4.133456324521671 -0.3987555142125939
91 -1.0924701330602116 -4.134760716625712 -2.5476966892452007
154 -0.6420195815805342 0.5441210237991451 -2.4764714848254394
19 -6.45757006657402 -1.8917738383254377 -2.2385612755611657
120 -2.333329676155747 -2.6263663088962446 -0.31608193981125454
138 -4.2274347886527295 -5.149547905719161 0.18051226809116783
9 1.9482438581325014 1.836033317169747 4.767132863545005
150 1.9981648567087547 6.350098740087899 -2.8565846607881165
38 0.7805411976234249 3.2336875919271204 -5.491325260091564
172 -1.6067207370017498 -4.025457011374177 3.328473783113818
152 1.2783569248468387 1.1836235305806408 -2.8398807957375904
29 0.012522208655832867 -2.202968899510487 1.2653923818179775
87 2.4301555960867915 -0.3844922649780862 2.3653616101850643
93 -0.8167645337546143 7.0869554155527865 -0.992159930343214
195 1.386850643478473 -2.1138124263507945 -2.6343099572277926
149 -1.9222490388239173 -2.9269314999007365 1.9288615526733388
25 -3.59971099165819 -1.6866464810245103 1.7143969426226588
35 1.1068675504822845 2.9570865620910163 1.5489285873628789
5 -0.06525583154753622 4.64663174535613 0.0051166703840210825
116 -2.156521693342489 -1.106530196750272 -0.7392284182460408
112 0.8256766355184204 -3.3427544054629896 2.364051175484082
132 2.1070952059277808 -0.7636208241660348 -2.901239577070981
173 0.9555468923097092 0.9205686685241707 -3.199573856104545
73 1.5067078955449293 -1.4433124895723743 -1.0680684282081363
161 2.1775187990003184 -2.0432036406877887 -2.502427749527437
78 0.4277549814794872 0.923985061568942 -4.462582084674592
11 -0.7883572752861073 -3.298996571191427 5.184829507433079
84 -0.3908120720288031 0.8981771084266208 2.781123174827333
90 0.1806374932457661 1.6703751943299625 2.7208543462130645
36 -1.267739998375956 2.1167954160312523 -2.3987528368253503
56 0.42755132352919767 0.3105230600944311 -0.03753157138922093
109 1.9130458422765049 -2.4592218292820647 -3.7955776970359176
98 2.224412680285525 2.8105570053709483 -6.007751163289515
115 -2.8264888701698423 -6.77384783439804 -4.5128631453140455
124 1.0115631212847158 2.197697811017366 -1.4884565302411554
121 1.819952585372025 2.133685315101777 -0.48009196690211353
80 3.6825834395072827 2.9369744584874624 0.7772431106319383
101 3.8152106585296663 -0.7504695117106335 -1.3678083578602058
4 1.1543968705285124 3.6108919626584783 1.279726012491966
6 -2.734554328800396 0.45690265044985007 1.7653493310436426
81 2.173385375162031 -1.545557384488483 -2.635973810143899
166 -1.239464711076861 1.3504238003340796 -0.49024226288977
40 1.7898346069542372 -0.4474778752941201 3.4790111502788887
127 1.6296109635966738 0.6612604860538578 5.807821273928263
104 -4.901664479006097 1.1052244598202794 3.4465808005881824
151 -3.983151444075344 -3.2501191110732113 -1.2526584841338049
60 -1.922006700361108 -0.7785585059363819 -4.390434339117124
168 -2.788478664171041 3.923738577427861 2.49523972250301
51 -1.6149322848467969 -3.4296394320723262 4.226459281197094
97 -1.226730421851149 -2.392775221203476 5.070036120535187
103 -2.9962982871055357 -2.90339448475708 -1.1348192929647936
163 0.3128021577268095 -4.112121184421586 2.47129388197539
175 -4.72131850682648 -1.6008946774115904 -3.6054426092000593
158 -5.274680729271083 -0.4457302148856164 4.174272671309751
85 2.9757034033315444 -0.5103121033627565 1.99919210117291
63 1.600933165736236 1.4604641421860185 5.197681341346513
133 0.3650834395918216 4.123541846312257 2.1615515366543354
67 2.0607792864448453 2.3124375339420076 0.21959246817514527
83 -6.156022387564482 -1.1548915743184078 -0.4948872456362283
162 -2.1450070724040025 3.9286059442169066 2.007885747151935
170 1.8166139807691821 -1.95234066921456 -1.8559861240898843
181 -1.587457433365127 -3.2094890956838205 2.212401241994942
71 1.7829689662908779 -3.6713609566551657 1.3773962271622693
31 3.918178411733008 -0.5772484115851036 0.16726508680219976
139 -4.560722486125075 -0.5471630166750243 5.863010868871481
3 -3.9686726349917825 3.6173076990026054 2.5273959166862507
108 0.3042801304200664 4.847444330423647 -0.35518169829313484
16 -2.4685650045584717 5.98056595230015 0.9384145704518219
110 -0.6129548866614436 1.8199747299312752 -0.6050782543434758
50 -1.8884152067915962 -1.4877561250799833 -3.9811275374353494
191 1.500896458072849 -1.9099553342822155 -5.024921011162899
187 -2.013243274912701 -0.8604266013822317 -1.038480536601888
180 1.4966822969502809 2.2104050426784707 3.732721924128324
30 -2.3551911487538373 -1.0313809690434763 -1.4871503115129143
2 2.4972367326603697 -1.5125466361921762 1.0762650051734106
17 0.43112912988867413 -1.9548201848493156 -0.43017998184207773
7 6.622180146484479 4.7673609572662725 0.19425898871224434
164 2.301415823751322 0.4827221772498991 4.559127095693677
69 -3.4364505629674733 -1.1594038113628669 -1.2078137888752072
61 1.7869953777023173 0.9935547623401149 0.14745693195171444
34 -0.027807484985171937 -3.1354780466577754 -1.036977576868685
43 -1.3037743820903311 -5.61028065095172 -4.306710886889687
177 2.1781720801097206 -1.516912077043328 -2.054689845757315
179 0.4934049365569875 -4.8639422788504625 -6.225153590664796
65 2.6970228261721383 0.19294320506195817 6.683323231860031
27 -1.6731814501881797 0.7519385590564082 3.2183027406212203
58 -0.7774753429967389 -0.6669437971456971 3.5183225900940927
32 -5.389835933890947 -0.4954507654154201 0.4594525916972694
26 0.7382474998065096 -3.102724138188651 -2.185686698723454
142 -1.944479379421283 -1.2761486898263725 0.72348529709274
100 -2.739025692998968 -2.6245009262596986 3.182008026346906
184 1.4210317521782347 3.1395926369797884 5.319543188841913
105 -1.2308708716614136 -1.2494207925918743 -3.3415190888725443
75 -1.8835854547991517 -1.3807763884880995 3.052239941977269
99 2.3501462152911015 -0.09098282020287418 -2.963130739502538
193 3.2483282921859455 -6.045063326765766 -1.2297831607518321
33 -1.5552221515820004 2.623852853566988 -0.3953508079233695
79 2.0518370606822334 1.899510113710928 2.0859744201323727
92 1.5026700715390955 0.9352029472761221 -5.528904283783295
165 -2.240438523644089 -0.6103912799862421 0.40653914875448993
199 -1.2653571662196268 3.710626862073433 1.4730516528440072
70 1.655492430853343 0.17760859693009826 -1.650919734678463
146 -1.4225048482747793 2.74232833480091 -3.413198079564811
106 -1.093901348299414 0.20953760114868714 -0.7298112830112282
52 6.647000075136453 -0.30141024565553315 1.2035752428962934
86 0.6741589587443484 4.365068713763016 3.5677961016049315
197 -0.666824417721529 0.7257967702216201 6.272517109849018
185 -1.1845876194928404 2.1001111189632264 2.457366035714506
190 -1.6517508143986053 2.271851696760304 3.7976228734124575
145 -0.6660913411508007 -2.1887913545610314 1.427073342591097
131 3.4923356345857024 1.8910870819349503 0.22757964871813297
156 1.3901143776938099 -0.5912367128957199 -1.945898273856384
10 -3.3254266550003906 2.363446512042732 -2.8505669909097167
196 1.9772342503358795 2.9791453967072834 5.0702556945320305
143 1.3619198656944898 -4.070780999483669 0.554762511858757
13 -3.6607073229889986 -6.103961980753075 3.3895476442791126
59 1.3424546798513801 -0.012418821554116527 -1.0607350515292961
186 -0.19147109350375446 -0.14042042908600805 -5.06183250631794
136 10.318783006250738 -0.33198398090799297 -3.1695432610471372
62 -0.9320061937291512 -8.919718141167188 -1.0031472261072583
192 -6.036717500669019 -0.4626110813075395 -5.283002697165421
113 -1.9312339562598033 1.2868323831429733 -0.27836767602350954
74 0.289298974376203 4.639184114550362 -1.3074893268836063
118 2.3186362762712704 0.014757210175651903 -1.9096714905556824
117 2.917320124569121 -0.927139463682407 -2.038093079844118
23 3.445296199640721 -2.484450168397722 6.150025302403371
171 -1.3488599922862394 -0.40015537573335275 5.541824987776105
94 2.7016234671889183 -4.500360725821148 -0.3771036206116729
41 0.040051409073174504 1.3144504850460685 -2.628956804481983
141 0.8101589418958534 -0.40901282998394567 2.3777914588666906
159 -2.168905163137191 -3.9077440516609387 3.1238186982134213
