LAMMPS (7 Jul 2009)
# Pour 2d granular particles into container

dimension	2
atom_style	granular
boundary	f fm p
newton		off

region		reg block 0 100 0 50 -0.5 0.5 units box
create_box	1 reg
Created orthogonal box = (0 0 -0.5) to (100 50 0.5)
  2 by 2 by 1 processor grid

neighbor	0.2 bin
neigh_modify	delay 0

# IMPORTANT NOTE: these values of stiffness (4000) and timestep (0.001)
# are used in this example file to produce a quick simulation and movie.
# More appropriate values for realistic simulations would be
# k = 4.0e5 and dt = 0.0001, as in bench/in.chute (if it were Hertzian).

pair_style      gran/hertz/history 4000.0 NULL 100.0 NULL 0.5 0
pair_coeff	* *

timestep	0.001

fix             1 all nve/sphere
fix		2 all gravity 1.0 spherical 0.0 -180.0
fix		xwalls all wall/gran 4000.0 NULL 100.0 NULL 0 1 		xplane 0 100
fix		ywalls all wall/gran 4000.0 NULL 100.0 NULL 0 1 		yplane 0 NULL
 
region          slab block 1.0 99.0 30 34.5 -0.5 0.5 units box
fix             ins all pour 1000 1 4767548 vol 0.4 10 	        diam 0.5 1.0 region slab
Particle insertion: 224 every 3000 steps, 1000 by step 12001

fix             3 all enforce2d

compute		1 all erotate/sphere
thermo_style	custom step atoms ke c_1 vol
thermo		1000
thermo_modify	lost ignore norm no
compute_modify	thermo_temp dynamic yes

dump		id all atom 250 dump.pour
run		25000
Memory usage per processor = 3.09867 Mbytes
Step Atoms KinEng 1 Volume 
       0        0           -0            0         5000 
    1000      224    185.87695            0         5000 
    2000      224    348.08417            0         5000 
    3000      224     565.2162            0         5000 
    4000      448    1042.9716            0         5000 
    5000      448    1542.0614            0         5000 
    6000      448    1766.5136    41.192729         5000 
    7000      672    1846.4596    67.352592         5000 
    8000      672    1814.3429    92.898167         5000 
    9000      672    1662.3648    111.88799         5000 
   10000      896     1655.125    91.578709         5000 
   11000      896    1546.5099    68.353546         5000 
   12000      896    1488.3206    63.093653         5000 
   13000     1000    1472.7884    63.264895         5000 
   14000     1000    1350.9929    58.866496         5000 
   15000     1000    1126.2091     53.39001         5000 
   16000     1000    775.19591    47.163663         5000 
   17000     1000    462.54742    36.374865         5000 
   18000     1000    322.60937    33.031626         5000 
   19000     1000    160.04046    26.257897         5000 
   20000     1000    40.072577    19.856191         5000 
   21000     1000    22.672764    12.438808         5000 
   22000     1000    19.836445    8.3560791         5000 
   23000     1000    17.306905    5.9793834         5000 
   24000     1000    11.279762    4.4282943         5000 
   25000     1000    7.9522912    3.0106259         5000 
Loop time of 8.44638 on 4 procs for 25000 steps with 1000 atoms

Pair  time (%) = 0.759726 (8.99469)
Neigh time (%) = 0.143218 (1.69562)
Comm  time (%) = 3.36017 (39.7824)
Outpt time (%) = 0.144625 (1.71227)
Other time (%) = 4.03864 (47.815)

Nlocal:    250 ave 506 max 0 min
Histogram: 2 0 0 0 0 0 0 0 0 2
Nghost:    6.5 ave 14 max 0 min
Histogram: 2 0 0 0 0 0 0 0 1 1
Neighs:    596.75 ave 1220 max 0 min
Histogram: 2 0 0 0 0 0 0 0 0 2

Total # of neighbors = 2387
Ave neighs/atom = 2.387
Neighbor list builds = 2012
Dangerous builds = 0
