LAMMPS (1 Feb 2014)
# Pour granular particles into chute container, then induce flow

atom_style	sphere
boundary	p p fm
newton		off
communicate	single vel yes

region		reg block -10 10 -10 10 -0.5 16 units box
create_box	1 reg
Created orthogonal box = (-10 -10 -0.5) to (10 10 16)
  2 by 2 by 1 MPI processor grid

neighbor	0.2 bin
neigh_modify	delay 0

# IMPORTANT NOTE: these values of stiffness (2000) and timestep (0.001)
# are used in this example file to produce a quick simulation and movie.
# More appropriate values for realistic simulations would be
# k = 2.0e5 and dt = 0.0001, as in bench/in.chute.

pair_style      gran/hooke/history 2000.0 NULL 50.0 NULL 0.5 0
pair_coeff	* *

timestep	0.001

fix		1 all nve/sphere
fix		2 all gravity 1.0 spherical 0.0 -180.0
fix		zlower all wall/gran 2000.0 NULL 50.0 NULL 0.5 0 		zplane 0.0 2000.0

region		slab block -9.0 9.0 -9.0 9.0 10.0 15.0 units box
fix		ins all pour 3000 1 300719 vol 0.13 50 region slab
Particle insertion: 402 every 3162 steps, 3000 by step 22135

compute		1 all erotate/sphere
thermo_style	custom step atoms ke c_1 vol
thermo		1000
thermo_modify	lost ignore norm no
compute_modify	thermo_temp dynamic yes

#dump		id all atom 1000 dump.pour

#dump		2 all image 1000 image.*.jpg type type #		axes yes 0.8 0.02 view 80 -30
#dump_modify	2 pad 5

#dump		3 all movie 1000 movie.mpg type type #		axes yes 0.8 0.02 view 80 -30
#dump_modify	3 pad 5

run		25000
Memory usage per processor = 8.15424 Mbytes
Step Atoms KinEng 1 Volume 
       0        0           -0            0         6600 
    1000      402    768.04606            0         6600 
    2000      402    1407.1714            0         6600 
    3000      402     1373.819     15.59952         6600 
    4000      804    1737.1399    39.311164         6600 
    5000      804    1571.3184    67.501382         6600 
    6000      804    1318.6439    77.636174         6600 
    7000     1206    1521.8348    69.010381         6600 
    8000     1206    1391.0761    64.407585         6600 
    9000     1206    1264.9766    50.327155         6600 
   10000     1608    1463.0633     49.89601         6600 
   11000     1608    1316.7149    52.402835         6600 
   12000     1608     1114.153    46.872522         6600 
   13000     2010    1205.8869    51.481237         6600 
   14000     2010    1185.8628    42.191907         6600 
   15000     2010    972.77031    43.899414         6600 
   16000     2412    1104.0835    40.181571         6600 
   17000     2412    1071.8592    41.109972         6600 
   18000     2412    855.89199    38.898224         6600 
   19000     2814    974.59266    41.798845         6600 
   20000     2814    949.73588    41.312762         6600 
   21000     2814    785.75949    39.506434         6600 
   22000     2814    568.33487    35.152281         6600 
   23000     3000    469.29459    37.172088         6600 
   24000     3000    335.08614    25.096975         6600 
   25000     3000    235.38783    16.956807         6600 
Loop time of 2.9825 on 4 procs for 25000 steps with 3000 atoms

Pair  time (%) = 1.36805 (45.8694)
Neigh time (%) = 0.27838 (9.33378)
Comm  time (%) = 0.419477 (14.0646)
Outpt time (%) = 0.000649214 (0.0217675)
Other time (%) = 0.915936 (30.7104)

Nlocal:    750 ave 767 max 740 min
Histogram: 1 1 0 1 0 0 0 0 0 1
Nghost:    389 ave 399 max 379 min
Histogram: 1 0 0 0 0 2 0 0 0 1
Neighs:    3555.75 ave 3653 max 3498 min
Histogram: 2 0 0 0 1 0 0 0 0 1

Total # of neighbors = 14223
Ave neighs/atom = 4.741
Neighbor list builds = 1151
Dangerous builds = 0

unfix		ins
fix		2 all gravity 1.0 chute 26.0
run		25000
Memory usage per processor = 8.928 Mbytes
Step Atoms KinEng 1 Volume 
   25000     3000    235.38783    16.956807         6600 
   26000     3000    86.095398    21.734167         6600 
   27000     3000    105.34548    13.070765         6600 
   28000     3000    194.48452    12.668302         6600 
   29000     3000    338.66556     14.53448         6600 
   30000     3000    561.95176     20.01635         6600 
   31000     3000    863.55789    28.935939         6600 
   32000     3000    1245.8566    31.126919         6600 
   33000     3000    1747.0561    43.002491         6600 
   34000     3000    2297.4715    52.916382         6600 
   35000     3000    2979.0692    60.599758         6600 
   36000     3000    3668.5934    70.783571         6600 
   37000     3000    4550.9061    84.848649         6600 
   38000     3000    5458.0534    96.028867         6600 
   39000     3000    6461.8152    108.41301         6600 
   40000     3000    7504.9659    119.17697         6600 
   41000     3000    8622.1932    129.66834         6600 
   42000     3000    9729.2779    150.83916         6600 
   43000     3000    11006.529    161.20608         6600 
   44000     3000    12332.682    172.45763         6600 
   45000     3000    13532.399    168.86419         6600 
   46000     3000    14872.632    194.18978         6600 
   47000     3000    16262.818    209.10627         6600 
   48000     3000    17620.467    204.85493         6600 
   49000     3000    19038.858    242.63587         6600 
   50000     3000    20554.586    248.70106         6600 
Loop time of 5.60379 on 4 procs for 25000 steps with 3000 atoms

Pair  time (%) = 3.03686 (54.193)
Neigh time (%) = 0.445322 (7.94679)
Comm  time (%) = 0.673944 (12.0266)
Outpt time (%) = 0.000772476 (0.0137849)
Other time (%) = 1.44689 (25.8198)

Nlocal:    750 ave 766 max 736 min
Histogram: 1 0 0 1 0 1 0 0 0 1
Nghost:    402.75 ave 414 max 392 min
Histogram: 1 0 0 0 1 1 0 0 0 1
Neighs:    3675.25 ave 3716 max 3594 min
Histogram: 1 0 0 0 0 0 0 0 2 1

Total # of neighbors = 14701
Ave neighs/atom = 4.90033
Neighbor list builds = 859
Dangerous builds = 0
