LAMMPS (10 Jan 2012)
# Pour granular particles into chute container, then induce flow

atom_style	sphere
boundary	p p fm
newton		off
communicate	single vel yes

region		reg block -10 10 -10 10 -0.5 16 units box
create_box	1 reg
Created orthogonal box = (-10 -10 -0.5) to (10 10 16)
  2 by 2 by 1 MPI processor grid

neighbor	0.2 bin
neigh_modify	delay 0

# IMPORTANT NOTE: these values of stiffness (2000) and timestep (0.001)
# are used in this example file to produce a quick simulation and movie.
# More appropriate values for realistic simulations would be
# k = 2.0e5 and dt = 0.0001, as in bench/in.chute.

pair_style      gran/hooke/history 2000.0 NULL 50.0 NULL 0.5 0
pair_coeff	* *

timestep	0.001

fix		1 all nve/sphere
fix		2 all gravity 1.0 spherical 0.0 -180.0
fix		zlower all wall/gran 2000.0 NULL 50.0 NULL 0.5 0 		zplane 0.0 2000.0 

region		slab block -9.0 9.0 -9.0 9.0 10.0 15.0 units box
fix		ins all pour 3000 1 300719 vol 0.13 50 region slab
Particle insertion: 402 every 3162 steps, 3000 by step 22135

compute		1 all erotate/sphere
thermo_style	custom step atoms ke c_1 vol
thermo		1000
thermo_modify	lost ignore norm no
compute_modify	thermo_temp dynamic yes

dump		id all atom 1000 dump.pour
run		25000
Memory usage per processor = 9.33681 Mbytes
Step Atoms KinEng 1 Volume 
       0        0           -0            0         6600 
    1000      402    779.98578            0         6600 
    2000      402    1424.4252            0         6600 
    3000      402    1425.0863      12.9927         6600 
    4000      804    1724.8627     47.36161         6600 
    5000      804    1599.9516    63.808734         6600 
    6000      804    1359.1774    63.495338         6600 
    7000     1206    1532.7896    68.602762         6600 
    8000     1206    1403.0157    62.695773         6600 
    9000     1206    1247.1628     52.19506         6600 
   10000     1608    1387.5362    50.008374         6600 
   11000     1608    1228.9965    56.530496         6600 
   12000     1608    1182.7545     41.38682         6600 
   13000     2010    1319.2313    50.362256         6600 
   14000     2010    1190.8341    41.724733         6600 
   15000     2010    988.00931    42.639716         6600 
   16000     2412    1031.9305    42.375533         6600 
   17000     2412    1023.2524    38.401997         6600 
   18000     2412    888.81798    40.234895         6600 
   19000     2814    1013.2166    37.977584         6600 
   20000     2814     961.0454    42.964962         6600 
   21000     2814    756.00399    43.054932         6600 
   22000     2814    503.12293    39.636291         6600 
   23000     3000    412.84921    37.815016         6600 
   24000     3000    353.49951    20.864487         6600 
   25000     3000    222.50381     24.26074         6600 
Loop time of 2.95472 on 4 procs for 25000 steps with 3000 atoms

Pair  time (%) = 1.40256 (47.4686)
Neigh time (%) = 0.270042 (9.13935)
Comm  time (%) = 0.360771 (12.21)
Outpt time (%) = 0.0365846 (1.23818)
Other time (%) = 0.88476 (29.9439)

Nlocal:    750 ave 767 max 734 min
Histogram: 1 0 0 0 2 0 0 0 0 1
Nghost:    380.5 ave 388 max 372 min
Histogram: 1 0 0 0 0 1 1 0 0 1
Neighs:    3552 ave 3598 max 3519 min
Histogram: 1 0 1 0 1 0 0 0 0 1

Total # of neighbors = 14208
Ave neighs/atom = 4.736
Neighbor list builds = 1152
Dangerous builds = 0

unfix		ins
fix		2 all gravity 1.0 chute 26.0
run		25000
Memory usage per processor = 10.1161 Mbytes
Step Atoms KinEng 1 Volume 
   25000     3000    222.50381     24.26074         6600 
   26000     3000    103.84389    17.673297         6600 
   27000     3000    117.46883    12.700769         6600 
   28000     3000     202.8228    11.854593         6600 
   29000     3000    338.12554    14.379583         6600 
   30000     3000    530.86986    19.321511         6600 
   31000     3000    824.66397    26.939631         6600 
   32000     3000    1155.8653    30.710187         6600 
   33000     3000    1546.6549    39.339113         6600 
   34000     3000    1977.8218    45.981666         6600 
   35000     3000    2493.4385    56.240346         6600 
   36000     3000    3128.6938    61.747587         6600 
   37000     3000    3751.9442    68.433001         6600 
   38000     3000    4449.2141    80.107271         6600 
   39000     3000    5236.7855    88.674736         6600 
   40000     3000    6065.0048    98.949373         6600 
   41000     3000     6988.557    108.17154         6600 
   42000     3000    7978.2872    122.87119         6600 
   43000     3000    9163.9553    140.17673         6600 
   44000     3000    10400.417    145.57715         6600 
   45000     3000    11691.456    177.59735         6600 
   46000     3000    13208.301    188.38293         6600 
   47000     3000    14621.935    175.09272         6600 
   48000     3000    15911.432    200.24219         6600 
   49000     3000    17240.493    211.19416         6600 
   50000     3000    18716.039    229.23732         6600 
Loop time of 5.63779 on 4 procs for 25000 steps with 3000 atoms

Pair  time (%) = 3.14085 (55.7107)
Neigh time (%) = 0.425642 (7.5498)
Comm  time (%) = 0.570795 (10.1244)
Outpt time (%) = 0.0593259 (1.05229)
Other time (%) = 1.44118 (25.5628)

Nlocal:    750 ave 767 max 738 min
Histogram: 1 0 1 0 1 0 0 0 0 1
Nghost:    403.75 ave 414 max 396 min
Histogram: 1 1 0 0 0 0 1 0 0 1
Neighs:    3687.25 ave 3795 max 3643 min
Histogram: 2 1 0 0 0 0 0 0 0 1

Total # of neighbors = 14749
Ave neighs/atom = 4.91633
Neighbor list builds = 832
Dangerous builds = 0
