created by fftool

2800 atoms
2600 bonds
2800 angles
3000 dihedrals
6 atom types
6 bond types
5 angle types
5 dihedral types
0.000000 35.000000 xlo xhi
0.000000 35.000000 ylo yhi
0.000000 35.000000 zlo zhi

Masses

   1   11.611  # CTO DC
   2   15.599  # OHG DC
   3    1.008  # H1O
   4    1.008  # HOG
   5    0.400  # CTO DP
   6    0.400  # OHG DP

Bond Coeffs

   1   267.925430     1.529000  # CT-CT
   2   320.004780     1.410000  # CT-OH
   3   339.985660     1.090000  # HC-CT
   4   552.999522     0.945000  # HO-OH
   5   500.000000     0.000000  # CTO DC-DP
   6   500.000000     0.000000  # OHG DC-DP

Angle Coeffs

   1    50.000000   109.500000  # CT-CT-OH
   2    37.500000   110.700000  # CT-CT-HC
   3    35.002390   109.500000  # HC-CT-OH
   4    32.994742   107.800000  # HC-CT-HC
   5    54.995220   108.500000  # CT-OH-HO

Dihedral Coeffs

   1     0.000000     0.000000     0.467997     0.000000  # HC-CT-CT-OH
   2     0.000000     0.000000     0.300000     0.000000  # HC-CT-CT-HC
   3     0.000000    -2.350000     0.288002     0.000000  # OH-CT-CT-OH
   4    -0.355999    -0.173996     0.491993     0.000000  # CT-CT-OH-HO
   5     0.000000     0.000000     0.450000     0.000000  # HC-CT-OH-HO

Atoms

      1       1    1   2.3822  2.755526e+01  2.277846e+01  2.645136e+01  # CTO EG DC
      2       1    1   2.3822  2.795486e+01  2.321761e+01  2.785060e+01  # CTO EG DC
      3       1    2   1.5019  2.876293e+01  2.250107e+01  2.566048e+01  # OHG EG DC
      4       1    3   0.0400  2.698128e+01  2.357103e+01  2.597128e+01  # H1O EG
      5       1    3   0.0400  2.694679e+01  2.187621e+01  2.651305e+01  # H1O EG
      6       1    3   0.0400  2.852884e+01  2.242504e+01  2.833068e+01  # H1O EG
      7       1    2   1.5019  2.674719e+01  2.349500e+01  2.864148e+01  # OHG EG DC
      8       1    3   0.0400  2.856333e+01  2.411986e+01  2.778891e+01  # H1O EG
      9       1    4   0.3750  2.850004e+01  2.221216e+01  2.473993e+01  # HOG EG
     10       1    4   0.3750  2.701008e+01  2.378391e+01  2.956203e+01  # HOG EG
     11       2    1   2.3822  6.623753e+00  2.915658e+01  3.087794e+01  # CTO EG DC
     12       2    1   2.3822  5.112785e+00  2.899133e+01  3.088630e+01  # CTO EG DC
     13       2    2   1.5019  7.262347e+00  2.783322e+01  3.092038e+01  # OHG EG DC
     14       2    3   0.0400  6.931235e+00  2.973590e+01  3.174855e+01  # H1O EG
     15       2    3   0.0400  6.927818e+00  2.967721e+01  2.996987e+01  # H1O EG
     16       2    3   0.0400  4.805304e+00  2.841202e+01  3.001570e+01  # H1O EG
     17       2    2   1.5019  4.474192e+00  3.031470e+01  3.084386e+01  # OHG EG DC
     18       2    3   0.0400  4.808721e+00  2.847071e+01  3.179437e+01  # H1O EG
     19       2    4   0.3750  8.256404e+00  2.794193e+01  3.091489e+01  # HOG EG
     20       2    4   0.3750  3.480134e+00  3.020599e+01  3.084936e+01  # HOG EG
     21       3    1   2.3822  2.205305e+01  1.038274e+01  1.043135e+01  # CTO EG DC
     22       3    1   2.3822  2.065524e+01  1.092101e+01  1.017293e+01  # CTO EG DC
     23       3    2   1.5019  2.293672e+01  1.148582e+01  1.083538e+01  # OHG EG DC
     24       3    3   0.0400  2.243964e+01  9.922620e+00  9.521990e+00  # H1O EG
     25       3    3   0.0400  2.201502e+01  9.638383e+00  1.122670e+01  # H1O EG
     26       3    3   0.0400  2.026864e+01  1.138113e+01  1.108229e+01  # H1O EG
     27       3    2   1.5019  1.977157e+01  9.817930e+00  9.768896e+00  # OHG EG DC
     28       3    3   0.0400  2.069326e+01  1.166537e+01  9.377574e+00  # H1O EG
     29       3    4   0.3750  2.385633e+01  1.113170e+01  1.100540e+01  # HOG EG
     30       3    4   0.3750  1.885195e+01  1.017206e+01  9.598880e+00  # HOG EG
     31       4    1   2.3822  1.918036e+01  9.082474e+00  3.855158e+00  # CTO EG DC
     32       4    1   2.3822  1.927472e+01  7.590587e+00  3.579892e+00  # CTO EG DC
     33       4    2   1.5019  2.048814e+01  9.582497e+00  4.303036e+00  # OHG EG DC
     34       4    3   0.0400  1.843748e+01  9.262831e+00  4.632142e+00  # H1O EG
     35       4    3   0.0400  1.888576e+01  9.602708e+00  2.943749e+00  # H1O EG
     36       4    3   0.0400  2.001760e+01  7.410230e+00  2.802908e+00  # H1O EG
     37       4    2   1.5019  1.796694e+01  7.090564e+00  3.132015e+00  # OHG EG DC
     38       4    3   0.0400  1.956932e+01  7.070353e+00  4.491301e+00  # H1O EG
     39       4    4   0.3750  2.042606e+01  1.056400e+01  4.484132e+00  # HOG EG
     40       4    4   0.3750  1.802902e+01  6.109060e+00  2.950918e+00  # HOG EG
     41       5    1   2.3822  2.083934e+01  7.627096e+00  3.259022e+01  # CTO EG DC
     42       5    1   2.3822  2.124856e+01  7.065877e+00  3.123820e+01  # CTO EG DC
     43       5    2   1.5019  2.107377e+01  9.078142e+00  3.261051e+01  # OHG EG DC
     44       5    3   0.0400  2.142950e+01  7.153225e+00  3.337460e+01  # H1O EG
     45       5    3   0.0400  1.978148e+01  7.428046e+00  3.276171e+01  # H1O EG
     46       5    3   0.0400  2.065840e+01  7.539748e+00  3.045381e+01  # H1O EG
     47       5    2   1.5019  2.101414e+01  5.614831e+00  3.121790e+01  # OHG EG DC
     48       5    3   0.0400  2.230642e+01  7.264927e+00  3.106670e+01  # H1O EG
     49       5    4   0.3750  2.080454e+01  9.447365e+00  3.350000e+01  # HOG EG
     50       5    4   0.3750  2.128336e+01  5.245608e+00  3.032841e+01  # HOG EG
     51       6    1   2.3822  1.337551e+01  6.713673e+00  1.425211e+01  # CTO EG DC
     52       6    1   2.3822  1.208970e+01  7.364244e+00  1.376852e+01  # CTO EG DC
     53       6    2   1.5019  1.452243e+01  7.550031e+00  1.387006e+01  # OHG EG DC
     54       6    3   0.0400  1.347783e+01  5.728142e+00  1.379785e+01  # H1O EG
     55       6    3   0.0400  1.334610e+01  6.611858e+00  1.533695e+01  # H1O EG
     56       6    3   0.0400  1.198737e+01  8.349775e+00  1.422278e+01  # H1O EG
     57       6    2   1.5019  1.094277e+01  6.527886e+00  1.415057e+01  # OHG EG DC
     58       6    3   0.0400  1.211910e+01  7.466059e+00  1.268368e+01  # H1O EG
     59       6    4   0.3750  1.536836e+01  7.122025e+00  1.418822e+01  # HOG EG
     60       6    4   0.3750  1.009685e+01  6.955893e+00  1.383241e+01  # HOG EG
     61       7    1   2.3822  1.650745e+01  3.161997e+01  3.202825e+01  # CTO EG DC
     62       7    1   2.3822  1.767331e+01  3.225537e+01  3.276812e+01  # CTO EG DC
     63       7    2   1.5019  1.544743e+01  3.127520e+01  3.298659e+01  # OHG EG DC
     64       7    3   0.0400  1.684685e+01  3.071628e+01  3.152203e+01  # H1O EG
     65       7    3   0.0400  1.611681e+01  3.232299e+01  3.129255e+01  # H1O EG
     66       7    3   0.0400  1.733391e+01  3.315906e+01  3.327435e+01  # H1O EG
     67       7    2   1.5019  1.873333e+01  3.260014e+01  3.180979e+01  # OHG EG DC
     68       7    3   0.0400  1.806396e+01  3.155234e+01  3.350382e+01  # H1O EG
     69       7    4   0.3750  1.468041e+01  3.085717e+01  3.249983e+01  # HOG EG
     70       7    4   0.3750  1.950035e+01  3.301817e+01  3.229655e+01  # HOG EG
     71       8    1   2.3822  1.144186e+01  2.330670e+01  2.409933e+01  # CTO EG DC
     72       8    1   2.3822  1.098108e+01  2.208579e+01  2.331994e+01  # CTO EG DC
     73       8    2   1.5019  1.282636e+01  2.310669e+01  2.455107e+01  # OHG EG DC
     74       8    3   0.0400  1.079516e+01  2.345129e+01  2.496476e+01  # H1O EG
     75       8    3   0.0400  1.139288e+01  2.418716e+01  2.345865e+01  # H1O EG
     76       8    3   0.0400  1.162778e+01  2.194119e+01  2.245452e+01  # H1O EG
     77       8    2   1.5019  9.596579e+00  2.228579e+01  2.286820e+01  # OHG EG DC
     78       8    3   0.0400  1.103006e+01  2.120532e+01  2.396063e+01  # H1O EG
     79       8    4   0.3750  1.312951e+01  2.390992e+01  2.506383e+01  # HOG EG
     80       8    4   0.3750  9.293428e+00  2.148256e+01  2.235544e+01  # HOG EG
     81       9    1   2.3822  3.199513e+01  1.662062e+01  2.357706e+01  # CTO EG DC
     82       9    1   2.3822  3.089704e+01  1.566981e+01  2.312921e+01  # CTO EG DC
     83       9    2   1.5019  3.211244e+01  1.657968e+01  2.504180e+01  # OHG EG DC
     84       9    3   0.0400  3.174981e+01  1.763451e+01  2.326092e+01  # H1O EG
     85       9    3   0.0400  3.294204e+01  1.631988e+01  2.312870e+01  # H1O EG
     86       9    3   0.0400  3.114237e+01  1.465592e+01  2.344535e+01  # H1O EG
     87       9    2   1.5019  3.077974e+01  1.571075e+01  2.166447e+01  # OHG EG DC
     88       9    3   0.0400  2.995014e+01  1.597055e+01  2.357757e+01  # H1O EG
     89       9    4   0.3750  3.283487e+01  1.720521e+01  2.533643e+01  # HOG EG
     90       9    4   0.3750  3.005731e+01  1.508522e+01  2.136984e+01  # HOG EG
     91      10    1   2.3822  2.584353e+01  1.420728e+01  3.075051e+01  # CTO EG DC
     92      10    1   2.3822  2.670436e+01  1.296193e+01  3.088648e+01  # CTO EG DC
     93      10    2   1.5019  2.659231e+01  1.537650e+01  3.123335e+01  # OHG EG DC
     94      10    3   0.0400  2.493563e+01  1.408836e+01  3.134184e+01  # H1O EG
     95      10    3   0.0400  2.557803e+01  1.435353e+01  2.970350e+01  # H1O EG
     96      10    3   0.0400  2.761226e+01  1.308085e+01  3.029515e+01  # H1O EG
     97      10    2   1.5019  2.595558e+01  1.179271e+01  3.040364e+01  # OHG EG DC
     98      10    3   0.0400  2.696986e+01  1.281568e+01  3.193349e+01  # H1O EG
     99      10    4   0.3750  2.602597e+01  1.619581e+01  3.114390e+01  # HOG EG
    100      10    4   0.3750  2.652191e+01  1.097340e+01  3.049309e+01  # HOG EG
    101      11    1   2.3822  1.111937e+01  3.137797e+01  1.878528e+01  # CTO EG DC
    102      11    1   2.3822  9.960582e+00  3.050260e+01  1.923399e+01  # CTO EG DC
    103      11    2   1.5019  1.072292e+01  3.214500e+01  1.759557e+01  # OHG EG DC
    104      11    3   0.0400  1.197700e+01  3.075033e+01  1.854313e+01  # H1O EG
    105      11    3   0.0400  1.138786e+01  3.206549e+01  1.958736e+01  # H1O EG
    106      11    3   0.0400  9.102950e+00  3.113024e+01  1.947613e+01  # H1O EG
    107      11    2   1.5019  1.035704e+01  2.973558e+01  2.042369e+01  # OHG EG DC
    108      11    3   0.0400  9.692093e+00  2.981509e+01  1.843191e+01  # H1O EG
    109      11    4   0.3750  1.148527e+01  3.272090e+01  1.730036e+01  # HOG EG
    110      11    4   0.3750  9.594676e+00  2.915968e+01  2.071890e+01  # HOG EG
    111      12    1   2.3822  2.306035e+01  8.786678e+00  1.512727e+01  # CTO EG DC
    112      12    1   2.3822  2.357304e+01  1.013690e+01  1.465351e+01  # CTO EG DC
    113      12    2   1.5019  2.392524e+01  7.721087e+00  1.460060e+01  # OHG EG DC
    114      12    3   0.0400  2.204190e+01  8.637897e+00  1.476848e+01  # H1O EG
    115      12    3   0.0400  2.306931e+01  8.755965e+00  1.621680e+01  # H1O EG
    116      12    3   0.0400  2.459148e+01  1.028569e+01  1.501230e+01  # H1O EG
    117      12    2   1.5019  2.270814e+01  1.120250e+01  1.518018e+01  # OHG EG DC
    118      12    3   0.0400  2.356407e+01  1.016762e+01  1.356398e+01  # H1O EG
    119      12    4   0.3750  2.358795e+01  6.832781e+00  1.491229e+01  # HOG EG
    120      12    4   0.3750  2.304544e+01  1.209080e+01  1.486850e+01  # HOG EG
    121      13    1   2.3822  1.038424e+01  3.015371e+01  2.418088e+01  # CTO EG DC
    122      13    1   2.3822  1.043537e+01  3.157030e+01  2.363220e+01  # CTO EG DC
    123      13    2   1.5019  1.086353e+01  2.921353e+01  2.315754e+01  # OHG EG DC
    124      13    3   0.0400  9.357803e+00  2.990464e+01  2.445015e+01  # H1O EG
    125      13    3   0.0400  1.101855e+01  3.008264e+01  2.506445e+01  # H1O EG
    126      13    3   0.0400  1.146180e+01  3.181937e+01  2.336294e+01  # H1O EG
    127      13    2   1.5019  9.956069e+00  3.251049e+01  2.465554e+01  # OHG EG DC
    128      13    3   0.0400  9.801050e+00  3.164137e+01  2.274863e+01  # H1O EG
    129      13    4   0.3750  1.082989e+01  2.828156e+01  2.351852e+01  # HOG EG
    130      13    4   0.3750  9.989708e+00  3.344245e+01  2.429456e+01  # HOG EG
    131      14    1   2.3822  1.931196e+01  2.952224e+01  2.110962e+01  # CTO EG DC
    132      14    1   2.3822  1.869344e+01  2.846107e+01  2.200502e+01  # CTO EG DC
    133      14    2   1.5019  2.027581e+01  3.031702e+01  2.188435e+01  # OHG EG DC
    134      14    3   0.0400  1.852873e+01  3.017565e+01  2.072530e+01  # H1O EG
    135      14    3   0.0400  1.982468e+01  2.904155e+01  2.027646e+01  # H1O EG
    136      14    3   0.0400  1.947667e+01  2.780766e+01  2.238934e+01  # H1O EG
    137      14    2   1.5019  1.772958e+01  2.766629e+01  2.123029e+01  # OHG EG DC
    138      14    3   0.0400  1.818072e+01  2.894177e+01  2.283818e+01  # H1O EG
    139      14    4   0.3750  2.068273e+01  3.101516e+01  2.129527e+01  # HOG EG
    140      14    4   0.3750  1.732266e+01  2.696816e+01  2.181937e+01  # HOG EG
    141      15    1   2.3822  3.432130e+00  1.094185e+01  2.270207e+01  # CTO EG DC
    142      15    1   2.3822  4.276053e+00  1.110272e+01  2.395599e+01  # CTO EG DC
    143      15    2   1.5019  2.850024e+00  9.592349e+00  2.267216e+01  # OHG EG DC
    144      15    3   0.0400  4.057782e+00  1.108671e+01  2.182135e+01  # H1O EG
    145      15    3   0.0400  2.632066e+00  1.168212e+01  2.270451e+01  # H1O EG
    146      15    3   0.0400  3.650402e+00  1.095786e+01  2.483672e+01  # H1O EG
    147      15    2   1.5019  4.858159e+00  1.245223e+01  2.398591e+01  # OHG EG DC
    148      15    3   0.0400  5.076117e+00  1.036246e+01  2.395356e+01  # H1O EG
    149      15    4   0.3750  2.294812e+00  9.486513e+00  2.184721e+01  # HOG EG
    150      15    4   0.3750  5.413372e+00  1.255806e+01  2.481086e+01  # HOG EG
    151      16    1   2.3822  2.749702e+01  2.680701e+01  2.577254e+01  # CTO EG DC
    152      16    1   2.3822  2.805401e+01  2.815050e+01  2.533073e+01  # CTO EG DC
    153      16    2   1.5019  2.602812e+01  2.686340e+01  2.578034e+01  # OHG EG DC
    154      16    3   0.0400  2.785657e+01  2.657604e+01  2.677527e+01  # H1O EG
    155      16    3   0.0400  2.782666e+01  2.603138e+01  2.508128e+01  # H1O EG
    156      16    3   0.0400  2.769445e+01  2.838148e+01  2.432800e+01  # H1O EG
    157      16    2   1.5019  2.952290e+01  2.809412e+01  2.532293e+01  # OHG EG DC
    158      16    3   0.0400  2.772437e+01  2.892614e+01  2.602199e+01  # H1O EG
    159      16    4   0.3750  2.566167e+01  2.597953e+01  2.607100e+01  # HOG EG
    160      16    4   0.3750  2.988935e+01  2.897799e+01  2.503227e+01  # HOG EG
    161      17    1   2.3822  2.279078e+00  1.895985e+01  9.516196e+00  # CTO EG DC
    162      17    1   2.3822  2.672321e+00  1.821263e+01  1.078009e+01  # CTO EG DC
    163      17    2   1.5019  3.452654e+00  1.909620e+01  8.641536e+00  # OHG EG DC
    164      17    3   0.0400  1.906084e+00  1.994955e+01  9.779782e+00  # H1O EG
    165      17    3   0.0400  1.499472e+00  1.840565e+01  8.993536e+00  # H1O EG
    166      17    3   0.0400  3.045315e+00  1.722294e+01  1.051650e+01  # H1O EG
    167      17    2   1.5019  1.498745e+00  1.807628e+01  1.165475e+01  # OHG EG DC
    168      17    3   0.0400  3.451926e+00  1.876684e+01  1.130275e+01  # H1O EG
    169      17    4   0.3750  3.193942e+00  1.958779e+01  7.810028e+00  # HOG EG
    170      17    4   0.3750  1.757457e+00  1.758469e+01  1.248626e+01  # HOG EG
    171      18    1   2.3822  2.792391e+01  1.384065e+01  5.804135e+00  # CTO EG DC
    172      18    1   2.3822  2.915509e+01  1.324832e+01  6.470271e+00  # CTO EG DC
    173      18    2   1.5019  2.782224e+01  1.526782e+01  6.141421e+00  # OHG EG DC
    174      18    3   0.0400  2.703349e+01  1.332017e+01  6.156781e+00  # H1O EG
    175      18    3   0.0400  2.800557e+01  1.372827e+01  4.723025e+00  # H1O EG
    176      18    3   0.0400  3.004550e+01  1.376880e+01  6.117625e+00  # H1O EG
    177      18    2   1.5019  2.925676e+01  1.182115e+01  6.132985e+00  # OHG EG DC
    178      18    3   0.0400  2.907342e+01  1.336070e+01  7.551381e+00  # H1O EG
    179      18    4   0.3750  2.701225e+01  1.565751e+01  5.703173e+00  # HOG EG
    180      18    4   0.3750  3.006674e+01  1.143146e+01  6.571233e+00  # HOG EG
    181      19    1   2.3822  1.056797e+01  8.155405e+00  7.636122e+00  # CTO EG DC
    182      19    1   2.3822  9.367107e+00  7.925278e+00  6.733149e+00  # CTO EG DC
    183      19    2   1.5019  1.118750e+01  9.447687e+00  7.308868e+00  # OHG EG DC
    184      19    3   0.0400  1.129427e+01  7.356562e+00  7.486291e+00  # H1O EG
    185      19    3   0.0400  1.024468e+01  8.161286e+00  8.677056e+00  # H1O EG
    186      19    3   0.0400  8.640816e+00  8.724122e+00  6.882980e+00  # H1O EG
    187      19    2   1.5019  8.747580e+00  6.632996e+00  7.060403e+00  # OHG EG DC
    188      19    3   0.0400  9.690404e+00  7.919397e+00  5.692215e+00  # H1O EG
    189      19    4   0.3750  1.197754e+01  9.599087e+00  7.902928e+00  # HOG EG
    190      19    4   0.3750  7.957536e+00  6.481596e+00  6.466342e+00  # HOG EG
    191      20    1   2.3822  3.070338e+01  3.250889e+01  2.628077e+01  # CTO EG DC
    192      20    1   2.3822  3.199034e+01  3.219994e+01  2.553330e+01  # CTO EG DC
    193      20    2   1.5019  3.004001e+01  3.125190e+01  2.665600e+01  # OHG EG DC
    194      20    3   0.0400  3.004132e+01  3.309133e+01  2.564003e+01  # H1O EG
    195      20    3   0.0400  3.093315e+01  3.308038e+01  2.718005e+01  # H1O EG
    196      20    3   0.0400  3.265240e+01  3.161751e+01  2.617404e+01  # H1O EG
    197      20    2   1.5019  3.265371e+01  3.345694e+01  2.515807e+01  # OHG EG DC
    198      20    3   0.0400  3.176057e+01  3.162845e+01  2.463402e+01  # H1O EG
    199      20    4   0.3750  2.919333e+01  3.145516e+01  2.714775e+01  # HOG EG
    200      20    4   0.3750  3.350039e+01  3.325368e+01  2.466631e+01  # HOG EG
    201      21    1   2.3822  1.821218e+01  8.431290e+00  1.769906e+01  # CTO EG DC
    202      21    1   2.3822  1.964344e+01  8.814608e+00  1.803810e+01  # CTO EG DC
    203      21    2   1.5019  1.793688e+01  8.757604e+00  1.629242e+01  # OHG EG DC
    204      21    3   0.0400  1.752580e+01  8.983789e+00  1.834072e+01  # H1O EG
    205      21    3   0.0400  1.807486e+01  7.361562e+00  1.785693e+01  # H1O EG
    206      21    3   0.0400  2.032982e+01  8.262110e+00  1.739644e+01  # H1O EG
    207      21    2   1.5019  1.991874e+01  8.488295e+00  1.944474e+01  # OHG EG DC
    208      21    3   0.0400  1.978075e+01  9.884337e+00  1.788023e+01  # H1O EG
    209      21    4   0.3750  1.699526e+01  8.505421e+00  1.606936e+01  # HOG EG
    210      21    4   0.3750  2.086036e+01  8.740477e+00  1.966780e+01  # HOG EG
    211      22    1   2.3822  2.592587e+01  2.899439e+01  2.947605e+01  # CTO EG DC
    212      22    1   2.3822  2.505059e+01  2.781408e+01  2.986486e+01  # CTO EG DC
    213      22    2   1.5019  2.508662e+01  3.018634e+01  2.928684e+01  # OHG EG DC
    214      22    3   0.0400  2.644986e+01  2.876845e+01  2.854735e+01  # H1O EG
    215      22    3   0.0400  2.665274e+01  2.918409e+01  3.026584e+01  # H1O EG
    216      22    3   0.0400  2.452660e+01  2.804002e+01  3.079356e+01  # H1O EG
    217      22    2   1.5019  2.588984e+01  2.662213e+01  3.005408e+01  # OHG EG DC
    218      22    3   0.0400  2.432372e+01  2.762438e+01  2.907507e+01  # H1O EG
    219      22    4   0.3750  2.566246e+01  3.096286e+01  2.903104e+01  # HOG EG
    220      22    4   0.3750  2.531399e+01  2.584561e+01  3.030987e+01  # HOG EG
    221      23    1   2.3822  1.287059e+01  2.493603e+01  1.984152e+01  # CTO EG DC
    222      23    1   2.3822  1.206732e+01  2.583841e+01  2.076393e+01  # CTO EG DC
    223      23    2   1.5019  1.419575e+01  2.552788e+01  1.960793e+01  # OHG EG DC
    224      23    3   0.0400  1.234803e+01  2.482972e+01  1.889087e+01  # H1O EG
    225      23    3   0.0400  1.298741e+01  2.395545e+01  2.030296e+01  # H1O EG
    226      23    3   0.0400  1.258988e+01  2.594471e+01  2.171458e+01  # H1O EG
    227      23    2   1.5019  1.074216e+01  2.524656e+01  2.099752e+01  # OHG EG DC
    228      23    3   0.0400  1.195050e+01  2.681898e+01  2.030249e+01  # H1O EG
    229      23    4   0.3750  1.472423e+01  2.493421e+01  1.900108e+01  # HOG EG
    230      23    4   0.3750  1.021368e+01  2.584023e+01  2.160437e+01  # HOG EG
    231      24    1   2.3822  2.252529e+01  3.227584e+01  1.392053e+01  # CTO EG DC
    232      24    1   2.3822  2.387874e+01  3.216828e+01  1.323717e+01  # CTO EG DC
    233      24    2   1.5019  2.205829e+01  3.093414e+01  1.429824e+01  # OHG EG DC
    234      24    3   0.0400  2.180794e+01  3.273074e+01  1.323747e+01  # H1O EG
    235      24    3   0.0400  2.261696e+01  3.289304e+01  1.481426e+01  # H1O EG
    236      24    3   0.0400  2.459609e+01  3.171337e+01  1.392023e+01  # H1O EG
    237      24    2   1.5019  2.434574e+01  3.350997e+01  1.285946e+01  # OHG EG DC
    238      24    3   0.0400  2.378707e+01  3.155107e+01  1.234344e+01  # H1O EG
    239      24    4   0.3750  2.116786e+01  3.100490e+01  1.474782e+01  # HOG EG
    240      24    4   0.3750  2.523617e+01  3.343921e+01  1.240988e+01  # HOG EG
    241      25    1   2.3822  1.312673e+01  6.874998e+00  2.516904e+01  # CTO EG DC
    242      25    1   2.3822  1.185349e+01  7.158523e+00  2.594935e+01  # CTO EG DC
    243      25    2   1.5019  1.302403e+01  5.558001e+00  2.452416e+01  # OHG EG DC
    244      25    3   0.0400  1.397888e+01  6.880730e+00  2.584867e+01  # H1O EG
    245      25    3   0.0400  1.326506e+01  7.642208e+00  2.440723e+01  # H1O EG
    246      25    3   0.0400  1.100133e+01  7.152791e+00  2.526973e+01  # H1O EG
    247      25    2   1.5019  1.195618e+01  8.475520e+00  2.659424e+01  # OHG EG DC
    248      25    3   0.0400  1.171516e+01  6.391313e+00  2.671116e+01  # H1O EG
    249      25    4   0.3750  1.386169e+01  5.371471e+00  2.401080e+01  # HOG EG
    250      25    4   0.3750  1.111853e+01  8.662050e+00  2.710760e+01  # HOG EG
    251      26    1   2.3822  3.000602e+01  1.837327e+01  2.907023e+01  # CTO EG DC
    252      26    1   2.3822  3.119859e+01  1.808464e+01  2.817308e+01  # CTO EG DC
    253      26    2   1.5019  2.926588e+01  1.712770e+01  2.931846e+01  # OHG EG DC
    254      26    3   0.0400  2.934986e+01  1.909417e+01  2.858252e+01  # H1O EG
    255      26    3   0.0400  3.035459e+01  1.878324e+01  3.001813e+01  # H1O EG
    256      26    3   0.0400  3.185476e+01  1.736374e+01  2.866079e+01  # H1O EG
    257      26    2   1.5019  3.193874e+01  1.933022e+01  2.792485e+01  # OHG EG DC
    258      26    3   0.0400  3.085002e+01  1.767467e+01  2.722517e+01  # H1O EG
    259      26    4   0.3750  2.848129e+01  1.731759e+01  2.990868e+01  # HOG EG
    260      26    4   0.3750  3.272332e+01  1.914033e+01  2.733462e+01  # HOG EG
    261      27    1   2.3822  1.016731e+01  1.266949e+01  5.999065e+00  # CTO EG DC
    262      27    1   2.3822  9.481783e+00  1.337326e+01  7.158876e+00  # CTO EG DC
    263      27    2   1.5019  9.687686e+00  1.128254e+01  5.914086e+00  # OHG EG DC
    264      27    3   0.0400  1.124560e+01  1.267139e+01  6.158411e+00  # H1O EG
    265      27    3   0.0400  9.936955e+00  1.319063e+01  5.069842e+00  # H1O EG
    266      27    3   0.0400  8.403495e+00  1.337137e+01  6.999530e+00  # H1O EG
    267      27    2   1.5019  9.961407e+00  1.476022e+01  7.243855e+00  # OHG EG DC
    268      27    3   0.0400  9.712138e+00  1.285213e+01  8.088099e+00  # H1O EG
    269      27    4   0.3750  1.013869e+01  1.081953e+01  5.151053e+00  # HOG EG
    270      27    4   0.3750  9.510403e+00  1.522322e+01  8.006888e+00  # HOG EG
    271      28    1   2.3822  5.171622e+00  1.492429e+01  2.147983e+01  # CTO EG DC
    272      28    1   2.3822  5.551606e+00  1.404696e+01  2.029817e+01  # CTO EG DC
    273      28    2   1.5019  6.193337e+00  1.480288e+01  2.252971e+01  # OHG EG DC
    274      28    3   0.0400  4.206644e+00  1.460572e+01  2.187407e+01  # H1O EG
    275      28    3   0.0400  5.106127e+00  1.596290e+01  2.115566e+01  # H1O EG
    276      28    3   0.0400  6.516584e+00  1.436552e+01  1.990392e+01  # H1O EG
    277      28    2   1.5019  4.529892e+00  1.416836e+01  1.924828e+01  # OHG EG DC
    278      28    3   0.0400  5.617101e+00  1.300834e+01  2.062233e+01  # H1O EG
    279      28    4   0.3750  5.943347e+00  1.538007e+01  2.330711e+01  # HOG EG
    280      28    4   0.3750  4.779881e+00  1.359117e+01  1.847088e+01  # HOG EG
    281      29    1   2.3822  1.014723e+01  3.087262e+01  2.879962e+01  # CTO EG DC
    282      29    1   2.3822  9.530306e+00  3.197990e+01  2.963851e+01  # CTO EG DC
    283      29    2   1.5019  9.080138e+00  3.008056e+01  2.817124e+01  # OHG EG DC
    284      29    3   0.0400  1.075113e+01  3.022674e+01  2.943699e+01  # H1O EG
    285      29    3   0.0400  1.077760e+01  3.131066e+01  2.802576e+01  # H1O EG
    286      29    3   0.0400  8.926409e+00  3.262579e+01  2.900114e+01  # H1O EG
    287      29    2   1.5019  1.059740e+01  3.277196e+01  3.026689e+01  # OHG EG DC
    288      29    3   0.0400  8.899930e+00  3.154187e+01  3.041237e+01  # H1O EG
    289      29    4   0.3750  9.486009e+00  2.935209e+01  2.761934e+01  # HOG EG
    290      29    4   0.3750  1.019153e+01  3.350043e+01  3.081879e+01  # HOG EG
    291      30    1   2.3822  3.137035e+01  2.189579e+01  8.811053e+00  # CTO EG DC
    292      30    1   2.3822  3.050465e+01  2.314292e+01  8.735994e+00  # CTO EG DC
    293      30    2   1.5019  3.086151e+01  2.100804e+01  9.866452e+00  # OHG EG DC
    294      30    3   0.0400  3.239775e+01  2.217927e+01  9.039495e+00  # H1O EG
    295      30    3   0.0400  3.134194e+01  2.137500e+01  7.853938e+00  # H1O EG
    296      30    3   0.0400  2.947724e+01  2.285945e+01  8.507552e+00  # H1O EG
    297      30    2   1.5019  3.101348e+01  2.403068e+01  7.680595e+00  # OHG EG DC
    298      30    3   0.0400  3.053306e+01  2.366371e+01  9.693109e+00  # H1O EG
    299      30    4   0.3750  3.143106e+01  2.018756e+01  9.915833e+00  # HOG EG
    300      30    4   0.3750  3.044394e+01  2.485115e+01  7.631214e+00  # HOG EG
    301      31    1   2.3822  2.890012e+01  1.176644e+01  2.693290e+01  # CTO EG DC
    302      31    1   2.3822  2.857438e+01  1.323905e+01  2.674392e+01  # CTO EG DC
    303      31    2   1.5019  2.772486e+01  1.106957e+01  2.747515e+01  # OHG EG DC
    304      31    3   0.0400  2.973453e+01  1.166450e+01  2.762679e+01  # H1O EG
    305      31    3   0.0400  2.917110e+01  1.132759e+01  2.597265e+01  # H1O EG
    306      31    3   0.0400  2.773998e+01  1.334099e+01  2.605003e+01  # H1O EG
    307      31    2   1.5019  2.974964e+01  1.393592e+01  2.620168e+01  # OHG EG DC
    308      31    3   0.0400  2.830340e+01  1.367789e+01  2.770417e+01  # H1O EG
    309      31    4   0.3750  2.793917e+01  1.010074e+01  2.759948e+01  # HOG EG
    310      31    4   0.3750  2.953534e+01  1.490474e+01  2.607735e+01  # HOG EG
    311      32    1   2.3822  5.116830e+00  2.991456e+01  9.494198e+00  # CTO EG DC
    312      32    1   2.3822  3.734302e+00  2.928288e+01  9.493965e+00  # CTO EG DC
    313      32    2   1.5019  4.987288e+00  3.137884e+01  9.494032e+00  # OHG EG DC
    314      32    3   0.0400  5.661459e+00  2.959840e+01  8.604520e+00  # H1O EG
    315      32    3   0.0400  5.661083e+00  2.959857e+01  1.038416e+01  # H1O EG
    316      32    3   0.0400  3.189674e+00  2.959903e+01  1.038364e+01  # H1O EG
    317      32    2   1.5019  3.863845e+00  2.781860e+01  9.494131e+00  # OHG EG DC
    318      32    3   0.0400  3.190050e+00  2.959886e+01  8.603997e+00  # H1O EG
    319      32    4   0.3750  5.896845e+00  3.179441e+01  9.494185e+00  # HOG EG
    320      32    4   0.3750  2.954287e+00  2.740302e+01  9.493978e+00  # HOG EG
    321      33    1   2.3822  8.062975e+00  1.400574e+01  3.080936e+01  # CTO EG DC
    322      33    1   2.3822  9.485974e+00  1.384362e+01  3.030025e+01  # CTO EG DC
    323      33    2   1.5019  7.820383e+00  1.541564e+01  3.114736e+01  # OHG EG DC
    324      33    3   0.0400  7.922066e+00  1.339021e+01  3.169782e+01  # H1O EG
    325      33    3   0.0400  7.361877e+00  1.369226e+01  3.003587e+01  # H1O EG
    326      33    3   0.0400  9.626883e+00  1.445915e+01  2.941178e+01  # H1O EG
    327      33    2   1.5019  9.728567e+00  1.243373e+01  2.996225e+01  # OHG EG DC
    328      33    3   0.0400  1.018707e+01  1.415711e+01  3.107374e+01  # H1O EG
    329      33    4   0.3750  6.884199e+00  1.552229e+01  3.148230e+01  # HOG EG
    330      33    4   0.3750  1.066475e+01  1.232707e+01  2.962731e+01  # HOG EG
    331      34    1   2.3822  3.374783e+00  7.732456e+00  5.613991e+00  # CTO EG DC
    332      34    1   2.3822  3.271649e+00  7.207864e+00  4.191118e+00  # CTO EG DC
    333      34    2   1.5019  2.661939e+00  9.013885e+00  5.717407e+00  # OHG EG DC
    334      34    3   0.0400  4.423474e+00  7.878741e+00  5.872731e+00  # H1O EG
    335      34    3   0.0400  2.928726e+00  7.012718e+00  6.300365e+00  # H1O EG
    336      34    3   0.0400  2.222958e+00  7.061580e+00  3.932377e+00  # H1O EG
    337      34    2   1.5019  3.984493e+00  5.926436e+00  4.087701e+00  # OHG EG DC
    338      34    3   0.0400  3.717706e+00  7.927603e+00  3.504744e+00  # H1O EG
    339      34    4   0.3750  2.729790e+00  9.359011e+00  6.653508e+00  # HOG EG
    340      34    4   0.3750  3.916641e+00  5.581309e+00  3.151601e+00  # HOG EG
    341      35    1   2.3822  1.859846e+01  3.032503e+01  2.856228e+01  # CTO EG DC
    342      35    1   2.3822  1.767010e+01  3.143061e+01  2.808663e+01  # CTO EG DC
    343      35    2   1.5019  1.907583e+01  3.063441e+01  2.991775e+01  # OHG EG DC
    344      35    3   0.0400  1.945008e+01  3.024905e+01  2.788622e+01  # H1O EG
    345      35    3   0.0400  1.805953e+01  2.937766e+01  2.857483e+01  # H1O EG