LAMMPS (30 Nov 2020)
OMP_NUM_THREADS environment is not set. Defaulting to 1 thread. (src/comm.cpp:94)
  using 1 OpenMP thread(s) per MPI task
# Generate tip
units          metal
dimension      3
boundary       p p p
atom_style     atomic

variable 	xm equal 10
variable 	ym equal 10
variable 	zm equal 5
lattice  	diamond   5.481  # Si-Si
Lattice spacing in x,y,z = 5.4810000 5.4810000 5.4810000
region   	recbox block    0.0  ${xm} 0.0 ${ym} 0.0 ${zm}
region   	recbox block    0.0  10 0.0 ${ym} 0.0 ${zm}
region   	recbox block    0.0  10 0.0 10 0.0 ${zm}
region   	recbox block    0.0  10 0.0 10 0.0 5

create_box    	1  recbox
Created orthogonal box = (0.0000000 0.0000000 0.0000000) to (54.810000 54.810000 27.405000)
  1 by 1 by 1 MPI processor grid
create_atoms  	1  region recbox units box
Created 4000 atoms
  create_atoms CPU = 0.001 seconds

mass	* 	28.0855
pair_style	tersoff shift 0.05
pair_coeff 	* * Si.tersoff Si
Reading tersoff potential file Si.tersoff with DATE: 2007-10-25

thermo_style    custom step cpu etotal pe ke temp
thermo          100
thermo_modify   flush yes norm no lost warn
thermo_modify   line one format float %20.15g

#### Simulation settings ####
timestep  	0.001
velocity  	all create 300.0 12345 dist gaussian mom yes rot yes
fix       	thermostat all nve

############# Output ###############
thermo          100
thermo_style    custom step etotal pe ke temp
WARNING: New thermo_style command, previous thermo_modify settings will be lost (src/output.cpp:693)
thermo_modify   lost warn

###### Run molecular dynamics ######
run 		1000
Neighbor list info ...
  update every 1 steps, delay 10 steps, check yes
  max neighbors/atom: 2000, page size: 100000
  master list distance cutoff = 5.2
  ghost atom cutoff = 5.2
  binsize = 2.6, bins = 22 22 11
  1 neighbor lists, perpetual/occasional/extra = 1 0 0
  (1) pair tersoff, perpetual
      attributes: full, newton on
      pair build: full/bin/atomonly
      stencil: full/bin/3d
      bin: standard
Per MPI rank memory allocation (min/avg/max) = 3.677 | 3.677 | 3.677 Mbytes
Step TotEng PotEng KinEng Temp 
       0   -18183.755   -18338.829     155.0734          300 
     100    -18183.66   -18247.917    64.256597    124.30874 
     200   -18183.654   -18242.513    58.858225    113.86523 
     300   -18183.683   -18265.139    81.456543    157.58321 
     400   -18183.671   -18258.798     75.12695    145.33818 
     500   -18183.679   -18261.264    77.585257    150.09394 
     600   -18183.673   -18258.411    74.737378    144.58453 
     700   -18183.674   -18257.786     74.11252     143.3757 
     800   -18183.679   -18263.045    79.365484    153.53791 
     900   -18183.672   -18259.796    76.123779    147.26661 
    1000   -18183.674    -18258.87    75.195714    145.47121 
Loop time of 8.76461 on 1 procs for 1000 steps with 4000 atoms

Performance: 9.858 ns/day, 2.435 hours/ns, 114.095 timesteps/s
99.4% CPU use with 1 MPI tasks x 1 OpenMP threads

MPI task timing breakdown:
Section |  min time  |  avg time  |  max time  |%varavg| %total
---------------------------------------------------------------
Pair    | 8.7013     | 8.7013     | 8.7013     |   0.0 | 99.28
Neigh   | 0          | 0          | 0          |   0.0 |  0.00
Comm    | 0.016631   | 0.016631   | 0.016631   |   0.0 |  0.19
Output  | 0.000301   | 0.000301   | 0.000301   |   0.0 |  0.00
Modify  | 0.03126    | 0.03126    | 0.03126    |   0.0 |  0.36
Other   |            | 0.01514    |            |       |  0.17

Nlocal:        4000.00 ave        4000 max        4000 min
Histogram: 1 0 0 0 0 0 0 0 0 0
Nghost:        3470.00 ave        3470 max        3470 min
Histogram: 1 0 0 0 0 0 0 0 0 0
Neighs:         0.00000 ave           0 max           0 min
Histogram: 1 0 0 0 0 0 0 0 0 0
FullNghs:      112000.0 ave      112000 max      112000 min
Histogram: 1 0 0 0 0 0 0 0 0 0

Total # of neighbors = 112000
Ave neighs/atom = 28.000000
Neighbor list builds = 0
Dangerous builds = 0
Total wall time: 0:00:08
