LAMMPS (30 Nov 2020)
# Initialization
units           metal
boundary        p p p
atom_style      charge
processors      * * 1     # domain decomposition over x and y

# System and atom definition
# we use different molecule ids for each layer of hBN
# so that inter- and intra-layer
# interactions can be specified separately
read_data       hBN-momolayer-5nm.data
Reading data file ...
  orthogonal box = (0.0000000 0.0000000 0.0000000) to (46.152980 48.443364 100.00000)
  1 by 1 by 1 MPI processor grid
  reading atoms ...
  880 atoms
  read_data CPU = 0.004 seconds
mass            1 10.8110   # boron mass (g/mole) | membrane
mass            2 14.0067   # nitrogen mass (g/mole) | adsorbate

######################## Potential defition ########################
pair_style  tersoff shift 0.05
pair_coeff  * * BNC.tersoff B N
Reading tersoff potential file BNC.tersoff with DATE: 2013-03-21
####################################################################
# Neighbor update settings
neighbor        2.0 bin
neigh_modify    every 1
neigh_modify    delay 0
neigh_modify    check yes

#### Simulation settings ####
timestep  	0.001
velocity  	all create 300.0 4928459 loop geom
fix       	thermostat all nve

############# Output ###############
thermo          100
thermo_style    custom step etotal pe ke temp
#thermo_modify   lost warn
thermo_modify   line one format float %20.16g lost warn

###### Run molecular dynamics ######
run 		10000
Neighbor list info ...
  update every 1 steps, delay 0 steps, check yes
  max neighbors/atom: 2000, page size: 100000
  master list distance cutoff = 4.1
  ghost atom cutoff = 4.1
  binsize = 2.05, bins = 23 24 49
  1 neighbor lists, perpetual/occasional/extra = 1 0 0
  (1) pair tersoff, perpetual
      attributes: full, newton on
      pair build: full/bin/atomonly
      stencil: full/bin/3d
      bin: standard
Per MPI rank memory allocation (min/avg/max) = 3.670 | 3.670 | 3.670 Mbytes
Step TotEng PotEng KinEng Temp 
       0   -6570.525999324201     -6604.6118995607        34.0859002365                  300 
     100   -6570.310828576859   -6584.788128201219    14.47729962436133    127.4189579026464 
     200   -6570.372315728009   -6587.981402302975    17.60908657496529    154.9827329140839 
     300   -6570.341402414291   -6587.005611017611    16.66420860331987    146.6665849019482 
     400   -6570.373381655075   -6587.812074340168    17.43869268509273    153.4830463396618 
     500   -6570.357279692751   -6587.139105628346    16.78182593559452    147.7017695219105 
     600   -6570.364533408485   -6588.199043380885    17.83450997240024    156.9667503160379 
     700    -6570.36200065409   -6587.514376495224    17.15237584113493    150.9630878644163 
     800   -6570.358394688987   -6587.200486866453     16.8420921774656    148.2321903832015 
     900   -6570.372035122419   -6588.096861613297    17.72482649087754    156.0013938422906 
    1000   -6570.355748883598   -6587.399428461688    17.04367957809044    150.0064201898913 
    1100   -6570.361365644249   -6587.907834467105    17.54646882285712    154.4316157218691 
    1200   -6570.361813996135   -6587.798045021246    17.43623102511173    153.4613805485525 
    1300   -6570.361628085057   -6588.170864228916    17.80923614385877    156.7443079422166 
    1400   -6570.356471561063   -6587.351733222865    16.99526166180189    149.5802799152973 
    1500   -6570.361413728087   -6587.835844910863    17.47443118277618    153.7975913342386 
    1600   -6570.357696225701   -6587.619683012607    17.26198678690646    151.9278059297543 
    1700   -6570.348812380212   -6586.878985906395    16.53017352618314    145.4869028967195 
    1800   -6570.357028448588    -6587.38103127477    17.02400282618253    149.8332393282618 
    1900   -6570.359005417781   -6587.467319652451     17.1083142346694    150.5752887495933 
    2000   -6570.360910372626   -6586.982995798019    16.62208542539338    146.2958464649326 
    2100   -6570.354665996016   -6587.699965418249    17.34529942223363    152.6610648557247 
    2200   -6570.358196244768   -6587.599229884595    17.24103363982704    151.7433911400549 
    2300   -6570.360299283449   -6587.831629030676    17.47132974722745    153.7702946908123 
    2400     -6570.3552862498   -6587.431449500761    17.07616325096092    150.2923185171623 
    2500   -6570.356642607308   -6587.443603945459    17.08696133815061    150.3873556478947 
    2600   -6570.355260161621   -6587.016518357724    16.66125819610244    146.6406175031385 
    2700   -6570.351798519555   -6587.688868062763    17.33706954320784    152.5886312778933 
    2800   -6570.374860360645   -6588.520382930916    18.14552257027101     159.704063360841 
    2900    -6570.35205092336   -6587.510378979452    17.15832805609189    151.0154750530984 
    3000   -6570.354046732288   -6587.046608472678    16.69256174038983    146.9161291728041 
    3100   -6570.358411403405    -6587.59308711139    17.23467570798513    151.6874331181356 
    3200   -6570.357587199138   -6587.115184729113    16.75759752997486    147.4885282216817 
    3300   -6570.358116221875   -6587.521832809604    17.16371658772937    151.0629010996463 
    3400   -6570.356540455725   -6587.758047495098    17.40150703937349    153.1557645710017 
    3500   -6570.360225765383   -6587.911628398982     17.5514026335995    154.4750396365213 
    3600   -6570.356181541018   -6587.363918007874    17.00773646685577    149.6900743314693 
    3700   -6570.359674665961   -6587.622428237041    17.26275357108029     151.934554622045 
    3800    -6570.36068522278   -6587.537826596795    17.17714137401455    151.1810565791147 
    3900    -6570.35057732405    -6587.74500737107    17.39443004701957    153.0934778867292 
    4000   -6570.359488130031   -6587.443613189231    17.08412505920063    150.3623927254226 
    4100   -6570.354004742664   -6587.017177531799    16.66317278913412    146.6574683976584 
    4200   -6570.353423800372   -6587.869177111396    17.51575331102369    154.1612794982078 
    4300   -6570.358994609902   -6588.112477475862    17.75348286596034    156.2536069997894 
    4400   -6570.357303158663   -6587.508847453352    17.15154429468956    150.9557691803892 
    4500   -6570.362938219255   -6588.385259101793    18.02232088253793    158.6197291914784 
    4600   -6570.359102404124   -6587.085078141023    16.72597573689809    147.2102155511285 
    4700   -6570.356110179548   -6587.183410342215    16.82730016266803    148.1020015248031 
    4800   -6570.355626804948   -6587.837727166151    17.48210036120291    153.8650900217327 
    4900   -6570.352338656287   -6587.386834120214    17.03449546392803    149.9255881088957 
    5000   -6570.367121347545   -6588.444950818423     18.0778294708777    159.1082765493709 
    5100   -6570.361382611043   -6587.534012491175    17.17262988013209    151.1413495989456 
    5200    -6570.35926858121   -6587.745372149933    17.38610356872295    153.0201941103978 
    5300   -6570.354331404706   -6587.217635519139    16.86330411443332      148.41888285857 
    5400   -6570.356619490692   -6586.554472402558    16.19785291186641    142.5620517528948 
    5500   -6570.355672766049   -6587.041991570508    16.68631880445905    146.8611832636088 
    5600   -6570.353935359065   -6587.486943124098    17.13300776503303    150.7926237490415 
    5700   -6570.351180482223   -6587.008165761865    16.65698527964211    146.6030103127985 
    5800   -6570.355843895504   -6587.836380591454    17.48053669594962    153.8513277454621 
    5900   -6570.364359099945   -6588.030179035712    17.66581993576601    155.4820598534378 
    6000   -6570.350300217616   -6586.777933426324     16.4276332087085    144.5844155037225 
    6100   -6570.353901655382   -6587.425845813632    17.07194415824931     150.255185045413 
    6200    -6570.34989825042   -6587.021967423186    16.67206917276628    146.7357680779112 
    6300   -6570.362282461717   -6588.083887323323    17.72160486160671    155.9730393386823 
    6400   -6570.357979747161   -6587.813502869915    17.45552312275401    153.6311759552316 
    6500   -6570.352185004061   -6587.457490320935    17.10530531687417    150.5488063820365 
    6600   -6570.361772138939   -6588.330633729718     17.9688615907788    158.1492182935275 
    6700    -6570.35723858555    -6587.38353085572    17.02629227016985     149.853389395927 
    6800   -6570.354156250063   -6587.400928228118    17.04677197805407    150.0336373084843 
    6900   -6570.359839482354   -6587.644337698783    17.28449821642918    152.1259356200355 
    7000   -6570.355344713283   -6587.331255619759    16.97591090647605      149.40996824515 
    7100   -6570.349282345091   -6587.312061369486    16.96277902439603    149.2943907014538 
    7200   -6570.365957425851   -6587.802519493803    17.43656206795228    153.4642941536347 
    7300   -6570.356682488394   -6587.144183584973    16.78750109657942    147.7517182773682 
    7400    -6570.35777414521   -6587.338925099166    16.98115095395578    149.4560874390986 
    7500   -6570.356850022354   -6587.714803897856     17.3579538755024    152.7724404084984 
    7600   -6570.357518819848   -6587.544880858988     17.1873620391397    151.2710116489902 
    7700   -6570.353015479428   -6587.491407643447     17.1383921640193    150.8400134229147 
    7800   -6570.357010766854   -6587.375086387916    17.01807562106238    149.7810722584849 
    7900   -6570.357375184736    -6587.45672458118    17.09934939644311    150.4963865803907 
    8000   -6570.355805415644   -6587.993548800539    17.63774338489607    155.2349498988073 
    8100   -6570.356028475385   -6587.745343882396    17.38931540701103    153.0484624406968 
    8200   -6570.362873461087    -6587.92468721519    17.56181375410316    154.5666709600137 
    8300   -6570.355161254256   -6587.524505801754    17.16934454749879    151.1124344233699 
    8400    -6570.35447231479   -6586.775210847256    16.42073853246659    144.5237334369963 
    8500   -6570.352373901428   -6587.234412112466    16.88203821103806    148.5837671345441 
    8600   -6570.356411536407   -6587.481263722421    17.12485218601428    150.7208441073525 
    8700   -6570.356773675732   -6587.511633765302    17.15486008956931    150.9849524631256 
    8800    -6570.36198759649   -6588.144322118963    17.78233452247365    156.5075388864036 
    8900   -6570.354866384184   -6587.404845623407     17.0499792392233    150.0618653542186 
    9000   -6570.359490031817    -6587.58295277175    17.22346273993254    151.5887444993098 
    9100   -6570.353390031278   -6587.183793899733    16.83040386845595    148.1293181492699 
    9200   -6570.360998438297   -6588.066914239224    17.70591580092663    155.8349553165098 
    9300   -6570.350073905222   -6587.350322038807    17.00024813358495    149.6241673152057 
    9400    -6570.36521749562   -6588.102982567922     17.7377650723023    156.1152700902552 
    9500   -6570.348437103487   -6587.046777075785    16.69833997229794    146.9669850856715 
    9600    -6570.36218973505   -6587.552791505413    17.19060177036189    151.2995254731789 
    9700   -6570.363365059218   -6587.585852508567    17.22248744934841      151.58016068098 
    9800   -6570.363766480239   -6588.408240091641    18.04447361140224    158.8147018521146 
    9900    -6570.35251000423   -6587.557869126701    17.20535912247133     151.429409255098 
   10000   -6570.354530295514   -6587.569684149594    17.21515385407888     151.515615559226 
Loop time of 13.7354 on 1 procs for 10000 steps with 880 atoms

Performance: 62.903 ns/day, 0.382 hours/ns, 728.045 timesteps/s
99.3% CPU use with 1 MPI tasks x no OpenMP threads

MPI task timing breakdown:
Section |  min time  |  avg time  |  max time  |%varavg| %total
---------------------------------------------------------------
Pair    | 13.419     | 13.419     | 13.419     |   0.0 | 97.70
Neigh   | 0          | 0          | 0          |   0.0 |  0.00
Comm    | 0.10876    | 0.10876    | 0.10876    |   0.0 |  0.79
Output  | 0.0090306  | 0.0090306  | 0.0090306  |   0.0 |  0.07
Modify  | 0.12319    | 0.12319    | 0.12319    |   0.0 |  0.90
Other   |            | 0.07528    |            |       |  0.55

Nlocal:        880.000 ave         880 max         880 min
Histogram: 1 0 0 0 0 0 0 0 0 0
Nghost:        1518.00 ave        1518 max        1518 min
Histogram: 1 0 0 0 0 0 0 0 0 0
Neighs:         0.00000 ave           0 max           0 min
Histogram: 1 0 0 0 0 0 0 0 0 0
FullNghs:      15840.0 ave       15840 max       15840 min
Histogram: 1 0 0 0 0 0 0 0 0 0

Total # of neighbors = 15840
Ave neighs/atom = 18.000000
Neighbor list builds = 0
Dangerous builds = 0
Total wall time: 0:00:13
