LAMMPS (23 Sep 2013)
# 3D simple cubic lattice simulation
dimension   2
boundary    p f p

units		   lj
atom_style	bond
atom_modify sort 0 1.
bond_style  harmonic
pair_style  none
communicate single cutoff 2.0

# geometry
read_data	data.pos
  2 = max bonds/atom
  orthogonal box = (0 0 0) to (64 1 1)
  1 by 1 by 1 MPI processor grid
  64 atoms
  64 bonds
  2 = max # of 1-2 neighbors
  2 = max # of 1-3 neighbors
  4 = max # of 1-4 neighbors
  6 = max # of special neighbors

#
neighbor 1.0 nsq
neigh_modify  delay 0 check no

#Langevin random seed
variable r equal 571101

#Langevin Temperature
variable t equal 0.005

# Langevin Damping variable
variable d equal 0.5

# Create velocities and equilibrate
compute   MyTemp all temp/partial 1 0 0
velocity  all create $t 28711 mom yes rot yes dist gaussian temp MyTemp
velocity  all create 0.0050000000000000001041 28711 mom yes rot yes dist gaussian temp MyTemp
velocity  all set NULL 0.0 0.0 units box
#
fix        1 all langevin $t $t $d $r
fix        1 all langevin 0.0050000000000000001041 $t $d $r
fix        1 all langevin 0.0050000000000000001041 0.0050000000000000001041 $d $r
fix        1 all langevin 0.0050000000000000001041 0.0050000000000000001041 0.5 $r
fix        1 all langevin 0.0050000000000000001041 0.0050000000000000001041 0.5 571101
fix_modify 1 temp MyTemp
fix        2 all setforce NULL 0. 0.
fix        3 all nve
fix        4 all phonon 10 50000 500000 map.in phonon sysdim 1
fix_modify 4 temp MyTemp

#                    1    2    3  4
thermo_style  custom step temp pe etotal
thermo_modify temp MyTemp
thermo   100

#
run 		 2000000
Memory usage per processor = 2.01061 Mbytes
Step Temp PotEng TotEng 
       0        0.005            0  0.002421875 
     100 0.0044233185 0.00069227571 0.0028348206 
     200 0.0051557212 0.0012425996  0.003739902 
     300  0.004357315 0.0012750554 0.0033856298 
     400 0.0048269093 0.0014376622 0.0037756964 
     500 0.0047025425 0.0016352541 0.0039130482 
     600 0.0054651713 0.0016709504 0.0043181428 
     700 0.0053552729 0.0018353947 0.0044293551 
     800  0.005954909 0.0019755263 0.0048599354 
     900 0.0042057592 0.0023020508 0.0043392155 
    1000 0.0057669621 0.0025897902 0.0053831625 
    1100 0.0040680049 0.0026989519 0.0046693918 
    1200 0.0046829459 0.0024368094 0.0047051113 
    1300 0.0044905385 0.0024665322 0.0046416368 
    1400 0.0074275036 0.0018704053 0.0054681024 
    1500 0.0052733986 0.0017110596 0.0042653621 
    1600 0.0045302499 0.0017525366 0.0039468764 
    1700 0.0055159362  0.002127395 0.0047991766 
    1800 0.0051833134 0.0024402092 0.0049508766 
    1900 0.0052803653 0.0024879535 0.0050456305 
    2000 0.0056694273 0.0023283837 0.0050745125 
    2100 0.0057566849 0.0021451166 0.0049335108 
    2200   0.00386807 0.0021520647 0.0040256611 
    2300 0.0058041566 0.0023206647 0.0051320531 
    2400 0.0049628786 0.0021353417  0.004539236 
    2500 0.0047613146 0.0019441945 0.0042504562 
    2600 0.0040749997  0.002513164  0.004486992 
    2700 0.0058050329 0.0028770553 0.0056888682 
    2800 0.0047471027 0.0030253369 0.0053247148 
    2900 0.0052674274 0.0019963239  0.004547734 
    3000 0.0070755768 0.0012651894 0.0046924219 
    3100  0.004904144  0.001906362 0.0042818068 
    3200 0.0046180231 0.0022520542 0.0044889091 
    3300 0.0047402454 0.0022380719 0.0045341283 
    3400  0.004526243 0.0019165088 0.0041089077 
    3500 0.0040109678 0.0018036815  0.003746494 
    3600 0.0046845845 0.0022599412 0.0045290368 
    3700 0.0045085962 0.0024312547 0.0046151059 
    3800  0.005224178  0.002911252 0.0054417132 
    3900 0.0062560876   0.00261489 0.0056451824 
    4000 0.0062177588 0.0026008254 0.0056125523 
    4100 0.0065797211 0.0026930138 0.0058800662 
    4200 0.0066811803 0.0023916324 0.0056278291 
    4300 0.0062371547 0.0022726451 0.0052937669 
    4400 0.0059163392 0.0022861682  0.005151895 
    4500 0.0062722067 0.0026254197 0.0056635198 
    4600 0.0040357278 0.0030401402 0.0049949458 
    4700  0.004112287 0.0028318222 0.0048237112 
    4800 0.0049222174 0.0026333499 0.0050175489 
    4900 0.0053288359 0.0023349026 0.0049160575 
    5000 0.0052122846 0.0020219366 0.0045466369 
    5100 0.0058812614 0.0021999893 0.0050487252 
    5200 0.0051967264 0.0018998782 0.0044170426 
    5300  0.005879625 0.0019625602 0.0048105036 
    5400 0.0059624731 0.0021443126 0.0050323855 
    5500 0.0059591574 0.0023506099 0.0052370768 
    5600  0.003079608 0.0029662562 0.0044579413 
    5700 0.0056499809 0.0030961313 0.0058328408 
    5800  0.004573757 0.0024716554  0.004687069 
    5900 0.0061564453 0.0021550869 0.0051371151 
    6000 0.0075508592 0.0021537409 0.0058111883 
    6100 0.0063879372 0.0024185024 0.0055126595 
    6200 0.0041526115 0.0027590092 0.0047704304 
    6300 0.0053061863 0.0025648127 0.0051349967 
    6400  0.006060304 0.0027159393 0.0056513991 
    6500 0.0056452086 0.0030946398 0.0058290377 
    6600 0.0041209765 0.0033636656 0.0053597636 
    6700 0.0045845779 0.0028218743 0.0050425293 
    6800 0.0059546759 0.0023227413 0.0052070374 
    6900 0.0040117754 0.0023341431 0.0042773468 
    7000 0.0042824332 0.0023350167 0.0044093203 
    7100 0.0055815793 0.0020343862 0.0047379636 
    7200 0.0047361478 0.0021430515 0.0044371231 
    7300 0.0046591248 0.0021899851 0.0044467487 
    7400 0.0055490678 0.0024363348 0.0051241645 
    7500 0.0062602828 0.0022183901 0.0052507145 
    7600 0.0071038558 0.0023618503 0.0058027804 
    7700 0.0049840045 0.0028164024 0.0052305296 
    7800 0.0060742119 0.0028555113 0.0057977076 
    7900 0.0057662888 0.0026868797 0.0054799259 
    8000 0.0055472766 0.0026213197 0.0053082818 
    8100 0.0061220787 0.0024665333 0.0054319151 
    8200 0.0035301258 0.0022766722 0.0039865769 
    8300 0.0047057949 0.0020748339 0.0043542033 
    8400 0.0056584891 0.0025104488 0.0052512795 
    8500 0.0052931944 0.0031335003 0.0056973914 
    8600  0.006813214 0.0031081279 0.0064082784 
    8700 0.0057000798 0.0031294549 0.0058904311 
    8800 0.0063988595 0.0029939656 0.0060934132 
    8900 0.0050809819 0.0033860223 0.0058471229 
    9000 0.0058880586 0.0027651879 0.0056172163 
    9100 0.0051273933 0.0025437215 0.0050273027 
    9200 0.0043046349 0.0024518668 0.0045369243 
    9300  0.006666349 0.0021761986 0.0054052113 
    9400 0.0047012258 0.0027272975 0.0050044538 
    9500 0.0051760716 0.0035739909 0.0060811506 
    9600 0.0057728292 0.0032402839  0.006036498 
    9700 0.0055216035 0.0027984706 0.0054729973 
    9800  0.004703682 0.0029933541 0.0052717001 
    9900 0.0041593147 0.0030192883 0.0050339564 
   10000 0.0046929175 0.0027902403 0.0050633722 
   10100 0.0055668751 0.0024845169  0.005180972 
   10200 0.0037097247 0.0027718476 0.0045687455 
   10300 0.0059339557 0.0024143878 0.0052886476 
   10400 0.0062305492 0.0023004427 0.0053183649 
   10500  0.006469886 0.0023585975 0.0054924485 
   10600  0.005657095 0.0024652988 0.0052054542 
   10700 0.0045489624 0.0022108292 0.0044142329 
   10800 0.0039137671 0.0021290713 0.0040248023 
   10900 0.0060584769 0.0014383624 0.0043729371 
   11000 0.0047773964 0.0017109606 0.0040250119 
   11100 0.0049103899 0.0022149005 0.0045933706 
   11200 0.0046635517 0.0023331593 0.0045920672 
   11300 0.0058616014 0.0023070819 0.0051462951 
   11400 0.0058097494 0.0021263416 0.0049404389 
   11500 0.0042942986 0.0014448672  0.003524918 
   11600 0.0040720183 0.0016123951 0.0035847789 
   11700 0.0053356245 0.0021014328 0.0046858759 
   11800  0.004687293 0.0021548492 0.0044252567 
   11900 0.0063532628 0.0019672104  0.005044572 
   12000 0.0043395406 0.0022585224 0.0043604874 
   12100 0.0053231095 0.0021427925 0.0047211737 
   12200 0.0048807984 0.0020771697 0.0044413064 
   12300  0.005499659 0.0021925484 0.0048564457 
   12400  0.005787679 0.0024101225 0.0052135295 
   12500 0.0040004679 0.0025784294 0.0045161561 
   12600 0.0058999596 0.0023774445 0.0052352374 
   12700 0.0051056486 0.0021385748 0.0046116234 
   12800 0.0047215983  0.002353936 0.0046409602 
   12900 0.0041353898 0.0026153486 0.0046184281 
   13000 0.0051901137 0.0025926707 0.0051066321 
   13100 0.0060193473 0.0023755093 0.0052911307 
   13200  0.005107327 0.0027866382 0.0052604997 
   13300 0.0047592681 0.0028306117 0.0051358822 
   13400 0.0061681377  0.002657851 0.0056455427 
   13500 0.0072085778 0.0028599475 0.0063516024 
   13600 0.0050179552 0.0027511364 0.0051817084 
   13700 0.0059074923 0.0022787841 0.0051402257 
   13800 0.0051721231 0.0023292898 0.0048345369 
   13900 0.0056939157 0.0020847768 0.0048427673 
   14000 0.0049202318 0.0020644018 0.0044476391 
   14100 0.0040767722 0.0020900385  0.004064725 
   14200 0.0060941803 0.0018489783 0.0048008469 
   14300 0.0054383001 0.0020061738 0.0046403505 
   14400 0.0053425018 0.0021812163 0.0047689906 
   14500 0.0058368713 0.0024358519 0.0052630865 
   14600 0.0054571894 0.0023154743 0.0049588004 
   14700 0.0056178837 0.0023659893 0.0050871518 
   14800 0.0064882962 0.0020825205 0.0052252889 
   14900  0.005756471 0.0021430626 0.0049313532 
   15000 0.0046968536 0.0026066542 0.0048816927 
   15100  0.004720725 0.0032852489 0.0055718501 
   15200 0.0041348554 0.0029406617 0.0049434823 
   15300 0.0066270017 0.0024823417 0.0056922957 
   15400 0.0062516894 0.0023389147 0.0053670767 
   15500 0.0063330891 0.0025187531 0.0055863432 
   15600 0.0037977587 0.0029118772 0.0047514165 
   15700 0.0060562637 0.0031529593  0.006086462 
   15800 0.0043590131 0.0042309954 0.0063423924 
   15900 0.0054996632 0.0039737454 0.0066376448 
   16000 0.0041029463 0.0027442708 0.0047316355 
   16100 0.0042593335   0.00241485 0.0044779647 
   16200 0.0042988081 0.0023259836 0.0044082188 
   16300 0.0041297023 0.0022021148 0.0042024394 
   16400 0.0061941988 0.0022393604 0.0052396755 
   16500 0.0048353816  0.002554023 0.0048961609 
   16600 0.0038443719 0.0027341543 0.0045962719 
   16700 0.0061213827 0.0026077704 0.0055728152 
   16800 0.0047782061 0.0025470655 0.0048615091 
   16900 0.0039175995 0.0029583529 0.0048559402 
   17000 0.0061051305 0.0026385274    0.0055957 
   17100 0.0068087722 0.0022961877 0.0055941868 
   17200 0.0055006619 0.0019430445 0.0046074277 
   17300 0.0055775768 0.0016768303 0.0043784691 
   17400 0.0046182935 0.0014177136 0.0036546995 
   17500 0.0055841841 0.0017164119 0.0044212511 
   17600 0.0059014797 0.0020151382 0.0048736675 
   17700 0.0050213328 0.0020801248 0.0045123329 
   17800 0.0038746517 0.0018465872 0.0037233716 
   17900 0.0052844911 0.0016009704 0.0041606458 
   18000 0.0035418291 0.0019176939 0.0036332673 
   18100 0.0051249341 0.0021592843 0.0046416743 
   18200 0.0051268243 0.0024105073 0.0048938128 
   18300 0.0044284461 0.0029788146 0.0051238432 
   18400 0.0054172764 0.0033614937  0.005985487 
   18500 0.0049756673 0.0036188793 0.0060289681 
   18600 0.0048959297 0.0029290296 0.0053004956 
   18700 0.0055142947 0.0025621639 0.0052331504 
   18800 0.0051765163 0.0026813913 0.0051887663 
   18900 0.0040512918 0.0032544717 0.0052168162 
   19000 0.0044329832 0.0029897042 0.0051369304 
   19100 0.0046617492 0.0027504707 0.0050085055 
   19200 0.0066856654 0.0029502301 0.0061885992 
   19300  0.005695229 0.0032255642 0.0059841907 
   19400 0.0054773421 0.0030408839 0.0056939715 
   19500 0.0058641449 0.0028107365 0.0056511817 
   19600 0.0051606233 0.0032742325 0.0057739094 
   19700  0.006336015 0.0039769501 0.0070459574 
   19800  0.005961745 0.0038052578 0.0066929781 
   19900 0.0050629494 0.0031771549  0.005629521 
   20000 0.0048692221 0.0031411072 0.0054996367 
   20100 0.0051220625 0.0035425191 0.0060235181 
   20200 0.0059705121 0.0034199888 0.0063119556 
   20300 0.0064367845 0.0037184565  0.006836274 
   20400 0.0035516568 0.0040344529 0.0057547867 
   20500 0.0068050837 0.0032583702 0.0065545826 
   20600 0.0059588791 0.0028310909 0.0057174229 
   20700 0.0043616569 0.0031799688 0.0052926464 
   20800 0.0057048259 0.0033570742 0.0061203492 
   20900 0.0080710352 0.0026310052 0.0065404129 
   21000 0.0059029844 0.0023584706 0.0052177287 
   21100 0.0051953361 0.0027721438 0.0052886347 
   21200 0.0056943428 0.0029476308 0.0057058281 
   21300 0.0049915906 0.0033105902 0.0057283919 
   21400 0.0061267053 0.0026490823 0.0056167052 
   21500 0.0064465952  0.002037581 0.0051601506 
   21600 0.0041680365 0.0025317962 0.0045506889 
   21700 0.0050285899 0.0027899923 0.0052257155 
   21800 0.0054184947 0.0028818109 0.0055063943 
   21900 0.0057267707 0.0030080119 0.0057819164 
   22000 0.0054268504 0.0029637096 0.0055923403 
   22100 0.0067493917 0.0027743804  0.006043617 
   22200 0.0045902214 0.0027471146 0.0049705031 
   22300 0.0059222982 0.0031696808  0.006038294 
   22400 0.0048914946 0.0035294815 0.0058987992 
   22500 0.0040811307 0.0031259245 0.0051027222 
   22600 0.0055866271 0.0029409967 0.0056470192 
   22700 0.0036328459 0.0028084271 0.0045680868 
   22800 0.0051276977 0.0028518928 0.0053356213 
   22900 0.0051798654 0.0031764952 0.0056854925 
   23000 0.0063744515 0.0033434283 0.0064310533 
   23100 0.0060796668 0.0033795647 0.0063244033 
   23200 0.0069620292 0.0038535022 0.0072257351 
   23300   0.00545905 0.0040805422 0.0067247696 
   23400 0.0039613172 0.0037091454 0.0056279085 
   23500 0.0044549281 0.0033245481 0.0054824039 
   23600 0.0054469272 0.0030351464 0.0056735018 
   23700 0.0050671251 0.0033868405 0.0058412292 
   23800 0.0056075201 0.0035940982 0.0063102407 
   23900 0.0061485936 0.0035529151 0.0065311401 
   24000 0.0053796477  0.003261894 0.0058676608 
   24100   0.00472662 0.0022780761 0.0045675327 
   24200  0.004909189 0.0021154602 0.0044933486 
   24300 0.0046818374 0.0026013054 0.0048690704 
   24400 0.0056878596 0.0026242394 0.0053792964 
   24500 0.0049548837 0.0023025163 0.0047025381 
   24600 0.0058855025 0.0020313353 0.0048821255 
   24700 0.0057197921  0.001865509 0.0046360333 
   24800 0.0045906296 0.0018954295 0.0041190156 
   24900 0.0053914928 0.0018988531 0.0045103574 
   25000 0.0052923355 0.0019126127 0.0044760877 
   25100 0.0055086636 0.0022551009 0.0049233598 
   25200 0.0050354993 0.0025207667 0.0049598366 
   25300 0.0062771114  0.002689693 0.0057301688 
   25400 0.0051407684 0.0026353614 0.0051254211 
   25500 0.0049473786  0.002035293 0.0044316795 
   25600 0.0049497931 0.0017289305 0.0041264865 
   25700 0.0038828638 0.0017067677 0.0035875299 
   25800 0.0041032253 0.0016555139 0.0036430136 
   25900 0.0043960907 0.0019220131 0.0040513695 
   26000 0.0054947112 0.0019971585 0.0046586592 
   26100 0.0050400022 0.0025193504 0.0049606015 
   26200 0.0057018652 0.0025971986 0.0053590396 
   26300  0.005011558 0.0026140868 0.0050415602 
   26400 0.0054824751 0.0030303377 0.0056859116 
   26500 0.0046574698 0.0032112751 0.0054672371 
   26600 0.0049652224 0.0034011085 0.0058061381 
   26700 0.0061257817 0.0030244937 0.0059916692 
   26800  0.005980876 0.0023447196 0.0052417064 
   26900 0.0060087308 0.0021342555 0.0050447345 
   27000 0.0048195443 0.0022132999 0.0045477667 
   27100 0.0046801222 0.0022269075 0.0044938417 
   27200 0.0048517121 0.0018881337 0.0042381817 
   27300 0.0049279497 0.0019983652 0.0043853408 
   27400 0.0056404921 0.0022896346  0.005021748 
   27500 0.0035470369 0.0020012119 0.0037193079 
   27600 0.0046343287 0.0015742386 0.0038189915 
   27700 0.0055773176 0.0020371974 0.0047387107 
   27800 0.0044427908 0.0021849169 0.0043368936 
   27900 0.0060403259 0.0021016061 0.0050273889 
   28000 0.0062634535 0.0020122561 0.0050461164 
   28100 0.0041086235 0.0020061686 0.0039962831 
   28200 0.0057899213 0.0018915964 0.0046960896 
   28300 0.0044324131 0.0016828195 0.0038297696 
   28400 0.0050883025 0.0020824193 0.0045470658 
   28500 0.0049381249 0.0021670207  0.004558925 
   28600 0.0050259897 0.0024610669 0.0048955306 
   28700 0.0049500964 0.0019898824 0.0043875854 
   28800 0.0050759356 0.0020809308 0.0045395871 
   28900 0.0040248015 0.0027204362 0.0046699494 
   29000 0.0047153614 0.0026787292 0.0049627323 
   29100 0.0040957835 0.0024111307 0.0043950258 
   29200 0.0056519885 0.0021787617 0.0049164437 
   29300 0.0047676273 0.0023988021 0.0047081216 
   29400 0.0055401434 0.0021774177 0.0048609246 
   29500 0.0049873906 0.0023485753 0.0047643426 
   29600 0.0044948166 0.0027077998 0.0048849766 
   29700 0.0045424759 0.0030638874 0.0052641492 
   29800 0.0058669608 0.0032529844 0.0060947935 
   29900 0.0048799697 0.0027421848 0.0051059202 
   30000 0.0056811578  0.002309364 0.0050611748 
   30100 0.0047488378 0.0021725318 0.0044727501 
   30200 0.0049144139 0.0019817158 0.0043621351 
   30300 0.0057501213 0.0021028142 0.0048880292 
   30400 0.0042716315 0.0025429944  0.004612066 
   30500 0.0067528421 0.0028193599 0.0060902678 
   30600 0.0057971722 0.0027646877  0.005572693 
   30700 0.0046519658 0.0021713071 0.0044246031 
   30800 0.0062556802 0.0024026847 0.0054327798 
   30900 0.0062369515 0.0028131674 0.0058341908 
   31000 0.0058799256 0.0033815814 0.0062296703 
   31100 0.0056127161 0.0032625824 0.0059812417 
   31200 0.0059713954 0.0032344169 0.0061268115 
   31300 0.0038908456 0.0033710537  0.005255682 
   31400 0.0052843391 0.0023752877 0.0049348894 
   31500 0.0046910063 0.0022372171 0.0045094233 
   31600 0.0055172099 0.0022328649 0.0049052634 
   31700 0.0053802906 0.0023889173 0.0049949955 
   31800 0.0038325771 0.0033449711 0.0052013757 
   31900 0.0037186998 0.0034627943 0.0052640395 
   32000 0.0049583079 0.0033150552 0.0057167356 
   32100 0.0053326022 0.0037481206 0.0063310998 
   32200 0.0057556792 0.0037742283 0.0065621354 
   32300 0.0051391774 0.0033843618 0.0058736509 
   32400  0.006500734 0.0030393375 0.0061881305 
   32500 0.0045531068 0.0030148805 0.0052202916 
   32600 0.0073127557  0.002436045  0.005978161 
   32700 0.0055198561 0.0020534511 0.0047271314 
   32800 0.0046088417 0.0024366817 0.0046690894 
   32900 0.0044566327 0.0025665994 0.0047252809 
   33000    0.0062871 0.0024855066 0.0055308207 
   33100 0.0061567926 0.0029374257 0.0059196221 
   33200 0.0052775834 0.0029602392 0.0055165687 
   33300  0.004685985 0.0026471956 0.0049169696 
   33400 0.0049421143 0.0024079735 0.0048018101 
   33500 0.0051545234 0.0025147584 0.0050114806 
   33600 0.0045488623 0.0025390452 0.0047424003 
   33700 0.0055326329 0.0022224498 0.0049023188 
   33800 0.0052992461 0.0025359157  0.005102738 
   33900 0.0057505741 0.0023395306  0.005124965 
   34000 0.0058652694 0.0023020932 0.0051430831 
   34100 0.0061933253 0.0021174817 0.0051173736 
   34200 0.0046537724 0.0025895065 0.0048436775 
   34300  0.004264356 0.0028746019 0.0049401494 
   34400 0.0042366824 0.0028783879 0.0049305309 
   34500 0.0057063776 0.0022336498 0.0049976764 
   34600  0.005758766 0.0025030016 0.0052924039 
   34700 0.0049833459 0.0027923014 0.0052061095 
   34800 0.0052309003 0.0028121502 0.0053458675 
   34900  0.005864006 0.0025934089 0.0054337868 
   35000 0.0044589164 0.0025795618 0.0047393495 
   35100 0.0033028726 0.0027300683 0.0043298972 
   35200 0.0044310294 0.0026994133 0.0048456932 
   35300 0.0050963569 0.0023707266 0.0048392745 
   35400 0.0039651028 0.0020705618 0.0039911584 
   35500 0.0045984269 0.0021294605 0.0043568236 
   35600 0.0060885016 0.0019210399 0.0048701579 
   35700 0.0051118945 0.0021462282 0.0046223021 
   35800 0.0062500349 0.0022475991 0.0052749598 
   35900 0.0045383142 0.0025734167 0.0047716626 
   36000 0.0046724525 0.0024962743 0.0047594935 
   36100 0.0055275874 0.0026324039  0.005309829 
   36200 0.0035475281 0.0024770701  0.004195404 
   36300  0.004057809 0.0023731267 0.0043386279 
   36400 0.0050400913   0.00202538 0.0044666742 
   36500 0.0045837726  0.002006235 0.0042264998 
   36600 0.0048101942 0.0020225857 0.0043525235 
   36700 0.0051934098 0.0018959513 0.0044115092 
   36800 0.0050127358 0.0020565516 0.0044845955 
   36900 0.0053246432 0.0020928223 0.0046719463 
   37000 0.0053723732 0.0027875044 0.0053897477 
   37100 0.0049468732 0.0031870831 0.0055832248 
   37200  0.006831562 0.0028839943 0.0061930321 
   37300 0.0063607127 0.0026862884 0.0057672587 
   37400 0.0054788572  0.002514145 0.0051679664 
   37500 0.0054031478 0.0026456973  0.005262847 
   37600 0.0039371481 0.0025561282 0.0044631844 
   37700 0.0066068788 0.0020766222 0.0052768291 
   37800 0.0032801454 0.0020764102 0.0036652307 
   37900 0.0041339612 0.0026674868 0.0046698742 
   38000 0.0055823449 0.0032666872 0.0059706355 
   38100  0.005973594 0.0035272518 0.0064207114 
   38200 0.0065961453 0.0031633082 0.0063583161 
   38300 0.0040993355 0.0030945568 0.0050801724 
   38400 0.0056239193 0.0026509411  0.005375027 
   38500 0.0054596641 0.0024468678 0.0050913925 
   38600 0.0047467989 0.0024470794 0.0047463101 
   38700 0.0051589986 0.0024852238 0.0049841137 
   38800 0.0040314269 0.0023425102 0.0042952326 
   38900 0.0055494799 0.0024739439 0.0051619732 
   39000 0.0057123393 0.0029043123 0.0056712266 
   39100  0.004762561 0.0031165168 0.0054233823 
   39200 0.0045190791 0.0034780146 0.0056669435 
   39300 0.0053509933 0.0032816447  0.005873532 
   39400 0.0066184379 0.0027647815 0.0059705874 
   39500  0.004686954 0.0027430682 0.0050133115 
   39600 0.0040613984 0.0027835233 0.0047507631 
   39700   0.00436362 0.0028185692 0.0049321977 
   39800 0.0041818019 0.0026689778 0.0046945381 
   39900 0.0044652386 0.0026446309 0.0048074808 
   40000 0.0043859781 0.0029722398 0.0050966979 
   40100 0.0048911651 0.0035377264 0.0059068845 
   40200 0.0054885033 0.0034219954 0.0060804892 
   40300 0.0048882782  0.003313088 0.0056808478 
   40400 0.0045649906  0.002663118 0.0048742853 
   40500 0.0032042203 0.0025591672 0.0041112114 
   40600 0.0037560453 0.0024499954 0.0042693299 
   40700 0.0050624348 0.0023781604 0.0048302772 
   40800 0.0050378892 0.0028467059 0.0052869335 
   40900 0.0041181479  0.002696186 0.0046909139 
   41000 0.0035577537 0.0024444495 0.0041677365 
   41100 0.0040897334 0.0020456915 0.0040266561 
   41200 0.0061506262 0.0023639004 0.0053431099 
   41300 0.0059776113 0.0025750297 0.0054704352 
   41400   0.00577835 0.0026284328 0.0054273211 
   41500 0.0054837764 0.0029007679 0.0055569721 
   41600 0.0053454726  0.002971531 0.0055607443 
   41700 0.0049686369 0.0028284588 0.0052351423 
   41800 0.0053946647 0.0028582538 0.0054712945 
   41900 0.0062644531 0.0027138489 0.0057481934 
   42000 0.0049638948 0.0025881998 0.0049925863 
   42100 0.0052367551 0.0024496317  0.004986185 
   42200 0.0055528583 0.0021027513 0.0047924171 
   42300 0.0064240321 0.0023581031 0.0054697437 
   42400 0.0048573302 0.0025692651 0.0049220344 
   42500 0.0055153024 0.0025061428 0.0051776174 
   42600 0.0053402657  0.002518657 0.0051053482 
   42700 0.0055903918  0.002742837  0.005450683 
   42800 0.0042357447 0.0025491503 0.0046008391 
   42900 0.0062111691 0.0024254143 0.0054339493 
   43000 0.0058532768 0.0024727352 0.0053079161 
   43100 0.0064674118 0.0021505975 0.0052832501 
   43200 0.0076669666 0.0020239967 0.0057376837 
   43300 0.0059820853 0.0025064513 0.0054040239 
   43400 0.0037967844 0.0028834415 0.0047225089 
   43500 0.0050749536 0.0028538958 0.0053120764 
   43600 0.0048557888 0.0027304777 0.0050825004 
   43700 0.0051716941 0.0030697631 0.0055748024 
   43800 0.0052060302 0.0033859119 0.0059075827 
   43900 0.0057196614 0.0025229604 0.0052934214 
   44000 0.0067206824 0.0018883388 0.0051436693 
   44100 0.0042383267 0.0020011317 0.0040540712 
   44200 0.0053722894 0.0022571199 0.0048593226 
   44300 0.0044275281 0.0025010136 0.0046455975 
   44400 0.0043012685 0.0022262373 0.0043096642 
   44500 0.0061094887 0.0019067784  0.004866062 
   44600 0.0051340212  0.001770822 0.0042576135 
   44700 0.0049228722 0.0019485124 0.0043330286 
   44800 0.0047224749 0.0024206022  0.004708051 
   44900 0.0052923059 0.0025880463  0.005151507 
   45000 0.0064914225 0.0028052885 0.0059495713 
   45100 0.0059607581   0.00259952 0.0054867623 
   45200 0.0047371886 0.0028174016 0.0051119773 
   45300 0.0046126347 0.0030326037 0.0052668486 
   45400 0.0035204206 0.0030079807 0.0047131844 
   45500   0.00494563 0.0027042174 0.0050997569 
   45600 0.0063314331 0.0024492755 0.0055160634 
   45700 0.0061351887 0.0026754165 0.0056471485 
   45800 0.0048941125 0.0024666734 0.0048372591 
   45900 0.0047081916 0.0024228099 0.0047033402 
   46000 0.0049590605 0.0025580479 0.0049600929 
   46100 0.0051945351 0.0020052558 0.0045213587 
   46200 0.0052197173 0.0023940852 0.0049223858 
   46300  0.004827257 0.0022937074   0.00463191 
   46400 0.0044532629 0.0020113079 0.0041683571 
   46500 0.0034159661 0.0022722167 0.0039268253 
   46600 0.0049121478 0.0020406144  0.004419936 
   46700 0.0064815376 0.0019302174 0.0050697122 
   46800 0.0045098648 0.0018962701 0.0040807359 
   46900 0.0062450317 0.0022291702 0.0052541075 
   47000 0.0035127948 0.0024280893 0.0041295993 
   47100  0.006492068 0.0021365674 0.0052811628 
   47200 0.0042201123 0.0022357441  0.004279861 
   47300 0.0063195803 0.0022819849 0.0053430316 
   47400 0.0043423628 0.0024638177 0.0045671497 
   47500 0.0050864859 0.0024792265 0.0049429932 
   47600  0.005518443 0.0024967413 0.0051697371 
   47700 0.0048723978 0.0027333198 0.0050933874 
   47800 0.0053948693 0.0026147393 0.0052278791 
   47900 0.0058932227 0.0024898507 0.0053443804 
   48000 0.0041492471 0.0024426199 0.0044524114 
   48100 0.0059808441 0.0023673784 0.0052643497 
   48200 0.0058362548  0.002247142 0.0050740779 
   48300 0.0040490527 0.0019009578 0.0038622177 
   48400 0.0061822623 0.0017955615 0.0047900947 
   48500 0.0061813661 0.0020093812 0.0050034804 
   48600 0.0053920983 0.0025090577 0.0051208554 
   48700  0.004592587 0.0024533089 0.0046778432 
   48800 0.0050657386 0.0026800425 0.0051337597 
   48900 0.0052137153 0.0028926037  0.005417997 
   49000 0.0037940992  0.002916792 0.0047545588 
   49100 0.0077501956 0.0023703921  0.006124393 
   49200 0.0054885198 0.0023761014 0.0050346032 
   49300 0.0046145502  0.002223878 0.0044590507 
   49400 0.0051217949 0.0019930866  0.004473956 
   49500 0.0057785479 0.0022009466 0.0049999307 
   49600 0.0047012565 0.0023248618 0.0046020329 
   49700 0.0046750482 0.0024799876  0.004744464 
   49800   0.00351766 0.0025689197 0.0042727863 
   49900 0.0051033202 0.0022472872 0.0047192079 
   50000 0.0047317705 0.0022400935 0.0045320448 
   50100 0.0055201845 0.0031067555 0.0057805949 
   50200 0.0069692937 0.0033680673 0.0067438189 
   50300 0.0040680843 0.0031412817   0.00511176 
   50400 0.0058262804 0.0028436797 0.0056657843 
   50500 0.0076287107  0.002556941 0.0062520978 
   50600 0.0050080379 0.0026449193 0.0050706876 
   50700 0.0048428632 0.0024425476 0.0047883095 
   50800 0.0060281456  0.002736442  0.005656325 
   50900 0.0049388392 0.0024590955 0.0048513457 
   51000 0.0050367373 0.0025554771 0.0049951467 
   51100 0.0053142174 0.0027915755 0.0053656495 
   51200 0.0049006094  0.003084364 0.0054580967 
   51300 0.0053791559 0.0028159019 0.0054214306 
   51400 0.0042938503 0.0029417859 0.0050216197 
   51500 0.0043081475 0.0027751418 0.0048619007 
   51600 0.0088102151 0.0023316717 0.0065991196 
   51700 0.0052813802 0.0026402437 0.0051984123 
   51800  0.004604044 0.0023271625 0.0045572463 
   51900 0.0057863468 0.0017470293  0.004549791 
   52000 0.0057661775   0.00183123 0.0046242222 
   52100 0.0061247121 0.0015843677 0.0045510251 
   52200 0.0071722834 0.0017511898 0.0052252645 
   52300 0.0046260782 0.0022794638 0.0045202205 
   52400 0.0048161519 0.0026170508 0.0049498744 
   52500 0.0049589132 0.0025467959 0.0049487695 
   52600 0.0054419295 0.0022110196 0.0048469542 
   52700 0.0042229886  0.001917851 0.0039633611 
   52800 0.0046001197 0.0016801582 0.0039083412 
   52900  0.004914422 0.0018046979 0.0041851211 
   53000 0.0046991263 0.0019851838 0.0042613231 
   53100 0.0042639054 0.0023242775 0.0043896067 
   53200 0.0045067401 0.0025471883 0.0047301406 
   53300 0.0047538542 0.0019830045 0.0042856526 
   53400 0.0047486025 0.0019324063 0.0042325106 
   53500 0.0048083968 0.0017693685 0.0040984357 
   53600 0.0065633193 0.0021607598 0.0053398676 
   53700 0.0041226678 0.0021096217 0.0041065389 
   53800 0.0065666343  0.001859017 0.0050397305 
   53900 0.0043684625 0.0023654451 0.0044814191 
   54000   0.00661965 0.0020896491  0.005296042 
   54100 0.0056617034 0.0024751997 0.0052175873 
   54200 0.0056699902 0.0029135378 0.0056599393 
   54300 0.0065132674  0.002260152 0.0054150159 
   54400 0.0052304147 0.0022743599  0.004807842 
   54500  0.003902541 0.0025482596 0.0044385529 
   54600 0.0042006917 0.0023859112 0.0044206212 
   54700 0.0049002253 0.0017799436 0.0041534902 
   54800 0.0063188116 0.0019720347 0.0050327091 
   54900  0.003883617 0.0027179506 0.0045990776 
   55000 0.0047682205 0.0023564442  0.004666051 
   55100 0.0049795399 0.0022132117 0.0046251763 
   55200 0.0045826496 0.0025256612  0.004745382 
   55300 0.0049672743 0.0024701981 0.0048762216 
   55400 0.0057203318 0.0025342839 0.0053050696 
   55500 0.0063745311 0.0030385825  0.006126246 
   55600 0.0046079574  0.003329151 0.0055611304 
   55700 0.0054436227 0.0029024557 0.0055392104 
   55800 0.0039797603 0.0025810969 0.0045087933 
   55900 0.0048568595 0.0021527815 0.0045053228 
   56000 0.0040275306 0.0022058644 0.0041566995 
   56100 0.0061120989 0.0021592222 0.0051197701 
   56200 0.0057123527 0.0025617635 0.0053286843 
   56300 0.0046194509 0.0025573711 0.0047949177 
   56400 0.0039442485 0.0023640907  0.004274586 
   56500 0.0038660966  0.002758116 0.0046307566 
   56600 0.0032326056 0.0033549076  0.004920701 
   56700 0.0056923409 0.0031221452 0.0058793728 
   56800 0.0060646237 0.0030141178 0.0059516699 
   56900  0.006115688  0.003334233 0.0062965194 
   57000 0.0053874687 0.0029809086 0.0055904638 
   57100 0.0054521391 0.0024928762 0.0051337561 
   57200 0.0031401527  0.002510637 0.0040316484 
   57300 0.0047253215 0.0019448527 0.0042336803 
   57400 0.0057749118 0.0014821744 0.0042793972 
   57500 0.0044322247 0.0015605608 0.0037074196 
   57600 0.0044258001 0.0020299208 0.0041736677 
   57700 0.0075688346 0.0022068043 0.0058729586 
   57800 0.0045678533 0.0022477979 0.0044603519 
   57900 0.0058210499 0.0021932846 0.0050128556 
   58000 0.0039106773 0.0023497057 0.0042439401 
   58100 0.0043659259 0.0023985942 0.0045133396 
   58200 0.0052811537 0.0025796006 0.0051376594 
   58300 0.0060919327 0.0025554362 0.0055062161 
   58400 0.0059583906 0.0024175234 0.0053036189 
   58500 0.0048347897 0.0027857753 0.0051276266 
   58600 0.0047331614 0.0029995955 0.0052922205 
   58700  0.004541713 0.0033203508  0.005520243 
   58800 0.0052809511 0.0030393743  0.005597335 
   58900 0.0042685389  0.002498237 0.0045658106 
   59000 0.0048942191 0.0023499639 0.0047206013 
   59100 0.0045228238 0.0021725498 0.0043632926 
   59200 0.0040432327 0.0020297669 0.0039882077 
   59300 0.0042141076 0.0021916311 0.0042328394 
   59400 0.0049196661 0.0023702708 0.0047532341 
   59500 0.0041507688 0.0026243121 0.0046348407 
   59600 0.0036895214 0.0023204866 0.0041075985 
   59700 0.0053414352 0.0022056775 0.0047929352 
   59800 0.0060050644 0.0021506186 0.0050593216 
   59900  0.005024536  0.002515958 0.0049497177 
   60000 0.0052421833 0.0025078435  0.005047026 
   60100 0.0035915521 0.0023423059 0.0040819639 
   60200 0.0051291229 0.0019083665 0.0043927854 
   60300 0.0043115937 0.0018644636 0.0039528917 
   60400 0.0045119236 0.0021517262 0.0043371892 
   60500 0.0046815212 0.0021488682   0.00441648 
   60600 0.0048052376 0.0020429475 0.0043704844 
   60700 0.0050119835 0.0023182045  0.004745884 
   60800 0.0049760362 0.0019843876 0.0043946551 
   60900 0.0045491831 0.0020072164  0.004210727 
   61000 0.0041761499 0.0021053473 0.0041281699 
   61100 0.0065150362 0.0017252353  0.004880956 
   61200 0.0065141561 0.0022325099 0.0053878042 
   61300 0.0046754362 0.0023997879 0.0046644523 
   61400 0.0055955869 0.0025219758 0.0052323382 
   61500 0.0059363172 0.0024926639 0.0053680675 
   61600 0.0059652198  0.002390112 0.0052795153 
   61700 0.0052771229 0.0026384214 0.0051945278 
   61800 0.0053741127 0.0027089185 0.0053120043 
   61900  0.004194665 0.0025417051  0.004573496 
   62000 0.0055512641 0.0022903635 0.0049792571 
   62100 0.0036711721  0.002286762  0.004064986 
   62200 0.0051575367 0.0022098016 0.0047079834 
   62300 0.0063992682 0.0026185075 0.0057181531 
   62400 0.0048267437 0.0034547814 0.0057927354 
   62500 0.0052452969 0.0030296057 0.0055702964 
   62600 0.0055306378 0.0026198443  0.005298747 
   62700 0.0061692352  0.002705465 0.0056936883 
   62800 0.0039775361 0.0025686951 0.0044953142 
   62900 0.0050395494 0.0027264043 0.0051674361 
   63000 0.0042250592 0.0026460156 0.0046925287 
   63100 0.0069409293  0.002427531 0.0057895437 
   63200 0.0040096476 0.0028749921 0.0048171651 
   63300 0.0042946451 0.0029661691 0.0050463878 
   63400 0.0051014173 0.0027802312 0.0052512302 
   63500 0.0056054677 0.0028154461 0.0055305945 
   63600 0.0052449525 0.0028559522  0.005396476 
   63700 0.0033595984 0.0026309727 0.0042582782 
   63800 0.0047839734 0.0023940687 0.0047113058 
   63900 0.0044410395 0.0021801679 0.0043312964 
   64000 0.0055577161 0.0027829926 0.0054750113 
   64100  0.004048642 0.0028515993 0.0048126603 
   64200 0.0044841913 0.0026711683 0.0048431985 
   64300 0.0047136338 0.0022843925 0.0045675589 
   64400 0.0049709033 0.0025534181 0.0049611994 
   64500 0.0047805405 0.0030334391 0.0053490134 
   64600 0.0057422735 0.0036739468 0.0064553605 
   64700 0.0061023866 0.0037429091 0.0066987526 
   64800 0.0048404033 0.0031406146 0.0054851849 
   64900 0.0040186357 0.0031754299 0.0051219566 
   65000 0.0057484996 0.0026695165  0.005453946 
   65100  0.006219253 0.0025334997 0.0055459503 
   65200 0.0047424095 0.0027193037 0.0050164083 
   65300 0.0053205035 0.0026214206 0.0051985395 
   65400 0.0043465598 0.0028623895 0.0049677544 
   65500 0.0038907909 0.0032448815 0.0051294834 
   65600 0.0048670438 0.0025113118 0.0048687861 
   65700 0.0073689169 0.0020844691 0.0056537882 
   65800 0.0039196302 0.0026456796 0.0045442505 
   65900 0.0055500851 0.0030361829 0.0057245054 
   66000 0.0045567352 0.0034902943  0.005697463 
   66100 0.0074516027 0.0033760203 0.0069853903 
   66200 0.0065781665 0.0030425231 0.0062288225 
   66300  0.004619924 0.0029103623  0.005148138 
   66400 0.0040646631  0.002963337 0.0049321583 
   66500 0.0045000401 0.0028953359 0.0050750429 
   66600 0.0051483879 0.0031211333 0.0056148837 
   66700 0.0040349733 0.0031688416 0.0051232818 
   66800 0.0048868605  0.003276955 0.0056440281 
   66900 0.0067859836 0.0035137595 0.0068007203 
   67000 0.0058265386 0.0034412575 0.0062634871 
   67100 0.0052633353 0.0034055609 0.0059549889 
   67200 0.0064284956 0.0032394384 0.0063532409 
   67300 0.0027000434 0.0035506332 0.0048584668 
   67400 0.0050159624 0.0028996921 0.0053292989 
   67500 0.0049480369 0.0020429813 0.0044396867 
   67600 0.0054561308 0.0018739843 0.0045167977 
   67700 0.0051401736  0.002447023 0.0049367946 
   67800 0.0054504276 0.0025875138 0.0052275646 
   67900 0.0049973108 0.0027785558 0.0051991283 
   68000 0.0046135151 0.0025744134 0.0048090847 
   68100 0.0058902686 0.0025091051 0.0053622039 
   68200  0.006525741   0.00277525 0.0059361558 
   68300 0.0062333605  0.003294486 0.0063137701 
   68400 0.0038789664 0.0031190984 0.0049979727 
   68500  0.006344903 0.0027980168 0.0058713292 
   68600 0.0059552753 0.0029377461 0.0058223326 
   68700  0.006534808 0.0024723211 0.0056376187 
   68800 0.0049830423 0.0026495847 0.0050632458 
   68900 0.0055194895 0.0026376665 0.0053111693 
   69000  0.005248464 0.0027441409 0.0052863656 
   69100   0.00610038 0.0025242272 0.0054790988 
   69200 0.0056081198  0.002615829  0.005332262 
   69300 0.0046932551 0.0031978213 0.0054711167 
   69400 0.0044797368 0.0033121118 0.0054819843 
   69500 0.0040834073 0.0027978938 0.0047757942 
   69600 0.0046264427 0.0024383867 0.0046793199 
   69700 0.0057525135 0.0024217076 0.0052080813 
   69800 0.0035937948 0.0030663858 0.0048071302 
   69900 0.0063268299 0.0031536224 0.0062181806 
   70000 0.0050163574 0.0031688775 0.0055986757 
   70100 0.0065569871 0.0026073082 0.0057833488 
   70200  0.006758981 0.0028884486   0.00616233 
   70300 0.0052551484 0.0029803949 0.0055258574 
   70400 0.0039765128 0.0021870199 0.0041131433 
   70500 0.0033767572 0.0022690098 0.0039046266 
   70600 0.0043322512 0.0028274575 0.0049258917 
   70700 0.0039618499 0.0026013424 0.0045203635 
   70800 0.0046505746  0.002561616 0.0048142381 
   70900 0.0049752977 0.0027637395 0.0051736494 
   71000  0.006268218 0.0025706371 0.0056068052 
   71100 0.0050346124 0.0027204481 0.0051590885 
   71200 0.0037601067 0.0027686558 0.0045899575 
   71300 0.0035681459 0.0023250873 0.0040534079 
   71400 0.0060254663  0.001740141 0.0046587262 
   71500 0.0050622254 0.0022541539 0.0047061694 
   71600 0.0048347187 0.0022714046 0.0046132215 
   71700 0.0055556574 0.0023434464  0.005034468 
   71800 0.0053445551 0.0027155957 0.0053043646 
   71900 0.0079132467 0.0027812266 0.0066142054 
   72000 0.0054146716 0.0027339743 0.0053567058 
   72100 0.0047148006 0.0025977096 0.0048814412 
   72200 0.0050282558 0.0021100138 0.0045455752 
   72300 0.0062543109 0.0019785708 0.0050080026 
   72400 0.0072896671 0.0020219907 0.0055529232 
   72500 0.0046146006 0.0024291039 0.0046643011 
   72600 0.0069708546 0.0022660823   0.00564259 
   72700 0.0054515937 0.0025579627 0.0051985784 
   72800 0.0046026466 0.0027741876 0.0050035946 
   72900 0.0064497579 0.0030699937 0.0061940952 
   73000 0.0039078342 0.0030667562 0.0049596133 
   73100   0.00561605 0.0027168376 0.0054371118 
   73200 0.0068059247 0.0029699092  0.006266529 
   73300  0.005497213 0.0028514874 0.0055141999 
   73400 0.0049823935 0.0028217111  0.005235058 
   73500 0.0057119756 0.0024973709 0.0052641091 
   73600 0.0046997505 0.0020906123 0.0043670539 
   73700 0.0050232687 0.0020640359 0.0044971816 
   73800 0.0041944443 0.0022356183 0.0042673022 
   73900 0.0045972572 0.0023048966  0.004531693 
   74000 0.0047054619 0.0019601751 0.0042393832 
   74100 0.0042026724 0.0022902352 0.0043259047 
   74200 0.0059282033 0.0025191425 0.0053906159 
   74300  0.005877514 0.0029029143 0.0057498351 
   74400 0.0069952655 0.0034254568 0.0068137885 
   74500 0.0070912842 0.0039348173 0.0073696581 
   74600 0.0050307689 0.0036515215 0.0060883002 
   74700 0.0047360866 0.0033218963 0.0056159383 
   74800 0.0053356726 0.0036256723 0.0062101387 
   74900  0.006863753 0.0031790434 0.0065036738 
   75000  0.005580115 0.0027386146 0.0054414829 
   75100 0.0078636186 0.0026344761 0.0064434164 
   75200 0.0040973716 0.0025574235 0.0045420879 
   75300 0.0054074111 0.0026065051 0.0052257198 
   75400  0.005254965 0.0028002385 0.0053456122 
   75500 0.0044720107 0.0028930439 0.0050591741 
   75600 0.0060863331 0.0026520671 0.0056001347 
   75700 0.0066099709 0.0027123812 0.0059140858 
   75800 0.0038365247 0.0024724153 0.0043307319 
   75900  0.005075693 0.0025125634 0.0049711022 
   76000 0.0054433305 0.0026148583 0.0052514715 
   76100 0.0051580329 0.0029510855 0.0054495077 
   76200 0.0057161531 0.0026737724 0.0054425341 
   76300 0.0043657759 0.0027971583  0.004911831 
   76400 0.0034616864 0.0026831546 0.0043599089 
   76500  0.004966147 0.0021238462 0.0045293237 
   76600 0.0051730714 0.0018829864 0.0043886929 
   76700 0.0044397151 0.0020428068 0.0041932937 
   76800 0.0039450716 0.0022134128 0.0041243069 
   76900 0.0036250139 0.0021532973 0.0039091634 
   77000 0.0040164772 0.0024830857 0.0044285669 
   77100 0.0046688773   0.00263704 0.0048985274 
   77200 0.0064065334 0.0021917237 0.0052948883 
   77300 0.0058595336 0.0020535165  0.004891728 
   77400 0.0048718733  0.002122692 0.0044825057 
   77500 0.0060504111 0.0023263985 0.0052570664 
   77600 0.0065032321 0.0024305826 0.0055805856 
   77700 0.0056393474  0.002711323 0.0054428819 
   77800 0.0030755162  0.002956813 0.0044465161 
   77900 0.0057298975 0.0021610632 0.0049364823 
   78000 0.0045418424  0.002100903 0.0043008579 
   78100 0.0049140678 0.0019305455 0.0043107971 
   78200 0.0041294307 0.0020458946 0.0040460875 
   78300 0.0052952164 0.0023708202 0.0049356906 
   78400  0.004457679 0.0026233814 0.0047825697 
   78500 0.0070009253 0.0021412988  0.005532372 
   78600 0.0061236104 0.0023672944 0.0053334182 
   78700 0.0053717833 0.0025820229 0.0051839805 
   78800 0.0060639382 0.0021566479  0.005093868 
   78900 0.0041250294 0.0021847706 0.0041828317 
   79000  0.005706545  0.002315735 0.0050798427 
   79100 0.0042556826 0.0024410485 0.0045023948 
   79200 0.0059974474 0.0021755407 0.0050805543 
   79300 0.0055114287 0.0020889466 0.0047585449 
   79400 0.0055983464 0.0021016464 0.0048133455 
   79500 0.0082437534 0.0021285658 0.0061216339 
   79600 0.0050465926 0.0021368629 0.0045813062 
   79700 0.0069452511 0.0018334751 0.0051975811 
   79800 0.0056488933 0.0024177836 0.0051539663 
   79900 0.0052280726 0.0030449064 0.0055772541 
   80000 0.0041110439 0.0032288172 0.0052201041 
   80100 0.0057369848   0.00272939  0.005508242 
   80200 0.0053777867 0.0028405433 0.0054454087 
   80300 0.0046586072   0.00315523 0.0054117429 
   80400 0.0051137896 0.0029395986 0.0054165905 
   80500 0.0059399739 0.0029858116 0.0058629865 
   80600 0.0048061983 0.0032012276 0.0055292299 
   80700 0.0051087799 0.0028180944 0.0052926596 
   80800 0.0048093725 0.0027996258 0.0051291657 
   80900 0.0049792769 0.0020527068  0.004464544 
   81000 0.0049096707 0.0024235204 0.0048016421 
   81100 0.0059262559 0.0025178365 0.0053883667 
   81200 0.0051276429 0.0027750924 0.0052587944 
   81300 0.0054372475 0.0028985058 0.0055321726 
   81400 0.0057780692 0.0025358419 0.0053345942 
   81500 0.0041024598 0.0028027443 0.0047898733 
   81600 0.0045601815 0.0025630314 0.0047718693 
   81700 0.0063894925 0.0021932971 0.0052882075 
   81800 0.0064732463 0.0018812447 0.0050167234 
   81900 0.0066474483 0.0017587537 0.0049786115 
   82000  0.004917615  0.001924415 0.0043063847 
   82100  0.004489754 0.0019222251 0.0040969497 
   82200 0.0056075768 0.0025398812 0.0052560512 
   82300 0.0059249982 0.0026874967 0.0055574177 
   82400 0.0048363982 0.0023776424 0.0047202728 
   82500 0.0052834032 0.0026662934 0.0052254418 
   82600 0.0057631869 0.0029563341 0.0057478778 
   82700 0.0050851893 0.0030043059 0.0054674445 
   82800 0.0041206627 0.0034284014 0.0054243474 
   82900 0.0035620119 0.0030847655  0.004810115 
   83000 0.0041407295 0.0029260086 0.0049316745 
   83100 0.0054412358 0.0030196489 0.0056552475 
   83200  0.004583473 0.0032571778 0.0054772976 
   83300 0.0055113619 0.0023589494 0.0050285153 
   83400 0.0069174692 0.0017824873 0.0051331364 
   83500 0.0061866193 0.0016827484 0.0046793921 
   83600  0.004353602 0.0019381363 0.0040469122 
   83700 0.0050190239 0.0018789372 0.0043100269 
   83800 0.0041536901 0.0021615758 0.0041735194 
   83900 0.0059183519 0.0021545118 0.0050212134 
   84000 0.0037340364 0.0024722566 0.0042809305 
   84100 0.0050033916 0.0026976825 0.0051212003 
   84200 0.0048944916 0.0024718609 0.0048426303 
   84300 0.0042001892 0.0021077311 0.0041421977 
   84400 0.0049456355 0.0015073227 0.0039028649 
   84500 0.0044720662  0.001611771 0.0037779281 
   84600 0.0052346177 0.0015177681  0.004053286 
   84700 0.0045013366 0.0017618261  0.003942161 
   84800 0.0049107432 0.0013961452 0.0037747864 
   84900 0.0043488879 0.0013498269 0.0034563195 
   85000 0.0064998215 0.0020456528 0.0051940038 
   85100 0.0048853371 0.0021624427 0.0045287779 
   85200 0.0045485871 0.0018881244 0.0040913463 
   85300 0.0050653798 0.0020477097 0.0045012531 
   85400 0.0049699322 0.0023741228 0.0047814337 
   85500 0.0045490788 0.0023015527 0.0045050128 
   85600 0.0060800789 0.0020008583 0.0049458965 
   85700 0.0059808413 0.0020764162 0.0049733862 
   85800 0.0052986641 0.0021173971 0.0046839375 
   85900 0.0057675585 0.0019953221 0.0047889832 
   86000 0.0039523946 0.0022732048 0.0041876459 
   86100 0.0050423764 0.0026499257 0.0050923268 
   86200  0.003318581 0.0023325784 0.0039400161 
   86300 0.0059300665 0.0019402382 0.0048126141 
   86400 0.0070320099  0.001944154 0.0053502838 
   86500 0.0052833995 0.0024706684 0.0050298151 
   86600 0.0055891057 0.0025374932 0.0052447163 
   86700 0.0057373949 0.0022411441 0.0050201947 
   86800 0.0056764233 0.0021929884 0.0049425059 
   86900  0.004803751 0.0021964892 0.0045233061 
   87000 0.0052359699 0.0020543494 0.0045905223 
   87100 0.0046570125  0.001713431 0.0039691714 
   87200 0.0051248727  0.001336361 0.0038187212 
   87300 0.0047000868 0.0015192696 0.0037958742 
   87400  0.004118889 0.0015514147 0.0035465016 
   87500  0.005870272  0.001753756  0.004597169 
   87600 0.0044572848 0.0018585281 0.0040175254 
   87700 0.0041683219 0.0016429101 0.0036619411 
   87800 0.0058514031 0.0019633765 0.0047976499 
   87900 0.0061125854 0.0022856206 0.0052464042 
   88000 0.0066943363 0.0021441552 0.0053867243 
   88100 0.0039254348  0.002316744 0.0042181265 
   88200 0.0068588709 0.0024739218 0.0057961873 
   88300 0.0069057205  0.002288677 0.0056336354 
   88400 0.0054266107 0.0022548597 0.0048833742 
   88500 0.0052064282 0.0020090861 0.0045309498 
   88600 0.0052768536 0.0019089121 0.0044648881 
   88700 0.0042445073 0.0021549179 0.0042108511 
   88800 0.0062812522  0.001799475 0.0048419565 
   88900 0.0059142482 0.0018745193 0.0047392332 
   89000 0.0043694972 0.0019744394 0.0040909146 
   89100 0.0052108663 0.0019301472 0.0044541606 
   89200 0.0057143594 0.0021044317 0.0048723246 
   89300 0.0043582991 0.0024466939  0.004557745 
   89400 0.0048023043 0.0020949795 0.0044210957 
   89500  0.004808124 0.0019284386 0.0042573737 
   89600   0.00476397  0.001930445 0.0042379929 
   89700  0.004604502  0.002337612 0.0045679177 
   89800 0.0057879007 0.0022949631 0.0050984775 
   89900 0.0052946831 0.0024925967 0.0050572089 
   90000 0.0055378441 0.0024039415 0.0050863348 
   90100 0.0058684269  0.002880647 0.0057231663 
   90200  0.005552366 0.0032169118 0.0059063391 
   90300 0.0053845858 0.0031744294 0.0057825882 
   90400 0.0075823295   0.00265476 0.0063274508 
   90500  0.006822235 0.0021741833 0.0054787034 
   90600 0.0057406108 0.0018564442 0.0046370525 
   90700 0.0061929261 0.0022094774  0.005209176 
   90800 0.0050952982 0.0023266713 0.0047947064 
   90900 0.0039625948 0.0023297199 0.0042491018 
   91000 0.0063407759 0.0021713965 0.0052427099 
   91100 0.0052086163 0.0020914303 0.0046143538 
   91200 0.0054182748 0.0015990891 0.0042235659 
   91300 0.0057321371 0.0016774485 0.0044539524 
   91400 0.0050441742 0.0020159357 0.0044592076 
   91500 0.0037670303  0.002371835 0.0041964903 
   91600 0.0049966484 0.0026391458 0.0050593974 
   91700 0.0047454346 0.0027592353 0.0050578052 
   91800 0.0053011709 0.0024995523  0.005067307 
   91900 0.0056618924 0.0021128378  0.004855317 
   92000 0.0062095965 0.0024252744 0.0054330477 
   92100 0.0063171116 0.0025200663 0.0055799172 
   92200 0.0056119567 0.0017711912 0.0044894827 
   92300 0.0058378255 0.0019380853 0.0047657821 
   92400 0.0042336652 0.0018008081 0.0038514897 
   92500 0.0042370425 0.0022072158 0.0042595333 
   92600 0.0043235339 0.0024379119 0.0045321236 
   92700 0.0044879422 0.0024475679 0.0046214149 
   92800 0.0058834505 0.0023251113 0.0051749077 
   92900  0.005756043 0.0024066582 0.0051947415 
   93000 0.0044536031 0.0025373832 0.0046945972 
   93100 0.0051969383 0.0026852596 0.0052025266 
   93200 0.0037687496  0.002611426 0.0044369141 
   93300 0.0058500822 0.0021886453 0.0050222788 
   93400 0.0046393328 0.0022539185 0.0045010953 
   93500 0.0060990277 0.0020735348 0.0050277514 
   93600 0.0057903995 0.0022677422 0.0050724669 
   93700  0.004039946 0.0024796678 0.0044365166 
   93800 0.0040127246 0.0026040197 0.0045476832 
   93900 0.0055350421 0.0021933771 0.0048744131 
   94000 0.0058327734 0.0018346472 0.0046598968 
   94100 0.0070996451 0.0025435671 0.0059824577 
   94200 0.0050671066 0.0034214701 0.0058758499 
   94300 0.0043795491  0.002999433 0.0051207771 
   94400 0.0052674244 0.0026593973  0.005210806 
   94500 0.0051818237 0.0030455114 0.0055554573 
   94600 0.0065697865 0.0024956948 0.0056779351 
   94700 0.0070094641 0.0024252992 0.0058205083 
   94800 0.0054917442 0.0027604714  0.005420535 
   94900 0.0066119691 0.0028869362 0.0060896087 
   95000 0.0056385088 0.0029829856 0.0057141383 
   95100 0.0050993484 0.0028679566 0.0053379534 
   95200 0.0058858168 0.0022729168 0.0051238593 
   95300 0.0062965949 0.0018579187 0.0049078318 
   95400 0.0044611397 0.0020835659 0.0042444305 
   95500 0.0063304895 0.0022082517 0.0052745825 
   95600  0.005184073 0.0021347568 0.0046457922 
   95700 0.0048956427 0.0020223769 0.0043937039 
   95800 0.0046100111 0.0021281529  0.004361127 
   95900 0.0032666395 0.0018612349 0.0034435134 
   96000 0.0060483222 0.0014379132 0.0043675693 
   96100 0.0041513227 0.0017725748 0.0037833718 
   96200 0.0045880407 0.0019493675 0.0041716997 
   96300 0.0059601324 0.0019194048 0.0048063439 
   96400 0.0043881156 0.0022762073 0.0044017007 
   96500 0.0041805335 0.0022317369 0.0042566828 
   96600  0.004881105 0.0023583859 0.0047226711 
   96700 0.0052846465 0.0022912902 0.0048510409 
   96800 0.0047966695 0.0020744338 0.0043978206 
   96900 0.0050533015 0.0021496448 0.0045973377 
   97000 0.0045114593 0.0025112984 0.0046965365 
   97100 0.0054643775 0.0026864011  0.005333209 
   97200 0.0043249951 0.0025447095  0.004639629 
   97300 0.0066926436 0.0020899918  0.005331741 
   97400 0.0058913938 0.0016239444 0.0044775882 
   97500 0.0053658761 0.0021217711 0.0047208673 
   97600 0.0036553349 0.0025763458 0.0043468986 
   97700 0.0043394248  0.002288061 0.0043899699 
   97800 0.0056212435 0.0018992525 0.0046220423 
   97900 0.0054798177 0.0021919399 0.0048462266 
   98000 0.0049509021 0.0019962544 0.0043943476 
   98100 0.0042790442 0.0018627951 0.0039354571 
   98200 0.0037401669 0.0017788287  0.003590472 
   98300 0.0068480188 0.0015246766 0.0048416857 
   98400 0.0039201126 0.0017635201 0.0036623246 
   98500 0.0054968742 0.0016443104 0.0043068588 
   98600 0.0041370186 0.0019667231 0.0039705915 
   98700 0.0052825266 0.0026388381 0.0051975619 
   98800 0.0040041632 0.0028434737 0.0047829903 
   98900 0.0065165253 0.0023111822 0.0054676242 
   99000 0.0064681397 0.0020668099 0.0051998151 
   99100 0.0063149096 0.0019019507  0.004960735 
   99200 0.0049314203 0.0019410197 0.0043296764 
   99300 0.0046497177 0.0023414394 0.0045936464 
   99400 0.0038879343 0.0022197012 0.0041029194 
   99500 0.0050567291 0.0021887068   0.00463806 
   99600  0.005655471 0.0022006669 0.0049400357 
   99700 0.0048840573 0.0021113179 0.0044770331 
   99800  0.005823411 0.0021126246 0.0049333393 
   99900 0.0047618653 0.0021259239 0.0044324524 
  100000  0.007696203 0.0024388401 0.0061666884 
  100100 0.0073106081 0.0023243372  0.005865413 
  100200  0.006016061 0.0029521521 0.0058661816 
  100300 0.0055273814 0.0031697806  0.005847106 
  100400 0.0053392471 0.0034314149 0.0060176127 
  100500 0.0062960647 0.0031182896 0.0061679459 
  100600 0.0070199816  0.002492006 0.0058923096 
  100700 0.0051043528  0.002902067 0.0053744879 
  100800 0.0038326997 0.0026239068 0.0044803707 
  100900 0.0057151104 0.0019074322 0.0046756888 
  101000 0.0057532049 0.0016153895 0.0044020982 
  101100 0.0040796154  0.001817895 0.0037939587 
  101200 0.0047624823 0.0019289102 0.0042357376 
  101300 0.0051036634 0.0018719042 0.0043439911 
  101400 0.0065753722 0.0015822094 0.0047671553 
  101500 0.0039828229 0.0020203059 0.0039494858 
  101600 0.0046735947 0.0018433764 0.0041071488 
  101700 0.0049722882 0.0019188186 0.0043272707 
  101800 0.0048222828 0.0023774593 0.0047132525 
  101900 0.0054160514 0.0025370853 0.0051604852 
  102000 0.0048117095 0.0024001219 0.0047307937 
  102100 0.0046555088 0.0022769933 0.0045320054 
  102200 0.0066544461 0.0022551433 0.0054783906 
  102300 0.0047551273 0.0020009904 0.0043042552 
  102400 0.0054685518 0.0018656486 0.0045144783 
  102500 0.0059973091 0.0016290337 0.0045339803 
  102600 0.0039780027 0.0017456321 0.0036724772 
  102700 0.0042633081 0.0020866242 0.0041516641 
  102800 0.0031365937 0.0026861296 0.0042054172 
  102900 0.0050579011 0.0024823838 0.0049323047 
  103000 0.0046816361 0.0026508931 0.0049185606 
  103100 0.0056716538 0.0029522162 0.0056994235 
  103200 0.0053933432 0.0033957726 0.0060081732 
  103300 0.0043404863 0.0030780057 0.0051804287 
  103400 0.0074855511 0.0021918547 0.0058176685 
  103500 0.0062016772 0.0020714767 0.0050754141 
  103600 0.0055218621 0.0026433814 0.0053180333 
  103700 0.0059561235 0.0028396713 0.0057246686 
  103800 0.0060169586 0.0032316614 0.0061461257 
  103900 0.0048927283 0.0033080421 0.0056779574 
  104000 0.0056498689 0.0029920653 0.0057287206 
  104100 0.0066860038 0.0022159582 0.0054544913 
  104200 0.0058035262  0.002343808  0.005154891 
  104300 0.0041835713  0.003347017 0.0053734343 
  104400 0.0057079552 0.0029430141 0.0057078049 
  104500 0.0059374467  0.002449276 0.0053252268 
  104600 0.0048214353 0.0018531817 0.0041885644 
  104700 0.0052779165 0.0017432416 0.0042997324 
  104800 0.0048858272 0.0018834502 0.0042500228 
  104900 0.0057512645 0.0016220764 0.0044078452 
  105000 0.0052988573 0.0021380146 0.0047046487 
  105100 0.0058832222 0.0019673084 0.0048169942 
  105200 0.0053475525 0.0019948531 0.0045850738 
  105300 0.0041397427 0.0020907945 0.0040959823 
  105400 0.0045790287 0.0020310304 0.0042489975 
  105500 0.0043722927 0.0021508461 0.0042686754 
  105600 0.0046067426 0.0024228679 0.0046542589 
  105700  0.005018148  0.002080523 0.0045111884 
  105800 0.0052749529 0.0022413182 0.0047963736 
  105900 0.0076960461 0.0024406842 0.0061684565 
  106000 0.0045639319 0.0026210451 0.0048316996 
  106100 0.0038509526 0.0024808189 0.0043461241 
  106200 0.0040054331 0.0021623439 0.0041024756 
  106300 0.0039114456 0.0021949342 0.0040895406 
  106400 0.0052278257 0.0024897576 0.0050219857 
  106500 0.0045390508 0.0025443522  0.004742955 
  106600 0.0061024335 0.0022728907 0.0052287569 
  106700 0.0051527587 0.0024614051 0.0049572726 
  106800 0.0052183827 0.0026997783 0.0052274324 
  106900 0.0056088639 0.0023585648 0.0050753583 
  107000 0.0046101111 0.0024816484  0.004714671 
  107100 0.0044679439 0.0022694233 0.0044335836 
  107200 0.0045860203 0.0019392897 0.0041606432 
  107300 0.0058802136 0.0019804881 0.0048287166 
  107400 0.0049646531  0.002064715 0.0044694688 
  107500 0.0052613236 0.0023954167 0.0049438703 
  107600 0.0043194571 0.0024957442 0.0045879813 
  107700 0.0066364807 0.0028354197  0.006049965 
  107800 0.0042517261 0.0025732018 0.0046326316 
  107900   0.00524204 0.0019576809  0.004496794 
  108000 0.0050961112 0.0018965904 0.0043650192 
  108100 0.0067936578 0.0019144154 0.0052050934 
  108200 0.0053161285 0.0022588286 0.0048338283 
  108300 0.0045306332 0.0026376774 0.0048322028 
  108400 0.0063826772 0.0024520193 0.0055436286 
  108500 0.0046676579  0.002490945 0.0047518418 
  108600 0.0051416199 0.0021937019  0.004684174 
  108700 0.0064869086 0.0016906363 0.0048327326 
  108800 0.0040160856 0.0020567216  0.004002013 
  108900 0.0035565191 0.0023242864 0.0040469753 
  109000 0.0036516065 0.0022500229 0.0040187698 
  109100 0.0037524697 0.0018657768 0.0036833793 
  109200 0.0036620517 0.0017786876 0.0035524939 
  109300 0.0043601873 0.0017838727 0.0038958384 
  109400 0.0054085444 0.0023048718 0.0049246355 
  109500 0.0074864336 0.0021898475 0.0058160887 
  109600 0.0066111758 0.0024873854 0.0056896737 
  109700 0.0045604734 0.0027053979 0.0049143772 
  109800 0.0039595043 0.0024113819 0.0043292668 
  109900 0.0047338973 0.0021033612 0.0043963427 
  110000 0.0056269506  0.002674601 0.0054001552 
  110100 0.0036531246 0.0032054268 0.0049749091 
  110200 0.0048667259 0.0030104597 0.0053677801 
  110300  0.006168454 0.0030602215 0.0060480664 
  110400 0.0041761191 0.0030911546 0.0051139623 
  110500 0.0059090568  0.002598239 0.0054604384 
  110600 0.0045375909 0.0022431194  0.004441015 
  110700 0.0057696608 0.0023805379 0.0051752173 
  110800 0.0046650742 0.0030865629 0.0053462082 
  110900 0.0043046474  0.002795159 0.0048802226 
  111000 0.0042240019 0.0021821467 0.0042281476 
  111100 0.0048321444 0.0019847152 0.0043252851 
  111200 0.0050803984  0.002198103  0.004658921 
  111300 0.0064427053 0.0022849608 0.0054056462 
  111400 0.0035957555 0.0021962891 0.0039379832 
  111500  0.006515365 0.0021400543 0.0052959342 
  111600 0.0074862529 0.0028302675 0.0064564212 
  111700 0.0058507754 0.0031502207   0.00598419 
  111800 0.0035653772 0.0028608031 0.0045877827 
  111900 0.0059250528  0.002726309 0.0055962564 
  112000 0.0058440437 0.0029221579 0.0057528666 
  112100   0.00482355 0.0028232538 0.0051596609 
  112200 0.0070596595 0.0025463696 0.0059658922 
  112300 0.0045960365 0.0022749048   0.00450111 
  112400 0.0056799328 0.0022098531 0.0049610706 
  112500 0.0054811811 0.0022190694 0.0048740165 
  112600 0.0045042898   0.00268168 0.0048634454 
  112700 0.0062558009 0.0029466832 0.0059768368 
  112800 0.0049366105 0.0029908095 0.0053819803 
  112900 0.0066481338 0.0027347409 0.0059549307 
  113000 0.0052279053 0.0027963475 0.0053286141 
  113100 0.0042225202  0.003162054 0.0052073373 
  113200 0.0040749023 0.0027371589 0.0047109397 
  113300 0.0048998505 0.0021637767 0.0045371418 
  113400   0.00352536 0.0017261671 0.0034337633 
  113500 0.0029015566 0.0017978024 0.0032032439 
  113600 0.0038776359 0.0019394359 0.0038176658 
  113700 0.0051849841 0.0019772248 0.0044887015 
  113800 0.0058124854 0.0017174622 0.0045328848 
  113900 0.0037047808 0.0017787627 0.0035732659 
  114000 0.0041666284 0.0020308384  0.004049049 
  114100 0.0061662468  0.002638101 0.0056248768 
  114200  0.004304001 0.0026532178 0.0047379682 
  114300 0.0050490776 0.0022522054 0.0046978523 
  114400 0.0056884414  0.002042042 0.0047973808 
  114500 0.0052554417 0.0020783942 0.0046239988 
  114600 0.0038518772 0.0026483718 0.0045141249 
  114700 0.0051543718 0.0029475245 0.0054441733 
  114800 0.0058737052 0.0029875361 0.0058326121 
  114900 0.0041440283 0.0023984051 0.0044056687 
  115000 0.0051027808 0.0022201759 0.0046918354 
  115100 0.0034641834 0.0023163688 0.0039943326 
  115200 0.0061293381 0.0024178044 0.0053867025 
  115300 0.0053766092 0.0020885186 0.0046928137 
  115400 0.0034780508 0.0021764521 0.0038611329 
  115500 0.0048067076 0.0023054965 0.0046337455 
  115600 0.0054101573   0.00237602  0.004996565 
  115700 0.0044630353 0.0022184252 0.0043802079 
  115800 0.0045209922 0.0018593802 0.0040492358 
  115900 0.0038611647  0.002162646 0.0040328977 
  116000  0.004944749 0.0025678436 0.0049629563 
  116100 0.0051720362 0.0029651205 0.0054703255 
  116200   0.00689407 0.0026147194 0.0059540346 
  116300 0.0054057159 0.0028143039 0.0054326975 
  116400 0.0057806459 0.0029415951 0.0057415955 
  116500  0.005766428 0.0023509824 0.0051440959 
  116600 0.0051498164 0.0018616126 0.0043560549 
  116700 0.0051476664 0.0022472774 0.0047406783 
  116800 0.0063542739 0.0024037036  0.005481555 
  116900 0.0057602129 0.0025620152 0.0053521184 
  117000 0.0054987673 0.0021147012 0.0047781666 
  117100 0.0052519826 0.0018913517 0.0044352807 
  117200 0.0045214673 0.0015938769 0.0037839626 
  117300 0.0046828548 0.0018861704 0.0041544282 
  117400 0.0044177668  0.002280712 0.0044205678 
  117500 0.0074609125 0.0024627621 0.0060766416 
  117600 0.0056408566 0.0027237603 0.0054560502 
  117700 0.0061117954 0.0021693105 0.0051297114 
  117800 0.0055664488 0.0023697025 0.0050659511 
  117900 0.0050747675 0.0024835866 0.0049416771 
  118000 0.0068481927 0.0023967767 0.0057138701 
  118100 0.0042235647 0.0025089998 0.0045547889 
  118200  0.003953235  0.002553726 0.0044685742 
  118300 0.0054646384 0.0027956747  0.005442609 
  118400 0.0050824794 0.0029863688 0.0054481948 
  118500 0.0054210026 0.0025003759  0.005126174 
  118600 0.0043803858 0.0029519831 0.0050737325 
  118700 0.0056351702 0.0028630059 0.0055925414 
  118800 0.0066681825  0.002437407 0.0056673079 
  118900 0.0055705813 0.0019361373 0.0046343876 
  119000 0.0042805896 0.0020391194   0.00411253 
  119100 0.0056592447 0.0026603383  0.005401535 
  119200 0.0051993665 0.0030146209  0.005533064 
  119300 0.0052828783  0.002805073 0.0053639672 
  119400 0.0059544946 0.0021309711 0.0050151794 
  119500 0.0056381361  0.002120532 0.0048515042 
  119600 0.0046777484 0.0020266262 0.0042924106 
  119700 0.0059582531 0.0021689571  0.005054986 
  119800 0.0061083063 0.0022955138 0.0052542247 
  119900 0.0044808404 0.0022726761 0.0044430832 
  120000  0.005586272 0.0026431059 0.0053489564 
  120100 0.0069725386 0.0025349201 0.0059122435 
  120200  0.005239046 0.0026784609 0.0052161239 
  120300 0.0035828465 0.0026037115 0.0043391528 
  120400 0.0048374798 0.0027079318 0.0050510861 
  120500 0.0062721365 0.0025611543 0.0055992204 
  120600 0.0043448161   0.00264874 0.0047532603 
  120700 0.0061063366 0.0020413566 0.0049991134 
  120800 0.0045121108 0.0022386167 0.0044241704 
  120900  0.003211123 0.0026053078 0.0041606955 
  121000 0.0044652744 0.0020954059 0.0042582732 
  121100 0.0055905388 0.0021312478 0.0048391651 
  121200 0.0059609496  0.002299694  0.005187029 
  121300 0.0058848236 0.0020347078 0.0048851692 
  121400 0.0038825674 0.0017813083 0.0036619269 
  121500 0.0052612828 0.0017220779 0.0042705117 
  121600 0.0049516632 0.0021784769 0.0045769388 
  121700 0.0045087736 0.0024613827   0.00464532 
  121800 0.0055802324 0.0021942805 0.0048972056 
  121900 0.0050904435  0.002520569 0.0049862526 
  122000 0.0060818097 0.0028956291 0.0058415056 
  122100  0.004955435 0.0025629837 0.0049632725 
  122200 0.0065624036 0.0024590743 0.0056377386 
  122300 0.0052915293  0.002316756 0.0048798405 
  122400 0.0061768745 0.0023721373 0.0053640609 
  122500 0.0071503935 0.0020375418 0.0055010136 
  122600 0.0058391142 0.0023298915 0.0051582124 
  122700 0.0055384253 0.0025179109 0.0052005856 
  122800  0.004922185 0.0022975915 0.0046817748 
  122900 0.0062145361 0.0018251859 0.0048353518 
  123000 0.0051446009 0.0019396813 0.0044315974 
  123100  0.005033431 0.0025734129  0.005011481 
  123200 0.0050837213 0.0032938548 0.0057562823 
  123300 0.0064502745 0.0031506704 0.0062750221 
  123400  0.004930603 0.0032083157 0.0055965765 
  123500  0.005579077 0.0028103192 0.0055126846 
  123600 0.0036742864 0.0028206076   0.00460034 
  123700 0.0055457877 0.0023946382 0.0050808791 
  123800 0.0066992709 0.0028619902 0.0061069496 
  123900 0.0055512535  0.003128291 0.0058171794 
  124000 0.0051873346 0.0024910731 0.0050036884 
  124100 0.0063742546  0.002077798 0.0051653276 
  124200 0.0070468958 0.0024365725 0.0058499126 
  124300 0.0040212963 0.0028721437 0.0048199591 
  124400 0.0056996044 0.0022874889 0.0050482348 
  124500 0.0050007059 0.0022836172 0.0047058342 
  124600 0.0066381217 0.0023507994 0.0055661396 
  124700 0.0045878966 0.0026262496 0.0048485121 
  124800 0.0041311011  0.003228213 0.0052292151 
  124900 0.0047211922 0.0027416919 0.0050285194 
  125000 0.0067181938 0.0020426993 0.0052968244 
  125100 0.0046811656  0.002124116 0.0043915555 
  125200 0.0063842025 0.0022294397 0.0053217878 
  125300 0.0048965277 0.0022377438 0.0046094993 
  125400 0.0035615968 0.0029051559 0.0046303043 
  125500 0.0058938775 0.0033189741  0.006173821 
  125600 0.0059156882 0.0030288852 0.0058942967 
  125700 0.0044481406 0.0027651789  0.004919747 
  125800 0.0050424118 0.0029785848  0.005421003 
  125900 0.0041718929 0.0029094986 0.0049302592 
  126000 0.0051708876  0.002787446 0.0052920947 
  126100 0.0045373432 0.0024920161 0.0046897917 
  126200   0.00578265 0.0024835149 0.0052844859 
  126300 0.0034767501 0.0024732559 0.0041573068 
  126400 0.0056102439  0.001927748 0.0046452099 
  126500 0.0055713772 0.0021818464 0.0048804822 
  126600 0.0042567305   0.00277519 0.0048370439 
  126700 0.0053931507 0.0029052193 0.0055175267 
  126800 0.0056438831 0.0028716506 0.0056054064 
  126900  0.005468644 0.0025559187 0.0052047932 
  127000 0.0048493901 0.0027848419 0.0051337652 
  127100 0.0061565307 0.0030662974  0.006048367 
  127200 0.0070176183 0.0030468032  0.006445962 
  127300 0.0058282552 0.0025238628 0.0053469239 
  127400 0.0063471689   0.00259904   0.00567345 
  127500 0.0057057753 0.0031367728 0.0059005077 
  127600 0.0056791759 0.0033984394 0.0061492902 
  127700 0.0051632474 0.0030074298 0.0055083777 
  127800 0.0076534247 0.0019689299 0.0056760575 
  127900 0.0075903554 0.0019104056 0.0055869839 
  128000 0.0049649457 0.0020599031 0.0044647987 
  128100 0.0052604523 0.0021126715  0.004660703 
  128200   0.00440192 0.0022472278 0.0043794078 
  128300 0.0050805988 0.0020540917 0.0045150068 
  128400 0.0047370458 0.0020113349 0.0043058414 
  128500  0.004362165 0.0023161298 0.0044290534 
  128600    0.0051177 0.0025994429 0.0050783289 
  128700 0.0061461819 0.0026905569 0.0056676138 
  128800   0.00593289 0.0028499342 0.0057236778 
  128900 0.0060278748 0.0024285885 0.0053483404 
  129000 0.0041100872 0.0025625362 0.0045533597 
  129100 0.0052959873 0.0027574793 0.0053227232 
  129200 0.0059443213 0.0023214797 0.0052007603 
  129300 0.0040543032   0.00269661 0.0046604131 
  129400 0.0046175229 0.0024916497 0.0047282624 
  129500 0.0048136754 0.0028084895 0.0051401135 
  129600 0.0028513253 0.0033409943  0.004722105 
  129700 0.0047955687 0.0027549778 0.0050778314 
  129800 0.0047586562 0.0020609534 0.0043659275 
  129900 0.0054215136 0.0018842388 0.0045102844 
  130000 0.0062627092 0.0020731162  0.005106616 
  130100 0.0051958703 0.0026240978 0.0051408475 
  130200 0.0052627168 0.0024846778 0.0050338063 
  130300 0.0045012577  0.002389936 0.0045702327 
  130400 0.0066390792 0.0022602413 0.0054760453 
  130500 0.0049662946 0.0025500829 0.0049556319 
  130600 0.0050060477 0.0027712711 0.0051960754 
  130700   0.00572121 0.0025719353 0.0053431464 
  130800 0.0046974207 0.0028413186 0.0051166318 
  130900 0.0056757871 0.0027935027 0.0055427121 
  131000 0.0059115566  0.002712697 0.0055761072 
  131100 0.0058740958 0.0022982408  0.005143506 
  131200 0.0044974806 0.0023774641 0.0045559312 
  131300 0.0045800058 0.0025689254 0.0047873657 
  131400 0.0056834525 0.0029619575 0.0057148798 
  131500 0.0046631825 0.0031582242 0.0054169533 
  131600 0.0058674328 0.0026092811 0.0054513188 
  131700  0.005347855 0.0023478025 0.0049381697 
  131800 0.0040916227 0.0020894628 0.0040713426 
  131900 0.0054778529 0.0018078835 0.0044612185 
  132000 0.0040909488 0.0021097034 0.0040912567 
  132100  0.004968684 0.0020752518 0.0044819582 
  132200 0.0047008895 0.0018997441 0.0041767374 
  132300 0.0051219925  0.002124006 0.0046049711 
  132400 0.0029927443 0.0022202672 0.0036698777 
  132500 0.0062934079 0.0020373737 0.0050857431 
  132600 0.0059057473  0.002004911 0.0048655073 
  132700 0.0054848535 0.0024189325 0.0050756584 
  132800 0.0049497118 0.0030761345 0.0054736512 
  132900 0.0060071004 0.0024503953 0.0053600846 
  133000  0.006063228 0.0019646295 0.0049015056 
  133100 0.0040063655 0.0025435752 0.0044841585 
  133200 0.0065750003 0.0028405289 0.0060252947 
  133300 0.0058067939 0.0031386337 0.0059512995 
  133400 0.0066559606 0.0027113969 0.0059353778 
  133500 0.0038450659   0.00221617 0.0040786238 
  133600 0.0056503038 0.0020836055 0.0048204714 
  133700 0.0046146841 0.0023213839 0.0045566216 
  133800 0.0045373707 0.0023564923 0.0045542812 
  133900 0.0048099217 0.0026987664 0.0050285723 
  134000 0.0053884792 0.0027682068 0.0053782514 
  134100 0.0062308953 0.0029554363 0.0059735263 
  134200 0.0056985904 0.0030222108 0.0057824655 
  134300 0.0034586671  0.003375087 0.0050503788 
  134400 0.0056563554 0.0030824737 0.0058222708 
  134500 0.0043856518 0.0029930593 0.0051173594 
  134600 0.0049009155 0.0032451473 0.0056190283 
  134700 0.0051442581 0.0033158062 0.0058075562 
  134800 0.0051442524 0.0032756692 0.0057674164 
  134900  0.004658872 0.0032892871 0.0055459282 
  135000 0.0053586994 0.0035369077 0.0061325278 
  135100 0.0055197609  0.003257191 0.0059308252 
  135200 0.0055811044 0.0030434867 0.0057468341 
  135300 0.0044441028 0.0031685312 0.0053211435 
  135400 0.0035533718 0.0027638989 0.0044850634 
  135500  0.005805911 0.0024396273 0.0052518654 
  135600 0.0045487175 0.0019475857 0.0041508707 
  135700 0.0041470552 0.0021127304 0.0041214603 
  135800 0.0047611845  0.002468967 0.0047751657 
  135900 0.0050767944 0.0027340037  0.005193076 
  136000 0.0048970377 0.0025228559 0.0048948585 
  136100 0.0059651074 0.0025362529 0.0054256018 
  136200 0.0041991551 0.0023371698 0.0043711356 
  136300 0.0063424191 0.0020084803 0.0050805895 
  136400 0.0042579555  0.002092712 0.0041551592 
  136500  0.006265943 0.0020801076 0.0051151737 
  136600 0.0049942562 0.0022305941 0.0046496869 
  136700 0.0056534345 0.0026953219 0.0054337042 
  136800 0.0055302327 0.0024611458 0.0051398523 
  136900  0.005975365 0.0019086862 0.0048030036 
  137000 0.0043744043 0.0022763343 0.0043951864 
  137100 0.0050144275 0.0025196852 0.0049485486 
  137200 0.0043714787 0.0023049478 0.0044223828 
  137300 0.0041946477 0.0021135551 0.0041453376 
  137400 0.0042185648 0.0023681816 0.0044115489 
  137500  0.005496559 0.0021891207 0.0048515165 
  137600 0.0041936411 0.0021033565 0.0041346514 
  137700 0.0049805828 0.0020122729 0.0044247427 
  137800 0.0038037327 0.0017927632 0.0036351962 
  137900 0.0049124267 0.0017033379 0.0040827945 
  138000 0.0043758127 0.0020785279 0.0041980622 
  138100 0.0056667732 0.0023714127  0.005116256 
  138200 0.0041246039 0.0022178694 0.0042157244 
  138300 0.0056451416 0.0019974971 0.0047318626 
  138400 0.0055119572 0.0017079461 0.0043778004 
  138500 0.0055075486 0.0020796613 0.0047473802 
  138600 0.0046743392 0.0022015344 0.0044656674 
  138700 0.0047707846 0.0021651892  0.004476038 
  138800  0.005304505 0.0025850164  0.005154386 
  138900 0.0043337924 0.0027784473  0.004877628 
  139000 0.0043623991 0.0025036672 0.0046167042 
  139100  0.004608583 0.0024286917 0.0046609741 
  139200 0.0048135512 0.0033003566 0.0056319204 
  139300 0.0054805599 0.0033301416 0.0059847878 
  139400 0.0042028378 0.0027178659 0.0047536155 
  139500 0.0044043451 0.0019977873 0.0041311419 
  139600 0.0048424859 0.0022821291 0.0046277082 
  139700 0.0062551406 0.0019294553  0.004959289 
  139800 0.0051915488  0.001832374 0.0043470305 
  139900 0.0049121661 0.0022556117 0.0046349422 
  140000 0.0045235999 0.0024629987 0.0046541175 
  140100 0.0050676825 0.0027743925 0.0052290512 
  140200 0.0073821926 0.0028178922 0.0063936417 
  140300 0.0052860239 0.0028341073 0.0053945252 
  140400 0.0064413543 0.0027307036 0.0058507345 
  140500 0.0050360424 0.0025924429  0.005031776 
  140600 0.0061859291 0.0023847305   0.00538104 
  140700 0.0065076809 0.0021052799 0.0052574378 
  140800 0.0047956367 0.0023749728 0.0046978593 
  140900 0.0073244499 0.0024139165 0.0059616969 
  141000 0.0044205127 0.0023799657 0.0045211516 
  141100 0.0051551949 0.0023011933 0.0047982408 
  141200 0.0052905842 0.0020279007 0.0045905274 
  141300 0.0041089305  0.001786607 0.0037768702 
  141400 0.0034866208 0.0019499329 0.0036387648 
  141500 0.0050545911 0.0019635877 0.0044119052 
  141600  0.005756048 0.0021824888 0.0049705745 
  141700 0.0049588215 0.0023978791 0.0047998083 
  141800 0.0057578448 0.0022673785 0.0050563346 
  141900 0.0050405481 0.0027058216 0.0051473371 
  142000 0.0046272214 0.0028562472 0.0050975575 
  142100 0.0044570694 0.0027280231 0.0048869161 
  142200 0.0069467632 0.0019940643 0.0053589028 
  142300 0.0045994605  0.001931807 0.0041596707 
  142400 0.0054041239 0.0020891157 0.0047067382 
  142500 0.0049300054 0.0024431095 0.0048310808 
  142600 0.0050131352 0.0024489808 0.0048772181 
  142700 0.0048672102 0.0023631343 0.0047206893 
  142800 0.0051326778  0.002794142 0.0052802828 
  142900 0.0053560719 0.0026083604 0.0052027077 
  143000  0.005599714 0.0025999276 0.0053122891 
  143100 0.0039117899 0.0023040853 0.0041988586 
  143200 0.0051584001 0.0022889875 0.0047875876 
  143300 0.0064411135 0.0026773848 0.0057972991 
  143400 0.0051558872 0.0029735879 0.0054709708 
  143500 0.0046394507 0.0028406391  0.005087873 
  143600 0.0042859102  0.002926405 0.0050023927 
  143700 0.0061690604 0.0029937245 0.0059818631 
  143800  0.003917043  0.002896098 0.0047934157 
  143900 0.0048680247 0.0029521148 0.0053100642 
  144000 0.0041163453 0.0029744737 0.0049683284 
  144100 0.0042369012 0.0023264242 0.0043786733 
  144200 0.0041434632 0.0024513983 0.0044583883 
  144300 0.0045265932 0.0023645957 0.0045571643 
  144400 0.0064452761 0.0023171252 0.0054390559 
  144500 0.0050201953 0.0029854517 0.0054171088 
  144600 0.0065017758 0.0034607356 0.0066100333 
  144700 0.0054259719 0.0031138693 0.0057420744 
  144800 0.0054103325 0.0027970467 0.0054176765 
  144900 0.0067084004 0.0024817036  0.005731085 
  145000 0.0067026941 0.0025945691 0.0058411866 
  145100 0.0048057835 0.0033560496 0.0056838509 
  145200 0.0045413099 0.0031222249 0.0053219219 
  145300 0.0041646006   0.00296848 0.0049857084 
  145400 0.0046490635 0.0029314585 0.0051833486 
  145500 0.0052566106 0.0031541388 0.0057003095 
  145600 0.0063179019 0.0030547471 0.0061149809 
  145700 0.0052922615 0.0026764387 0.0052398779 
  145800 0.0056831002 0.0025356996 0.0052884513 
  145900 0.0053312045 0.0024035209 0.0049858231 
  146000 0.0045855023 0.0023246479 0.0045457505 
  146100 0.0062503124 0.0025600011 0.0055874962 
  146200 0.0045591971 0.0023141248 0.0045224858 
  146300  0.004481118 0.0021588429 0.0043293844 
  146400 0.0054696099  0.002005789 0.0046551313 
  146500 0.0045938394 0.0020148029 0.0042399439 
  146600 0.0042479958 0.0023147482 0.0043723712 
  146700 0.0030578505 0.0024294713 0.0039106177 
  146800 0.0033832871 0.0019653841 0.0036041638 
  146900 0.0046161514 0.0018298665 0.0040658148 
  147000 0.0045288419 0.0018626625 0.0040563203 
  147100 0.0063009162 0.0017128736 0.0047648799 
  147200 0.0068037669 0.0016677784  0.004963353 
  147300 0.0044446367 0.0019195138 0.0040723847 
  147400 0.0047164853 0.0025261143 0.0048106619 
  147500 0.0049797033 0.0026090611 0.0050211048 
  147600 0.0048701452 0.0025958424  0.004954819 
  147700 0.0039382902  0.002775244 0.0046828534 
  147800 0.0068881798 0.0023115448 0.0056480069 
  147900 0.0057560178 0.0025356828 0.0053237539 
  148000 0.0037795347 0.0027412825 0.0045719947 
  148100 0.0049886603 0.0025711459 0.0049875282 
  148200 0.0054287608  0.002708267  0.005337823 
  148300  0.004795759 0.0026062378 0.0049291836 
  148400  0.005351881 0.0027086998 0.0053010171 
  148500 0.0044378564 0.0029363355 0.0050859222 
  148600 0.0040598016 0.0029548032 0.0049212696 
  148700 0.0042479132 0.0028292548 0.0048868378 
  148800 0.0050079853 0.0022032719 0.0046290148 
  148900 0.0049560196 0.0022388164 0.0046393884 
  149000 0.0053142859 0.0024087774 0.0049828846 
  149100 0.0043892665  0.002474407 0.0046004579 
  149200 0.0050040943 0.0025886343 0.0050124925 
  149300  0.003785899 0.0030963039 0.0049300987 
  149400 0.0046572747 0.0029329657 0.0051888331 
  149500  0.005182398 0.0022291726 0.0047393966 
  149600 0.0051034073  0.002645802 0.0051177649 
  149700 0.0062453156 0.0027451965 0.0057702713 
  149800 0.0040003697 0.0031180403 0.0050557194 
  149900 0.0052578932 0.0034325933 0.0059793853 
  150000 0.0055673012 0.0031025456 0.0057992071 
  150100 0.0042120305 0.0033666032 0.0054068055 
  150200 0.0047008151 0.0028921646 0.0051691219 
  150300  0.006436053 0.0021398593 0.0052573225 
  150400 0.0039478372 0.0021817371 0.0040939708 
  150500 0.0036672454 0.0021634299 0.0039397519 
  150600 0.0038281746 0.0022922422 0.0041465143 
  150700 0.0049741354 0.0024764518 0.0048857986 
  150800 0.0053414497 0.0028145888 0.0054018535 
  150900 0.0044913569 0.0029924045 0.0051679055 
  151000 0.0047310275 0.0028749769 0.0051665684 
  151100 0.0054432615  0.002923927 0.0055605067 
  151200 0.0044545471 0.0027202175 0.0048778888 
  151300  0.005200589 0.0026043818 0.0051234171 
  151400 0.0046763629 0.0024565223 0.0047216356 
  151500 0.0064746861 0.0022237364 0.0053599125 
  151600 0.0045998426 0.0024988315 0.0047268802 
  151700 0.0046772489 0.0026060623 0.0048716047 
  151800 0.0042034604 0.0022417296 0.0042777807 
  151900 0.0054320399 0.0020370203 0.0046681646 
  152000 0.0047593132 0.0021594689 0.0044647613 
  152100 0.0060243811 0.0018982484  0.004816308 
  152200 0.0057493286   0.00215867 0.0049435011 
  152300  0.006338288 0.0022354437 0.0053055519 
  152400 0.0049191092 0.0026941585  0.005076852 
  152500 0.0036713332 0.0027742011 0.0045525031 
  152600 0.0053815381 0.0024932392 0.0050999217 
  152700 0.0044817213 0.0019686182 0.0041394519 
  152800 0.0052429979 0.0018338469  0.004373424 
  152900 0.0055636332  0.002105456 0.0048003408 
  153000 0.0038718233 0.0024007181 0.0042761326 
  153100 0.0044198318 0.0027341842 0.0048750402 
  153200  0.004164547 0.0024886887 0.0045058911 
  153300 0.0066801176 0.0021850502 0.0054207322 
  153400 0.0066444838 0.0030123744 0.0062307963 
  153500 0.0046670883 0.0027962745 0.0050568954 
  153600 0.0050569859 0.0023953035 0.0048447811 
  153700 0.0056574767 0.0024891698 0.0052295101 
  153800 0.0052700823 0.0023535181 0.0049062142 
  153900 0.0051632144 0.0022715295 0.0047724615 
  154000 0.0042337596 0.0021679538 0.0042186811 
  154100  0.005491921 0.0021899006 0.0048500498 
  154200 0.0047673306  0.002659424 0.0049685998 
  154300 0.0072143942 0.0023794034 0.0058738756 
  154400 0.0052574085 0.0021847983 0.0047313555 
  154500 0.0049066593 0.0023323421 0.0047090052 
  154600 0.0049329687 0.0020242138 0.0044136206 
  154700 0.0044738201 0.0023567162 0.0045237228 
  154800 0.0069959333 0.0025653453 0.0059540005 
  154900 0.0054682055 0.0024833758 0.0051320378 
  155000 0.0043667131 0.0024252642 0.0045403908 
  155100 0.0048510794  0.002432654 0.0047823956 
  155200 0.0053573126 0.0021590407  0.004753989 
  155300 0.0038716761 0.0022326442 0.0041079873 
  155400 0.0044067852 0.0022416321 0.0043761687 
  155500 0.0048673892 0.0025992402 0.0049568818 
  155600 0.0062431377 0.0022925316 0.0053165515 
  155700 0.0065293515 0.0020887983 0.0052514529 
  155800 0.0064674854 0.0019299478  0.005062636 
  155900 0.0049443007 0.0018346679 0.0042295635 
  156000 0.0046110401 0.0022421651 0.0044756377 
  156100 0.0035320908 0.0028460672 0.0045569237 
  156200 0.0051375215 0.0029886751 0.0054771621 
  156300 0.0045384454 0.0035289115 0.0057272209 
  156400  0.007449067 0.0030849724 0.0066931142 
  156500 0.0058027133 0.0025212537 0.0053319429 
  156600  0.004794061 0.0025330507  0.004855174 
  156700 0.0046444186 0.0024802054 0.0047298457 
  156800 0.0036685867 0.0024427138 0.0042196855 
  156900 0.0057219502 0.0020886566 0.0048602262 
  157000 0.0045312197 0.0023553929 0.0045502024 
  157100 0.0049651552 0.0023599911 0.0047649882 
  157200 0.0056482905 0.0019587615 0.0046946522 
  157300 0.0050909533  0.001890189 0.0043561195 
  157400 0.0051901878 0.0017647626 0.0042787598 
  157500 0.0051705452   0.00139791 0.0039023928 
  157600 0.0048677016 0.0013188193 0.0036766123 
  157700 0.0045459928 0.0015970186 0.0037989839 
  157800 0.0049654654 0.0017060322 0.0041111795 
  157900  0.005077764 0.0019306335 0.0043901754 
  158000 0.0055413432 0.0022015826 0.0048856707 
  158100 0.0060683005 0.0017923339  0.004731667 
  158200 0.0051983427 0.0016303503 0.0041482975 
  158300 0.0050188722 0.0016466829 0.0040776991 
  158400 0.0042586344 0.0019458243 0.0040086004 
  158500 0.0039015186  0.002230434 0.0041202321 
  158600 0.0059018117 0.0020963845 0.0049550746 
  158700 0.0045117917 0.0026484076 0.0048338067 
  158800 0.0039525279  0.002537756 0.0044522617 
  158900 0.0053521188 0.0026255837 0.0052180163 
  159000 0.0051960364 0.0030255902 0.0055424204 
  159100 0.0054781755 0.0028587191 0.0055122103 
  159200  0.003580188 0.0027664748 0.0045006283 
  159300 0.0043438726 0.0026956299 0.0047996932 
  159400 0.0064902022 0.0022900838 0.0054337755 
  159500 0.0061888156 0.0021282956 0.0051260032 
  159600 0.0054523759 0.0028752149 0.0055162095 
  159700 0.0043848522 0.0028030229 0.0049269357 
[...]
 1960700 0.0049222083 0.0023657313  0.004749926 
 1960800 0.0046527356 0.0023075766 0.0045612454 
 1960900 0.0052869775 0.0020636233 0.0046245031 
 1961000 0.0035849838 0.0022292553 0.0039657318 
 1961100 0.0040996707 0.0025924621   0.00457824 
 1961200 0.0048480842 0.0019968839 0.0043451747 
 1961300 0.0043836429 0.0015766238 0.0036999508 
 1961400  0.005134109 0.0019508331 0.0044376671 
 1961500 0.0063223401 0.0023485514 0.0054109349 
 1961600 0.0056617193 0.0028739577 0.0056163529 
 1961700 0.0061104913 0.0028711164 0.0058308857 
 1961800 0.0039069593 0.0023706876  0.004263121 
 1961900 0.0056807574  0.002436064 0.0051876808 
 1962000 0.0039953676 0.0029453362 0.0048805924 
 1962100 0.0037230502 0.0026018508 0.0044052032 
 1962200 0.0038795071 0.0027216413 0.0046007776 
 1962300 0.0071768405 0.0023816472 0.0058579293 
 1962400  0.005405101 0.0026084756 0.0052265714 
 1962500 0.0041673234 0.0028148603 0.0048334076 
 1962600  0.004989111 0.0025712547 0.0049878554 
 1962700 0.0033936847 0.0024234008 0.0040672168 
 1962800  0.005146328 0.0024292192 0.0049219718 
 1962900 0.0062139592 0.0025410084 0.0055508949 
 1963000 0.0048856918 0.0024715717 0.0048380787 
 1963100 0.0048877481 0.0025687031 0.0049362061 
 1963200 0.0061600113 0.0027488979 0.0057326533 
 1963300 0.0051668485 0.0031212801 0.0056239723 
 1963400  0.004796229 0.0033849079 0.0057080813 
 1963500 0.0064901499 0.0027465439 0.0058902102 
 1963600 0.0049995249 0.0026733202  0.005094965 
 1963700 0.0060694867 0.0024461418 0.0053860494 
 1963800 0.0044389899 0.0024379986 0.0045881344 
 1963900 0.0041192671 0.0024972757 0.0044925457 
 1964000 0.0044731595 0.0020981707 0.0042648573 
 1964100 0.0061553204 0.0018181885 0.0047996718 
 1964200 0.0041696274 0.0017188646 0.0037385279 
 1964300 0.0035611192 0.0015705621 0.0032954792 
 1964400 0.0035782927 0.0019167752 0.0036500107 
 1964500 0.0056158655 0.0022641806 0.0049843654 
 1964600 0.0041059066 0.0023263417 0.0043151402 
 1964700 0.0038937764 0.0024393851  0.004325433 
 1964800 0.0069307578 0.0025497371 0.0059068229 
 1964900 0.0053878812 0.0027493608 0.0053591157 
 1965000 0.0064602479 0.0025418261 0.0056710086 
 1965100 0.0050866897  0.002606692 0.0050705573 
 1965200 0.0055577587 0.0026632069 0.0053552462 
 1965300 0.0053032321 0.0027575158 0.0053262688 
 1965400 0.0054482398 0.0025362095 0.0051752007 
 1965500 0.0058227454 0.0020405503 0.0048609426 
 1965600 0.0068704891 0.0024043677 0.0057322609 
 1965700 0.0068144301 0.0027667175 0.0060674571 
 1965800 0.0040656864 0.0024551339 0.0044244507 
 1965900 0.0063331825 0.0021690624 0.0052366976 
 1966000 0.0059347292 0.0022528503 0.0051274848 
 1966100 0.0038014443  0.002395169 0.0042364936 
 1966200 0.0051626019  0.002402328 0.0049029633 
 1966300 0.0055720666 0.0024380918 0.0051370616 
 1966400 0.0045167335 0.0020777425 0.0042655352 
 1966500 0.0051957139 0.0018010772 0.0043177511 
 1966600 0.0037150002 0.0020400365 0.0038394897 
 1966700 0.0041872098 0.0021180504 0.0041462302 
 1966800   0.00465358 0.0021848257 0.0044389035 
 1966900 0.0062002548 0.0027371496 0.0057403981 
 1967000 0.0057532758 0.0025965471 0.0053832901 
 1967100 0.0061909045 0.0026552122 0.0056539315 
 1967200 0.0058882778 0.0021289476 0.0049810822 
 1967300 0.0048178375 0.0021041628 0.0044378028 
 1967400 0.0047987529 0.0023754572 0.0046998532 
 1967500 0.0047794899 0.0022176643 0.0045327297 
 1967600 0.0044560078 0.0025284402  0.004686819 
 1967700 0.0046207226 0.0029978622 0.0052360248 
 1967800 0.0045441823 0.0027242031 0.0049252913 
 1967900 0.0042010496 0.0025077714 0.0045426548 
 1968000 0.0051831559 0.0015424749 0.0040530661 
 1968100 0.0044980132 0.0015126516 0.0036913768 
 1968200 0.0052936774 0.0019109596 0.0044750846 
 1968300 0.0054982661 0.0023438293 0.0050070519 
 1968400 0.0052859491 0.0022122354  0.004772617 
 1968500 0.0063679749 0.0020335453 0.0051180331 
 1968600 0.0059179053 0.0020508671 0.0049173525 
 1968700 0.0061646476 0.0020515531 0.0050375543 
 1968800 0.0055456491  0.002212246 0.0048984198 
 1968900 0.0036189282 0.0026052277  0.004358146 
 1969000 0.0055062192  0.002573247 0.0052403219 
 1969100 0.0043925083 0.0021020917 0.0042297129 
 1969200 0.0051957778 0.0021091525 0.0046258573 
 1969300 0.0059397662 0.0019518892 0.0048289634 
 1969400 0.0042516611 0.0019568573 0.0040162556 
 1969500 0.0056378026 0.0019161023  0.004646913 
 1969600 0.0056264339 0.0022012944 0.0049265983 
 1969700 0.0045997285 0.0025249533 0.0047529468 
 1969800 0.0062267986  0.002665873 0.0056819786 
 1969900 0.0049730875 0.0029549784 0.0053638176 
 1970000 0.0064854485 0.0030570939 0.0061984831 
 1970100 0.0080774649 0.0027469063 0.0066594283 
 1970200 0.0043251534 0.0025904999 0.0046854961 
 1970300 0.0062825382 0.0027827784 0.0058258829 
 1970400  0.004528342 0.0031298734 0.0053232891 
 1970500 0.0056682583 0.0029247608 0.0056703235 
 1970600 0.0057537252 0.0027874039 0.0055743646 
 1970700 0.0047225525 0.0025042377 0.0047917241 
 1970800 0.0053366631 0.0023905823 0.0049755285 
 1970900 0.0089082225 0.0027393317  0.007054252 
 1971000 0.0049441819  0.003062321 0.0054571591 
 1971100 0.0054766257 0.0032058845  0.005858625 
 1971200 0.0042832485 0.0030911895  0.005165888 
 1971300 0.0042925749    0.0027016 0.0047808159 
 1971400 0.0042251995 0.0026380988 0.0046846798 
 1971500 0.0057608068 0.0023601876 0.0051505784 
 1971600 0.0048267975 0.0021694997 0.0045074797 
 1971700 0.0036845697  0.002277363 0.0040620765 
 1971800 0.0040564366 0.0025434426 0.0045082791 
 1971900 0.0053801013 0.0030542676 0.0056602542 
 1972000 0.0049635061 0.0031348497  0.005539048 
 1972100 0.0052640529 0.0029293056 0.0054790813 
 1972200 0.0044742313 0.0026739334 0.0048411392 
 1972300 0.0056218147 0.0023577961 0.0050808626 
 1972400 0.0037431127 0.0024419225 0.0042549927 
 1972500  0.005060015 0.0025287977 0.0049797425 
 1972600  0.004866404 0.0028103724 0.0051675368 
 1972700 0.0040923386 0.0028180666 0.0048002931 
 1972800 0.0052979951 0.0026281261 0.0051943425 
 1972900 0.0046227859 0.0026969517 0.0049361136 
 1973000 0.0043350752 0.0023557858 0.0044555878 
 1973100 0.0039664036 0.0028230566 0.0047442833 
 1973200 0.0053598809 0.0029705491 0.0055667414 
 1973300 0.0052497984 0.0029784724 0.0055213435 
 1973400 0.0047805678 0.0027277293 0.0050433169 
 1973500 0.0054698797  0.002779874 0.0054293469 
 1973600 0.0067283504 0.0023810291 0.0056400738 
 1973700 0.0041397623 0.0026570758 0.0046622731 
 1973800 0.0036262128 0.0029934372 0.0047498841 
 1973900  0.006031899  0.003181333 0.0061030341 
 1974000 0.0063327192 0.0033460501  0.006413461 
 1974100 0.0052555677 0.0031859296 0.0057315952 
 1974200  0.005185452 0.0031881479 0.0056998512 
 1974300 0.0061520968 0.0032340787 0.0062140006 
 1974400 0.0060844363 0.0031463562  0.006093505 
 1974500 0.0054164261 0.0030716635 0.0056952449 
 1974600 0.0054331191 0.0029142453 0.0055459123 
 1974700 0.0074740317 0.0022399864 0.0058602206 
 1974800 0.0060482682 0.0025337519 0.0054633817 
 1974900 0.0050154909 0.0027719504 0.0052013288 
 1975000 0.0045335664 0.0030395025 0.0052354487 
 1975100 0.0046638217 0.0028020992 0.0050611378 
 1975200  0.004873034  0.002848826 0.0052092018 
 1975300 0.0042910303  0.002913311 0.0049917787 
 1975400 0.0051556367 0.0031093931 0.0056066547 
 1975500 0.0040694394 0.0030316112 0.0050027459 
 1975600 0.0058378983  0.002423874  0.005251606 
 1975700 0.0053371129 0.0021502419  0.004735406 
 1975800 0.0070446923 0.0021047481 0.0055170209 
 1975900  0.006559973 0.0023314058 0.0055088927 
 1976000 0.0052979827 0.0023618796   0.00492809 
 1976100 0.0045817236 0.0026409467 0.0048602191 
 1976200  0.004473997 0.0024717308 0.0046388231 
 1976300 0.0037308915 0.0021052169 0.0039123675 
 1976400 0.0050736595 0.0021350389 0.0045925927 
 1976500 0.0047211873 0.0026576123 0.0049444374 
 1976600 0.0051823742  0.002915772 0.0054259845 
 1976700 0.0055667224 0.0029714565 0.0056678377 
 1976800 0.0038088425 0.0026669281 0.0045118362 
 1976900 0.0052066277 0.0022477273 0.0047696876 
 1977000 0.0042668185 0.0028161513 0.0048828915 
 1977100 0.0040233428 0.0032010428 0.0051498494 
 1977200 0.0059016387 0.0025410678 0.0053996741 
 1977300 0.0060788044 0.0025806854 0.0055251063 
 1977400 0.0062889813 0.0028776728 0.0059238981 
 1977500 0.0032107879  0.003219768 0.0047749934 
 1977600 0.0048271814 0.0031008448 0.0054390108 
 1977700 0.0039721478 0.0031140292 0.0050380383 
 1977800 0.0049130448 0.0027406432 0.0051203993 
 1977900 0.0039220526 0.0026374838  0.004537228 
 1978000 0.0049530761 0.0026458429 0.0050449892 
 1978100 0.0058477313 0.0027040842 0.0055365791 
 1978200 0.0046354224 0.0029584259 0.0052037086 
 1978300  0.005457118 0.0031401241 0.0057834156 
 1978400 0.0043750854 0.0035560459 0.0056752279 
 1978500 0.0050376813 0.0029973742 0.0054375011 
 1978600 0.0055113232 0.0025874049  0.005256952 
 1978700 0.0048874684 0.0028211325    0.0051885 
 1978800  0.004561218 0.0030247895 0.0052341295 
 1978900  0.004649609 0.0029502179 0.0052023723 
 1979000 0.0061386174 0.0029548338 0.0059282266 
 1979100 0.0043850939 0.0030199504 0.0051439803 
 1979200 0.0059819611 0.0027335317 0.0056310441 
 1979300 0.0048187475 0.0027734638 0.0051075446 
 1979400 0.0045799377 0.0029437671 0.0051621745 
 1979500  0.005523774 0.0024135131 0.0050890911 
 1979600 0.0040420342 0.0019942777  0.003952138 
 1979700 0.0057359773 0.0017813829 0.0045597469 
 1979800 0.0042200444 0.0023567126 0.0044007966 
 1979900 0.0051318171 0.0028423141  0.005328038 
 1980000 0.0064015161 0.0024439437 0.0055446781 
 1980100 0.0053352823 0.0025956758 0.0051799532 
 1980200 0.0050231942  0.002769345 0.0052024547 
 1980300  0.006619252 0.0020366298   0.00524283 
 1980400 0.0062049134 0.0018875618 0.0048930668 
 1980500 0.0051416895 0.0021138048 0.0046043107 
 1980600 0.0052995442 0.0028344629 0.0054014297 
 1980700 0.0056324243 0.0026775714 0.0054057769 
 1980800 0.0070507367 0.0029468265 0.0063620271 
 1980900 0.0048590894 0.0028670738 0.0052206952 
 1981000 0.0043643056 0.0030986563 0.0052126168 
 1981100 0.0059884883 0.0028801275 0.0057808015 
 1981200 0.0052383865 0.0025165771 0.0050539206 
 1981300 0.0042253591 0.0024423829 0.0044890413 
 1981400 0.0041889244 0.0027406088 0.0047696191 
 1981500 0.0042360903  0.003124121 0.0051759772 
 1981600 0.0055854364 0.0025034131 0.0052088588 
 1981700 0.0060298884 0.0023962616 0.0053169888 
 1981800 0.0051099318 0.0029115977 0.0053867209 
 1981900  0.007432557 0.0031682516 0.0067683964 
 1982000 0.0051651015 0.0027414071 0.0052432531 
 1982100 0.0031482323 0.0023919215 0.0039168466 
 1982200 0.0050324706 0.0019992191  0.004436822 
 1982300 0.0045776837 0.0022314753 0.0044487909 
 1982400 0.0050757808 0.0025842099 0.0050427912 
 1982500 0.0038937605 0.0025762614 0.0044623017 
 1982600 0.0048099064 0.0020768117 0.0044066102 
 1982700 0.0048078708 0.0020836694 0.0044124818 
 1982800 0.0038340538 0.0027345713 0.0045916911 
 1982900 0.0046449049 0.0026494406 0.0048993164 
 1983000 0.0055783579 0.0021691463 0.0048711634 
 1983100 0.0047203041 0.0019030225 0.0041894198 
 1983200 0.0055060166 0.0022998265 0.0049668032 
 1983300 0.0055737916 0.0024850769 0.0051848822 
 1983400 0.0050966465 0.0024651767 0.0049338649 
 1983500 0.0034818344 0.0028266297 0.0045131432 
 1983600 0.0059945363 0.0026177563 0.0055213598 
 1983700  0.004267897 0.0022676125 0.0043348751 
 1983800 0.0056603714 0.0022174523 0.0049591946 
 1983900 0.0051517181 0.0022974572 0.0047928206 
 1984000 0.0051474378 0.0025681994 0.0050614896 
 1984100  0.005460167 0.0024815444 0.0051263129 
 1984200 0.0054376744 0.0018492774 0.0044831509 
 1984300 0.0055410768 0.0018767829  0.004560742 
 1984400 0.0050647983 0.0021000771 0.0045533388 
 1984500 0.0043126595 0.0030772223 0.0051661667 
 1984600 0.0037685928 0.0029275743 0.0047529864 
 1984700 0.0081352754 0.0023483682 0.0062888923 
 1984800 0.0057769913 0.0024488912 0.0052471214 
 1984900  0.004978804  0.001879708 0.0042913162 
 1985000 0.0048145303 0.0016232973 0.0039553354 
 1985100 0.0051224975 0.0016960054 0.0041772151 
 1985200 0.0069831704 0.0019689625 0.0053514357 
 1985300 0.0060294024  0.002259717 0.0051802088 
 1985400 0.0057887876 0.0023596115 0.0051635555 
 1985500  0.005588287 0.0019500888 0.0046569153 
 1985600 0.0056547797 0.0018248935 0.0045639275 
 1985700 0.0033519597 0.0015875152 0.0032111206 
 1985800 0.0047733698 0.0019011104 0.0042132115 
 1985900 0.0049710853 0.0020709354 0.0044788048 
 1986000 0.0051061302 0.0020213273 0.0044946091 
 1986100 0.0054134899 0.0021487742 0.0047709334 
 1986200 0.0040267681  0.002647106 0.0045975718 
 1986300 0.0043519756 0.0028408882 0.0049488764 
 1986400 0.0067032628 0.0024620465 0.0057089395 
 1986500  0.005056597 0.0022323524 0.0046816416 
 1986600 0.0051228808 0.0019012453 0.0043826406 
 1986700 0.0058110347 0.0019400205 0.0047547404 
 1986800 0.0050110146  0.002240595 0.0046678052 
 1986900  0.005864026 0.0020852965 0.0049256841 
 1987000 0.0056545357 0.0017174938 0.0044564095 
 1987100 0.0056803806 0.0017661794 0.0045176137 
 1987200 0.0062633742 0.0024604312 0.0054942531 
 1987300 0.0054471498 0.0024218447 0.0050603078 
 1987400 0.0044758873 0.0021148092 0.0042828171 
 1987500 0.0051304638 0.0026949514 0.0051800198 
 1987600 0.0033567354 0.0028827272 0.0045086459 
 1987700 0.0057063021 0.0026394497 0.0054034398 
 1987800 0.0046798921 0.0024753942  0.004742217 
 1987900 0.0054774371 0.0019866846 0.0046398182 
 1988000 0.0050890975 0.0021466774  0.004611709 
 1988100 0.0038729382 0.0023440655 0.0042200199 
 1988200 0.0055760036 0.0018172397 0.0045181165 
 1988300 0.0047048483 0.0017158983 0.0039948092 
 1988400 0.0046541239 0.0018986344 0.0041529757 
 1988500 0.0042934389 0.0021489599 0.0042285943 
 1988600 0.0047159057 0.0027011784 0.0049854453 
 1988700  0.005847541 0.0027889251 0.0056213278 
 1988800  0.004829912 0.0025011755 0.0048406641 
 1988900 0.0056956836 0.0020999981 0.0048588448 
 1989000 0.0047076006 0.0022881468 0.0045683908 
 1989100  0.005091665 0.0021371748 0.0046034501 
 1989200  0.004117067 0.0018519146 0.0038461189 
 1989300 0.0060880931 0.0015364795 0.0044853996 
 1989400 0.0035161215 0.0018072419 0.0035103633 
 1989500 0.0043151298 0.0020787266 0.0041688676 
 1989600 0.0052430814  0.002514277 0.0050538946 
 1989700 0.0043809065 0.0025939534 0.0047159549 
 1989800 0.0041960335 0.0025453096 0.0045777634 
 1989900 0.0039563302 0.0026856849 0.0046020323 
 1990000 0.0057348699 0.0022228385 0.0050006661 
 1990100 0.0047898563 0.0022843105 0.0046043972 
 1990200 0.0051976815 0.0025090598 0.0050266868 
 1990300 0.0050077625 0.0023855288 0.0048111637 
 1990400 0.0053204764 0.0023640181 0.0049411239 
 1990500 0.0052841198 0.0020073376 0.0045668331 
 1990600 0.0053451514 0.0018676685 0.0044567262 
 1990700 0.0033328477 0.0019433734 0.0035577215 
 1990800 0.0044006934 0.0019865754 0.0041181613 
 1990900 0.0050452301 0.0020408853 0.0044846686 
 1991000 0.0065300025 0.0023365408 0.0054995107 
 1991100 0.0051928278 0.0024265468 0.0049418228 
 1991200 0.0053469544 0.0028286653 0.0054185964 
 1991300 0.0034592909 0.0029405703 0.0046161643 
 1991400 0.0057569225  0.002730733 0.0055192423 
 1991500 0.0057598209  0.002308152 0.0050980653 
 1991600  0.005152249 0.0025708244  0.005066445 
 1991700 0.0044006429 0.0029145105 0.0050460719 
 1991800 0.0053758242 0.0030241416 0.0056280565 
 1991900 0.0049695684 0.0032815402 0.0056886749 
 1992000 0.0055769618 0.0034554958 0.0061568366 
 1992100 0.0059583852 0.0032399942  0.006126087 
 1992200 0.0046716994  0.002824056 0.0050869104 
 1992300 0.0048192819 0.0025829998 0.0049173394 
 1992400 0.0038993345  0.002542284 0.0044310241 
 1992500 0.0058376134 0.0024547601 0.0052823541 
 1992600 0.0060848393 0.0020066323 0.0049539764 
 1992700 0.0052477907 0.0020321311 0.0045740297 
 1992800  0.005249679 0.0025529926 0.0050958058 
 1992900 0.0053727672 0.0029005984 0.0055030325 
 1993000 0.0052625154  0.002932028 0.0054810588 
 1993100 0.0047142363 0.0029994144 0.0052828727 
 1993200 0.0053191154 0.0028774698 0.0054539163 
 1993300 0.0048289049 0.0025951217 0.0049341224 
 1993400 0.0076168859 0.0025009687 0.0061903978 
 1993500 0.0039761104 0.0032317131 0.0051576416 
 1993600 0.0044341498 0.0032938349 0.0054416262 
 1993700 0.0044275168 0.0031057684 0.0052503469 
 1993800 0.0075731693 0.0026348982 0.0063031521 
 1993900 0.0038286962 0.0026274942 0.0044820189 
 1994000 0.0050633462 0.0021650901 0.0046176484 
 1994100 0.0056199345 0.0020324649 0.0047546207 
 1994200 0.0048056788 0.0024693387 0.0047970894 
 1994300  0.006459677 0.0024678261 0.0055967322 
 1994400 0.0053801503 0.0024082668 0.0050142771 
 1994500 0.0048374889 0.0022730389 0.0046161976 
 1994600 0.0071441213 0.0018187729 0.0052792067 
 1994700 0.0064209046 0.0015227998 0.0046329255 
 1994800 0.0059406221 0.0016856726 0.0045631614 
 1994900 0.0045269071 0.0019621556 0.0041548762 
 1995000 0.0052455402 0.0020446714 0.0045854799 
 1995100 0.0042616975   0.00222956 0.0042938197 
 1995200 0.0039930582 0.0022136127 0.0041477503 
 1995300 0.0041277274 0.0018235115 0.0038228795 
 1995400 0.0050126134 0.0016191577 0.0040471423 
 1995500 0.0051791589 0.0019933343 0.0045019894 
 1995600 0.0063261234 0.0020172697 0.0050814857 
 1995700 0.0040529898 0.0017794217 0.0037425886 
 1995800  0.004570197 0.0017709365 0.0039846257 
 1995900 0.0054443845 0.0021039712 0.0047410949 
 1996000 0.0065881402 0.0020022043 0.0051933347 
 1996100 0.0047293703 0.0021049099 0.0043956986 
 1996200 0.0058157538  0.002259823 0.0050768287 
 1996300 0.0040998142 0.0023433742 0.0043292217 
 1996400 0.0052792745 0.0026857358 0.0052428843 
 1996500 0.0044951832 0.0025509056   0.00472826 
 1996600 0.0066010422 0.0021231854 0.0053205652 
 1996700 0.0038160025 0.0020482724 0.0038966486 
 1996800 0.0039766657 0.0021095955 0.0040357929 
 1996900 0.0044950258  0.002243618 0.0044208961 
 1997000 0.0045608723 0.0024545671 0.0046637396 
 1997100  0.005528286 0.0025390388 0.0052168023 
 1997200 0.0045379632 0.0023606972 0.0045587731 
 1997300  0.004636872 0.0025142273 0.0047602122 
 1997400 0.0053189046 0.0027464507 0.0053227951 
 1997500 0.0048530074  0.002783892 0.0051345675 
 1997600 0.0057274054 0.0021685357 0.0049427477 
 1997700 0.0038524705 0.0019583496   0.00382439 
 1997800 0.0051296654 0.0022335132 0.0047181949 
 1997900 0.0051018744 0.0027812269 0.0052524473 
 1998000 0.0047275885 0.0028043102 0.0050942359 
 1998100 0.0070847667 0.0019055429 0.0053372267 
 1998200 0.0065207742 0.0018082562 0.0049667562 
 1998300 0.0061191428 0.0020378316 0.0050017913 
 1998400 0.0063659105 0.0026460546 0.0057295425 
 1998500 0.0043373725 0.0027045125 0.0048054273 
 1998600 0.0048756101 0.0024999167 0.0048615404 
 1998700 0.0046508855 0.0023965866 0.0046493593 
 1998800 0.0062661518 0.0022217336 0.0052569009 
 1998900 0.0061555738 0.0023546222 0.0053362283 
 1999000 0.0043069574 0.0024786217 0.0045648042 
 1999100 0.0055141568 0.0028549884 0.0055259081 
 1999200 0.0034372635 0.0027990632 0.0044639877 
 1999300 0.0048351937 0.0023526277 0.0046946746 
 1999400 0.0057087851 0.0020335116 0.0047987044 
 1999500 0.0033912965 0.0023030393 0.0039456986 
 1999600 0.0054813169 0.0023096891  0.004964702 
 1999700 0.0048389727 0.0021943385 0.0045382159 
 1999800 0.0059277298 0.0020055057 0.0048767498 
 1999900 0.0059290305  0.002299977 0.0051718512 
 2000000 0.0047343315 0.0026625608 0.0049557526 
Loop time of 36.7413 on 1 procs for 2000000 steps with 64 atoms

Pair  time (%) = 0 (0)
Bond  time (%) = 6.21948 (16.9278)
Neigh time (%) = 3.63757 (9.9005)
Comm  time (%) = 3.27223 (8.90612)
Outpt time (%) = 2.95884 (8.05317)
Other time (%) = 20.6532 (56.2125)

Nlocal:    64 ave 64 max 64 min
Histogram: 1 0 0 0 0 0 0 0 0 0
Nghost:    4 ave 4 max 4 min
Histogram: 1 0 0 0 0 0 0 0 0 0
Neighs:    0 ave 0 max 0 min
Histogram: 1 0 0 0 0 0 0 0 0 0

Total # of neighbors = 0
Ave neighs/atom = 0
Ave special neighs/atom = 6
Neighbor list builds = 2000000
Dangerous builds = 0

Please see the log.cite file for references relevant to this simulation

