LAMMPS (21 Nov 2023 - Development - patch_21Nov2023-132-g9edf553332)
OMP_NUM_THREADS environment is not set. Defaulting to 1 thread. (src/comm.cpp:98)
  using 1 OpenMP thread(s) per MPI task
# 3D simple cubic lattice simulation
dimension   2
boundary    p f p

units              lj
atom_style      bond
atom_modify sort 0 1.
bond_style  harmonic
pair_style  none
comm_modify cutoff 2.0

# geometry
read_data       data.pos
Reading data file ...
  orthogonal box = (0 0 -0.5) to (64 1 0.5)
  4 by 1 by 1 MPI processor grid
  reading atoms ...
  64 atoms
  scanning bonds ...
  2 = max bonds/atom
  reading bonds ...
  64 bonds
Finding 1-2 1-3 1-4 neighbors ...
  special bond factors lj:    0        0        0       
  special bond factors coul:  0        0        0       
     2 = max # of 1-2 neighbors
     2 = max # of 1-3 neighbors
     4 = max # of 1-4 neighbors
     6 = max # of special neighbors
  special bonds CPU = 0.000 seconds
  read_data CPU = 0.001 seconds

#
neighbor 1.0 nsq
neigh_modify  delay 0 check no

#Langevin random seed
variable r equal 571101

#Langevin Temperature
variable t equal 0.005

# Langevin Damping variable
variable d equal 0.5

# Create velocities and equilibrate
compute   MyTemp all temp/partial 1 0 0
velocity  all create $t 28711 mom yes rot yes dist gaussian temp MyTemp
velocity  all create 0.005 28711 mom yes rot yes dist gaussian temp MyTemp
velocity  all set NULL 0.0 0.0 units box
#
fix        1 all langevin $t $t $d $r
fix        1 all langevin 0.005 $t $d $r
fix        1 all langevin 0.005 0.005 $d $r
fix        1 all langevin 0.005 0.005 0.5 $r
fix        1 all langevin 0.005 0.005 0.5 571101
fix_modify 1 temp MyTemp
fix        2 all setforce NULL 0. 0.
fix        3 all nve
fix        4 all phonon 10 50000 500000 map.in phonon sysdim 1
fix_modify 4 temp MyTemp

#                    1    2    3  4
thermo_style  custom step temp pe etotal
thermo_modify temp MyTemp
thermo   100

#
run              2000000

CITE-CITE-CITE-CITE-CITE-CITE-CITE-CITE-CITE-CITE-CITE-CITE-CITE

Your simulation uses code contributions which should be cited:

- fix phonon command: doi:10.1016/j.cpc.2011.04.019

@Article{Kong11,
 author = {L. T. Kong},
 title = {Phonon Dispersion Measured Directly from Molecular Dynamics Simulations},
 journal = {Comput.\ Phys.\ Commun.},
 year =    2011,
 volume =  182,
 pages =   {2201--2207}
}

CITE-CITE-CITE-CITE-CITE-CITE-CITE-CITE-CITE-CITE-CITE-CITE-CITE

WARNING: Communication cutoff 2 is shorter than a bond length based estimate of 2.5. This may lead to errors. (src/comm.cpp:723)
WARNING: Communication cutoff 2 is shorter than a bond length based estimate of 2.5. This may lead to errors. (src/comm.cpp:723)
WARNING: Inconsistent image flags (src/domain.cpp:815)
Per MPI rank memory allocation (min/avg/max) = 3.235 | 3.235 | 3.235 Mbytes
   Step          Temp          PotEng         TotEng    
         0   0.005          0              0.0024609375 
       100   0.0031092926   0.00040379819  0.0019341531 
       200   0.0039279141   0.00086859939  0.0028018696 
       300   0.0064511702   0.0014805212   0.0046557066 
       400   0.0047373042   0.0020887555   0.0044203974 
       500   0.0051359955   0.0024683239   0.0049961967 
       600   0.0056790179   0.0026466922   0.0054418338 
       700   0.0054525242   0.0028225133   0.0055061775 
       800   0.0055112651   0.0021776912   0.004890267  
       900   0.0050003129   0.0015646928   0.0040257843 
      1000   0.0049003177   0.001701767    0.0041136421 
      1100   0.0047411466   0.0021193246   0.0044528577 
      1200   0.0053835193   0.0019054194   0.0045551204 
      1300   0.0044792417   0.0020111925   0.0042158192 
      1400   0.0059891894   0.0019319674   0.0048797715 
      1500   0.0047035184   0.0023987012   0.0047137141 
      1600   0.0056797568   0.002766631    0.0055621363 
      1700   0.0063182531   0.0024726126   0.0055823778 
      1800   0.0040048174   0.0028326258   0.0048037469 
      1900   0.0046114794   0.0030783445   0.005348057  
      2000   0.0047870171   0.0029788442   0.0053349541 
      2100   0.0065542828   0.002712365    0.005938301  
      2200   0.0065784683   0.0028786985   0.0061165384 
      2300   0.0061937464   0.0036292734   0.006677758  
      2400   0.0066933832   0.0034035578   0.0066979573 
      2500   0.0065453168   0.0024818357   0.0057033588 
      2600   0.0052756649   0.0019078406   0.004504457  
      2700   0.0056619034   0.0013428201   0.0041295382 
      2800   0.0035394016   0.0014177079   0.0031597571 
      2900   0.004269206    0.001530366    0.0036316158 
      3000   0.0054419762   0.0020503515   0.0047288241 
      3100   0.0049565797   0.0024108077   0.0048503743 
      3200   0.00567568     0.0020776217   0.0048711205 
      3300   0.0046753683   0.0022037424   0.0045049003 
      3400   0.0054246376   0.0017626146   0.0044325534 
      3500   0.0054421912   0.0017537041   0.0044322826 
      3600   0.0061099993   0.0020075611   0.0050148264 
      3700   0.0040163755   0.0023383265   0.0043151363 
      3800   0.006683076    0.0019795058   0.0052688323 
      3900   0.0051400304   0.0017273226   0.0042571813 
      4000   0.004545797    0.0020524725   0.0042898569 
      4100   0.0061776203   0.0021697773   0.0052103248 
      4200   0.007241124    0.0017791449   0.0053431357 
      4300   0.0053079733   0.0013440496   0.0039565677 
      4400   0.0041356873   0.0016127731   0.0036483066 
      4500   0.0042719034   0.0016663692   0.0037689467 
      4600   0.0051491675   0.0016802514   0.0042146073 
      4700   0.0050961811   0.0022752318   0.0047835085 
      4800   0.0055374753   0.0024167371   0.0051422132 
      4900   0.0068004041   0.0022243353   0.0055714092 
      5000   0.0056272867   0.0024832453   0.0052529255 
      5100   0.0052627898   0.0026340507   0.0052243301 
      5200   0.0056680235   0.0025933592   0.0053830895 
      5300   0.0068164135   0.0033952558   0.0067502093 
      5400   0.0050555376   0.003557345    0.0060456174 
      5500   0.0059976858   0.0026983783   0.0056503643 
      5600   0.0054411749   0.0023033738   0.0049814521 
      5700   0.0060289983   0.0022403571   0.0052077547 
      5800   0.0043641156   0.0019509792   0.0040989423 
      5900   0.0054432847   0.00196019     0.0046393066 
      6000   0.0034082909   0.0020112851   0.0036888032 
      6100   0.0043928106   0.0018741478   0.0040362343 
      6200   0.0045230673   0.0017133115   0.0039395086 
      6300   0.0065489561   0.0022496203   0.0054729346 
      6400   0.0052678358   0.0024260994   0.0050188624 
      6500   0.0045943377   0.0023203803   0.0045816559 
      6600   0.0045040258   0.0023560041   0.0045728293 
      6700   0.0035414453   0.0022506129   0.0039936679 
      6800   0.0045245181   0.0021720697   0.004398981  
      6900   0.0043446261   0.0021090094   0.00424738   
      7000   0.0050994842   0.0022381066   0.004748009  
      7100   0.0035382116   0.002622187    0.0043636505 
      7200   0.0058864282   0.0026836924   0.0055809187 
      7300   0.0052436597   0.0021487099   0.0047295736 
      7400   0.005685301    0.0015839674   0.0043822015 
      7500   0.0056483316   0.0016032465   0.0043832847 
      7600   0.0035757235   0.0021629578   0.0039228842 
      7700   0.0051999693   0.002193788    0.0047531479 
      7800   0.006313871    0.0021671161   0.0052747245 
      7900   0.0047730576   0.002335035    0.0046842742 
      8000   0.0044387794   0.0025123631   0.0046970748 
      8100   0.0069234991   0.0024867047   0.0058943644 
      8200   0.0066840194   0.0024363507   0.0057261415 
      8300   0.0039825115   0.0026934721   0.0046536145 
      8400   0.0036344523   0.0029203838   0.0047092158 
      8500   0.0056537256   0.0027069512   0.0054896442 
      8600   0.0049288586   0.0020880106   0.0045139332 
      8700   0.0037567885   0.0018937      0.0037427443 
      8800   0.0051885248   0.0022767457   0.0048304727 
      8900   0.0048656999   0.0021481017   0.0045429384 
      9000   0.0053786685   0.0021649391   0.0048122525 
      9100   0.0041150429   0.0021872196   0.0042125923 
      9200   0.0045133627   0.0020803165   0.0043017372 
      9300   0.0060373426   0.0022172154   0.00518872   
      9400   0.0054588295   0.0027773114   0.005464079  
      9500   0.0058802452   0.0027602448   0.005654428  
      9600   0.0042195084   0.0032924694   0.0053692586 
      9700   0.0060165549   0.0025534048   0.005514678  
      9800   0.0050241517   0.001807778    0.0042806027 
      9900   0.0061489635   0.0023496208   0.0053760638 
     10000   0.0052326955   0.0027879909   0.0053634582 
     10100   0.0035569213   0.0026944818   0.004445154  
     10200   0.0066401928   0.0020453285   0.0053135484 
     10300   0.0060613441   0.002091832    0.0050751498 
     10400   0.0067776283   0.0026018522   0.0059377162 
     10500   0.004803969    0.0027545887   0.0051190422 
     10600   0.0071177837   0.0021458255   0.0056491097 
     10700   0.0051269808   0.0023613253   0.0048847611 
     10800   0.0047839896   0.0024783254   0.0048329453 
     10900   0.0067420174   0.0027433441   0.0060616808 
     11000   0.0050132918   0.0027008413   0.0051683209 
     11100   0.0047697403   0.002321385    0.0046689915 
     11200   0.0064471511   0.0025069987   0.0056802059 
     11300   0.0038256685   0.0031693059   0.0050522521 
     11400   0.0069277531   0.0030919855   0.006501739  
     11500   0.0054211261   0.0030552674   0.0057234779 
     11600   0.0058557273   0.0024084707   0.0052905865 
     11700   0.0046548338   0.0026850494   0.0049761004 
     11800   0.0048975299   0.0028348556   0.0052453586 
     11900   0.0056311916   0.0032767124   0.0060483145 
     12000   0.0049885908   0.0030157871   0.0054711092 
     12100   0.0048655578   0.002553305    0.0049480717 
     12200   0.0045185421   0.002484567    0.004708537  
     12300   0.0040890369   0.0024332877   0.0044458606 
     12400   0.0050885895   0.0023510207   0.0048555608 
     12500   0.004919956    0.0026253729   0.0050469137 
     12600   0.0050042266   0.0032084168   0.0056714346 
     12700   0.0043770546   0.0030207212   0.0051750527 
     12800   0.004449569    0.0032156953   0.0054057175 
     12900   0.0052140394   0.0033329527   0.0058992377 
     13000   0.0050918569   0.0032002078   0.0057063561 
     13100   0.0057436034   0.0029710222   0.005797952  
     13200   0.004775945    0.0029036859   0.0052543463 
     13300   0.0063195631   0.0026689886   0.0057793986 
     13400   0.0056684048   0.0025854251   0.0053753431 
     13500   0.0042746154   0.0027119481   0.0048158603 
     13600   0.0051941538   0.0029753599   0.0055318575 
     13700   0.0045493047   0.0034187278   0.0056578387 
     13800   0.0046606562   0.0037771756   0.0060710923 
     13900   0.0055316524   0.0032705549   0.0059931651 
     14000   0.0049580813   0.0027899606   0.0052302662 
     14100   0.0070364257   0.0022597167   0.0057229575 
     14200   0.0065490894   0.0023408445   0.0055642244 
     14300   0.0073815901   0.0023889763   0.0060221027 
     14400   0.0053736605   0.0027999105   0.005444759  
     14500   0.0050721119   0.0027714491   0.0052678792 
     14600   0.0046831327   0.0024454872   0.0047504666 
     14700   0.0055929323   0.002116225    0.0048689964 
     14800   0.00487938     0.0022487257   0.0046502955 
     14900   0.0041725188   0.0026516791   0.0047053407 
     15000   0.0048485447   0.0025045419   0.0048909351 
     15100   0.0053467949   0.0026021928   0.0052338184 
     15200   0.005600918    0.0024956603   0.0052523621 
     15300   0.0063638104   0.0028988598   0.0060310477 
     15400   0.0048681522   0.0031580964   0.0055541401 
     15500   0.004181491    0.0032345472   0.0052926248 
     15600   0.0051507408   0.0026730128   0.005208143  
     15700   0.0049806355   0.0021046656   0.0045560722 
     15800   0.0032597397   0.0024267351   0.0040311383 
     15900   0.0049003502   0.002432989    0.0048448802 
     16000   0.0050497143   0.0027552322   0.0052406384 
     16100   0.0069256157   0.0028386702   0.0062473717 
     16200   0.0046227818   0.0024819379   0.0047572133 
     16300   0.0054134318   0.0023405561   0.0050049796 
     16400   0.006374811    0.0025726433   0.0057102456 
     16500   0.0066448674   0.0030882352   0.0063587559 
     16600   0.0045447667   0.0031809644   0.0054178418 
     16700   0.0034559814   0.002855938    0.0045569288 
     16800   0.0051066369   0.0029599979   0.0054734207 
     16900   0.0067744469   0.0028635139   0.0061978119 
     17000   0.0046669786   0.0030451959   0.0053422245 
     17100   0.0048511517   0.0029146776   0.0053023538 
     17200   0.0052254364   0.0031715416   0.005743436  
     17300   0.0051298417   0.0028949342   0.0054197782 
     17400   0.0052361032   0.0027066784   0.0052838229 
     17500   0.0050390546   0.0025040195   0.0049841791 
     17600   0.0040351246   0.0028207324   0.0048067703 
     17700   0.0056635824   0.002820155    0.0056076995 
     17800   0.0056887209   0.00317468     0.0059745974 
     17900   0.0049440169   0.003511139    0.0059445223 
     18000   0.0054897198   0.0033864147   0.0060883862 
     18100   0.005879619    0.0033533515   0.0062472265 
     18200   0.0041932291   0.0032324656   0.0052963205 
     18300   0.0044018703   0.0027032247   0.0048697703 
     18400   0.0041983735   0.00288756     0.0049539469 
     18500   0.0053416187   0.0032088075   0.0058378854 
     18600   0.004562029    0.0034476786   0.0056930523 
     18700   0.0057561306   0.0033556537   0.0061887493 
     18800   0.0058986022   0.0027969897   0.005700208  
     18900   0.004171279    0.0027614162   0.0048144676 
     19000   0.0054946224   0.0026177619   0.0053221464 
     19100   0.0049922844   0.0023638596   0.0048209995 
     19200   0.004687501    0.0022800612   0.0045871906 
     19300   0.0050481806   0.0024432668   0.0049279181 
     19400   0.0047490937   0.0024888854   0.00482633   
     19500   0.0054990369   0.0021439626   0.0048505198 
     19600   0.0047928046   0.0020857284   0.0044446869 
     19700   0.0036340477   0.0022735134   0.0040621463 
     19800   0.0051410333   0.0021618653   0.0046922177 
     19900   0.0065478784   0.0025517473   0.0057745312 
     20000   0.0035167257   0.0027721702   0.0045030586 
     20100   0.0041179286   0.0024535857   0.0044803787 
     20200   0.0043676783   0.0021276434   0.0042773601 
     20300   0.0050148447   0.0020943064   0.0045625503 
     20400   0.0054429129   0.0022268018   0.0049057356 
     20500   0.0058321233   0.0022379381   0.0051084362 
     20600   0.0066270292   0.0020393432   0.0053010842 
     20700   0.004295378    0.0024717644   0.0045858958 
     20800   0.0055329877   0.002509889    0.0052331563 
     20900   0.0045122556   0.0025360094   0.0047568852 
     21000   0.005270327    0.0027971303   0.0053911193 
     21100   0.0043225609   0.0034493845   0.005576895  
     21200   0.0052944547   0.0033038906   0.005909755  
     21300   0.0059584834   0.0024788501   0.0054115412 
     21400   0.0044898274   0.0024249254   0.0046347623 
     21500   0.0059771607   0.0023183759   0.0052602597 
     21600   0.004790593    0.0017687452   0.0041266152 
     21700   0.0050672709   0.0020666766   0.004560724  
     21800   0.0050570228   0.0027424564   0.0052314598 
     21900   0.0053769964   0.0028247055   0.0054711959 
     22000   0.0062028834   0.0025287646   0.0055817463 
     22100   0.0045987403   0.0028021561   0.0050655986 
     22200   0.0056176826   0.002809137    0.0055740902 
     22300   0.0048838611   0.0029758252   0.0053796006 
     22400   0.0063379833   0.0029710695   0.0060905457 
     22500   0.004581338    0.0032559908   0.0055108681 
     22600   0.0052400691   0.0028046327   0.0053837292 
     22700   0.006448842    0.0021840962   0.0053581356 
     22800   0.00575483     0.0020443807   0.0048768361 
     22900   0.005732221    0.0021246212   0.0049459487 
     23000   0.005264346    0.0025494884   0.0051405337 
     23100   0.0034644345   0.0030264045   0.0047315558 
     23200   0.0048601736   0.0030798408   0.0054719575 
     23300   0.0072877103   0.0025255208   0.0061124407 
     23400   0.0076319628   0.0025273033   0.00628366   
     23500   0.0061085785   0.0027717487   0.0057783147 
     23600   0.0055387401   0.0029187435   0.0056448421 
     23700   0.0042649846   0.0026187689   0.004717941  
     23800   0.0045735494   0.0027724545   0.0050234983 
     23900   0.0034010395   0.0031538022   0.0048277514 
     24000   0.0045051528   0.003327378    0.0055447579 
     24100   0.0068309338   0.0032021011   0.0065642013 
     24200   0.0039097742   0.0033365467   0.0052608887 
     24300   0.0065925239   0.0030325694   0.0062773273 
     24400   0.0067880973   0.0028966348   0.0062376515 
     24500   0.0056149109   0.0030633411   0.00582693   
     24600   0.0043486613   0.0036810389   0.0058213956 
     24700   0.0056721851   0.0031597698   0.0059515485 
     24800   0.0070161406   0.0030335373   0.006486794  
     24900   0.0057156254   0.0033636552   0.0061768146 
     25000   0.0045449739   0.0032291656   0.0054661449 
     25100   0.0051999223   0.0030856763   0.005645013  
     25200   0.0055890758   0.0034022145   0.0061530878 
     25300   0.006235958    0.0032149996   0.0062842602 
     25400   0.0035615605   0.0031945875   0.0049475431 
     25500   0.0042495603   0.0032143371   0.0053059176 
     25600   0.0048304585   0.003015531    0.0053930222 
     25700   0.0056845479   0.0029249434   0.0057228068 
     25800   0.0075757358   0.0024320672   0.0061607497 
     25900   0.0042768233   0.0025083058   0.0046133048 
     26000   0.0050457092   0.0021254399   0.0046088749 
     26100   0.005330724    0.0020636982   0.0046874139 
     26200   0.0041813514   0.0020444241   0.004102433  
     26300   0.0048650223   0.0017385057   0.0041330088 
     26400   0.0037818418   0.0018839961   0.0037453714 
     26500   0.0057264594   0.0017003156   0.0045188074 
     26600   0.0046952689   0.0020179294   0.004328882  
     26700   0.0046541949   0.0023098013   0.0046005379 
     26800   0.0041627743   0.0022906129   0.0043394784 
     26900   0.0050172995   0.0023363927   0.0048058448 
     27000   0.0050219399   0.0026852      0.005156936  
     27100   0.0047405592   0.0026176105   0.0049508544 
     27200   0.0044825745   0.0024694682   0.0046757354 
     27300   0.0047274423   0.0021207316   0.0044475196 
     27400   0.0050886794   0.0018025682   0.0043071526 
     27500   0.004285933    0.0017975262   0.0039070088 
     27600   0.0047306842   0.0015745587   0.0039029424 
     27700   0.0055355996   0.0018138195   0.0045383724 
     27800   0.0040352679   0.001845378    0.0038314864 
     27900   0.0052799246   0.0018621238   0.0044608367 
     28000   0.0037930104   0.0021002345   0.0039671068 
     28100   0.0042318968   0.0025565718   0.0046394585 
     28200   0.0061595984   0.0021361623   0.0051678396 
     28300   0.0038497065   0.0018018518   0.0036966292 
     28400   0.003245253    0.0021151839   0.0037124568 
     28500   0.0052368494   0.002063938    0.0046414498 
     28600   0.0037896292   0.0018143999   0.003679608  
     28700   0.0040484295   0.0016286098   0.0036211961 
     28800   0.0057167495   0.0014573467   0.0042710594 
     28900   0.0058690264   0.0016224728   0.0045111342 
     29000   0.0041766642   0.0019000434   0.0039557453 
     29100   0.0064427458   0.0020981369   0.0052691758 
     29200   0.0047567776   0.0025555943   0.0048968208 
     29300   0.0076126557   0.0027153701   0.0064622241 
     29400   0.0060747608   0.0029299654   0.0059198867 
     29500   0.0057414909   0.0029908265   0.0058167165 
     29600   0.0050366775   0.0029775661   0.0054565559 
     29700   0.0048702432   0.0027577685   0.0051548414 
     29800   0.0042150351   0.0022249531   0.0042995407 
     29900   0.0050072153   0.002188825    0.0046533138 
     30000   0.0052385931   0.0019504754   0.0045288454 
     30100   0.0047964015   0.0022543927   0.0046151216 
     30200   0.0056668869   0.0027090712   0.0054982421 
     30300   0.0064152664   0.0029260648   0.0060835788 
     30400   0.0062010296   0.003120472    0.0061725413 
     30500   0.0074267397   0.0029896791   0.0066450276 
     30600   0.0045120905   0.0023382835   0.004559078  
     30700   0.0055545204   0.0018773436   0.0046112091 
     30800   0.0056187483   0.0021024235   0.0048679011 
     30900   0.0047279802   0.0023396354   0.0046666881 
     31000   0.0042382678   0.0023830179   0.0044690404 
     31100   0.0048707358   0.0020682878   0.0044656031 
     31200   0.004261005    0.0029128294   0.0050100428 
     31300   0.0047470895   0.0029022367   0.0052386948 
     31400   0.0061144328   0.0025283589   0.0055378063 
     31500   0.0056163879   0.0027902851   0.005554601  
     31600   0.0041200566   0.0030247304   0.0050525707 
     31700   0.0043076058   0.0025774137   0.0046975635 
     31800   0.0052202256   0.0022890934   0.0048584231 
     31900   0.0039812256   0.0024323832   0.0043918927 
     32000   0.0038963387   0.0029255952   0.0048433244 
     32100   0.0055946825   0.0031187197   0.0058723525 
     32200   0.0039750694   0.0039995895   0.005956069  
     32300   0.0041170866   0.0034436832   0.0054700618 
     32400   0.0034177152   0.0028501717   0.0045323284 
     32500   0.005211506    0.0021803993   0.0047454374 
     32600   0.0044555612   0.0023413902   0.0045343617 
     32700   0.0047028007   0.0025708999   0.0048855596 
     32800   0.0040347665   0.0029579324   0.004943794  
     32900   0.0041328875   0.0031629897   0.0051971453 
     33000   0.0062793076   0.0026142846   0.0057048813 
     33100   0.0041605022   0.0027985246   0.0048462718 
     33200   0.0072365722   0.0026690435   0.0062307939 
     33300   0.0044803372   0.0024881199   0.0046932859 
     33400   0.0048456915   0.0024046471   0.0047896359 
     33500   0.004893503    0.0021586304   0.0045671514 
     33600   0.0042559619   0.0021639019   0.0042586331 
     33700   0.0056756713   0.0021576654   0.0049511599 
     33800   0.0063596382   0.0024806605   0.005610795  
     33900   0.0055994926   0.0026727578   0.0054287581 
     34000   0.0064562521   0.0025124205   0.0056901071 
     34100   0.003913677    0.0028074552   0.0047337181 
     34200   0.0050900746   0.0025231402   0.0050284113 
     34300   0.0065617931   0.0026154256   0.0058450581 
     34400   0.0048011692   0.0030905988   0.0054536743 
     34500   0.0048056709   0.0032156058   0.0055808969 
     34600   0.0040354422   0.0030971678   0.005083362  
     34700   0.006087834    0.0027728878   0.0057692436 
     34800   0.0053797652   0.0026855103   0.0053333635 
     34900   0.0058378493   0.0028486122   0.0057219287 
     35000   0.0049625915   0.0026119678   0.0050544933 
     35100   0.00730345     0.0022506484   0.0058453152 
     35200   0.0052971237   0.0025621919   0.0051693699 
     35300   0.0059798176   0.0025908986   0.0055340901 
     35400   0.0072213603   0.0027714175   0.0063256808 
     35500   0.0036919283   0.0031586592   0.0049757801 
     35600   0.0059948028   0.002976643    0.00592721   
     35700   0.0058987959   0.0025320278   0.0054353415 
     35800   0.0085632108   0.0024165878   0.0066312932 
     35900   0.0049659305   0.002623482    0.0050676509 
     36000   0.0048871312   0.0026692854   0.0050746703 
     36100   0.0050423605   0.0028126033   0.0052943902 
     36200   0.0054508664   0.0027813974   0.0054642457 
     36300   0.0043917001   0.0024449272   0.0046064671 
     36400   0.0058852486   0.001662152    0.0045587978 
     36500   0.004376686    0.0012946708   0.003448821  
     36600   0.0045995068   0.0014132429   0.0036770626 
     36700   0.0052640792   0.0016298257   0.0042207397 
     36800   0.0046101058   0.0022292853   0.0044983217 
     36900   0.0062925203   0.0027288883   0.0058259881 
     37000   0.0058887204   0.0030900839   0.0059884384 
     37100   0.003955873    0.00280184     0.0047488712 
     37200   0.0051728133   0.0023278277   0.0048738217 
     37300   0.0044624074   0.002153214    0.0043495552 
     37400   0.0054219103   0.0021778367   0.0048464331 
     37500   0.0056408011   0.0022706441   0.0050469759 
     37600   0.0056867515   0.0020669251   0.0048658731 
     37700   0.0054355104   0.0018766256   0.0045519159 
     37800   0.0060895364   0.002088862    0.0050860557 
     37900   0.0052695007   0.0020859158   0.0046794982 
     38000   0.0051904573   0.0018629764   0.0044176546 
     38100   0.0051914814   0.002059636    0.0046148182 
     38200   0.0052801103   0.0020918637   0.004690668  
     38300   0.0043833673   0.0021607426   0.0043181812 
     38400   0.0063337657   0.0022764335   0.0053938338 
     38500   0.0061489876   0.002666119    0.0056925738 
     38600   0.0065438448   0.0028713253   0.0060921239 
     38700   0.0069803926   0.0029497225   0.0063853844 
     38800   0.0042546671   0.0032903986   0.0053844925 
     38900   0.006328746    0.0034787891   0.0065937188 
     39000   0.0062059977   0.0037241942   0.0067787087 
     39100   0.0058922502   0.0032950137   0.0061951056 
     39200   0.0069862319   0.0024531871   0.0058917231 
     39300   0.0068722351   0.0026125238   0.005994952  
     39400   0.0044678762   0.0029836049   0.0051826378 
     39500   0.0048324623   0.0024639161   0.0048423936 
     39600   0.0052848494   0.0018086831   0.0044098199 
     39700   0.0057744393   0.0017420292   0.0045841361 
     39800   0.0055283138   0.0020003167   0.0047212837 
     39900   0.0054910471   0.001966547    0.0046691718 
     40000   0.0058599724   0.0020328682   0.0049170734 
     40100   0.0056009066   0.0021835491   0.0049402454 
     40200   0.0061286205   0.0022872447   0.0053036752 
     40300   0.0055799686   0.0023823168   0.0051287076 
     40400   0.0056994039   0.0027070242   0.0055121996 
     40500   0.0047968544   0.0028433836   0.0052043354 
     40600   0.0046229571   0.0024847847   0.0047601464 
     40700   0.0054599132   0.0023632247   0.0050505257 
     40800   0.0048089307   0.0022941492   0.0046610448 
     40900   0.0059855807   0.0024140102   0.0053600382 
     41000   0.0049511345   0.002463219    0.0049001055 
     41100   0.0043615952   0.0024588088   0.0046055315 
     41200   0.0054054808   0.0024869736   0.0051474837 
     41300   0.0035397634   0.0029027072   0.0046449345 
     41400   0.0060651017   0.0026547866   0.0056399539 
     41500   0.0047277528   0.0025713454   0.0048982863 
     41600   0.0048286022   0.0021934611   0.0045700388 
     41700   0.0045903816   0.0020430148   0.0043023432 
     41800   0.0043399978   0.0022056343   0.0043417269 
     41900   0.0051569228   0.0020364457   0.0045746186 
     42000   0.0047952234   0.0018950341   0.0042551831 
     42100   0.0050371729   0.0021271879   0.0046064214 
     42200   0.0050711136   0.0025738144   0.0050697532 
     42300   0.0048236072   0.0029130705   0.0052871896 
     42400   0.0044010377   0.0031443185   0.0053104543 
     42500   0.0059897978   0.0028640967   0.0058122003 
     42600   0.0038422824   0.0028080627   0.0046991861 
     42700   0.0056509967   0.0027291941   0.005510544  
     42800   0.0042071761   0.0029230606   0.0049937801 
     42900   0.0042193067   0.0026382709   0.0047149609 
     43000   0.0052480966   0.0022338417   0.0048168892 
     43100   0.005522502    0.002039487    0.0047575934 
     43200   0.0058423562   0.0023365092   0.0052120438 
     43300   0.0046834013   0.0024156241   0.0047207356 
     43400   0.0041374095   0.0021058427   0.0041422239 
     43500   0.0058634201   0.0022094852   0.0050953872 
     43600   0.0046182426   0.0024466051   0.0047196464 
     43700   0.0049200288   0.0022391918   0.0046607685 
     43800   0.0057244756   0.0022968649   0.0051143803 
     43900   0.0058377262   0.0022191461   0.005092402  
     44000   0.0045298591   0.0027006662   0.0049302063 
     44100   0.0034804595   0.0031901258   0.0049031645 
     44200   0.0046654548   0.0028375831   0.0051338616 
     44300   0.0065913375   0.0023608728   0.0056050467 
     44400   0.004852674    0.0025328711   0.0049212966 
     44500   0.0060857702   0.0022299535   0.0052252936 
     44600   0.004425753    0.0022909724   0.0044692727 
     44700   0.0053830457   0.0021993527   0.0048488205 
     44800   0.0054246736   0.0027316494   0.0054016059 
     44900   0.0056320375   0.0028277009   0.0055997194 
     45000   0.0066433951   0.0024791215   0.0057489176 
     45100   0.0064237078   0.0020807233   0.005242392  
     45200   0.0050712488   0.0024388037   0.004934809  
     45300   0.0061357574   0.0025291205   0.0055490636 
     45400   0.0051832243   0.0025725279   0.0051236461 
     45500   0.0053433545   0.0018614422   0.0044913745 
     45600   0.0046224495   0.0017536992   0.0040288111 
     45700   0.0044520617   0.0016574041   0.0038486532 
     45800   0.0048541322   0.0018061685   0.0041953117 
     45900   0.0037656301   0.0019218755   0.0037752715 
     46000   0.0049253038   0.0017347223   0.0041588952 
     46100   0.0080366601   0.0018538199   0.0058093636 
     46200   0.0051968486   0.0020311005   0.0045889244 
     46300   0.0036341036   0.0023502428   0.0041389031 
     46400   0.0048643106   0.0021348796   0.0045290325 
     46500   0.0042532667   0.0017966314   0.0038900361 
     46600   0.0051351736   0.0022954508   0.004822919  
     46700   0.0064077543   0.0022535448   0.0054073614 
     46800   0.0053069906   0.0019501388   0.0045621732 
     46900   0.00444173     0.0017552894   0.0039414533 
     47000   0.0045493159   0.0017915283   0.0040306447 
     47100   0.0047988382   0.0020509901   0.0044129182 
     47200   0.0046359373   0.0021243589   0.0044061093 
     47300   0.0058430427   0.001944178    0.0048200506 
     47400   0.0051240047   0.0019098295   0.0044318006 
     47500   0.0044751278   0.0020569405   0.0042595425 
     47600   0.0056649938   0.0020727306   0.0048609697 
     47700   0.0032412862   0.0022585668   0.0038538873 
     47800   0.0068755144   0.0017509017   0.005134944  
     47900   0.0037889607   0.0017356028   0.0036004819 
     48000   0.0045654479   0.0022019401   0.0044489965 
     48100   0.0050696536   0.0025464754   0.0050416956 
     48200   0.0055857755   0.0028438484   0.0055930973 
     48300   0.0044025891   0.002854618    0.0050215174 
     48400   0.0036912724   0.0022986696   0.0041154677 
     48500   0.0046860971   0.0020477439   0.0043541824 
     48600   0.0048275121   0.001977789    0.0043538301 
     48700   0.0037416362   0.0026342835   0.00447587   
     48800   0.0055730939   0.0025685349   0.0053115421 
     48900   0.0051819998   0.002543137    0.0050936526 
     49000   0.0052188892   0.0024982216   0.0050668936 
     49100   0.0051652225   0.0026542001   0.0051964581 
     49200   0.0054453028   0.0030541746   0.0057342845 
     49300   0.0053947386   0.002738394    0.0053936168 
     49400   0.0063579991   0.00239582     0.0055251477 
     49500   0.006528586    0.0022369185   0.0054502069 
     49600   0.0044034693   0.0028330478   0.0050003804 
     49700   0.0056727625   0.0028099507   0.0056020135 
     49800   0.0043653481   0.002720564    0.0048691338 
     49900   0.0046597798   0.0025349663   0.0048284516 
     50000   0.0052933222   0.0027579917   0.0053632987 
     50100   0.0039339254   0.0027051142   0.0046413431 
     50200   0.0041284865   0.0022670852   0.0042990747 
     50300   0.0042675751   0.002292962    0.0043934091 
     50400   0.004289444    0.0025165916   0.0046278023 
     50500   0.0037658203   0.0028293094   0.0046827991 
     50600   0.0048503604   0.0025583313   0.0049456181 
     50700   0.0061761989   0.0020442165   0.0050840643 
     50800   0.0052612743   0.002184757    0.0047742904 
     50900   0.0073896746   0.0024261726   0.006063278  
     51000   0.0062873711   0.0023875812   0.0054821466 
     51100   0.0064470829   0.0021771864   0.00535036   
     51200   0.004880062    0.0024538531   0.0048557587 
     51300   0.0052523628   0.0022732214   0.0048583687 
     51400   0.0052394924   0.0023781803   0.004956993  
     51500   0.0039796224   0.0029113805   0.0048701008 
     51600   0.0064184777   0.0027375379   0.0058966324 
     51700   0.0056029741   0.0029126654   0.0056703793 
     51800   0.0059927679   0.0029288337   0.0058783992 
     51900   0.0059489382   0.0028366718   0.0057646649 
     52000   0.0058144888   0.0026501852   0.0055120039 
     52100   0.0059379992   0.0022779526   0.0052005615 
     52200   0.0065256134   0.0019969986   0.005208824  
     52300   0.0048225829   0.0022542333   0.0046278483 
     52400   0.005131577    0.002066672    0.0045923701 
     52500   0.0040958222   0.0017579172   0.0037738297 
     52600   0.005194631    0.0016662004   0.0042229328 
     52700   0.0035620693   0.0016046777   0.0033578837 
     52800   0.0055449807   0.001454566    0.0041837362 
     52900   0.0039053835   0.001887189    0.0038093699 
     53000   0.0043031657   0.0022651418   0.0043831062 
     53100   0.0039730849   0.0023945596   0.0043500623 
     53200   0.0052178592   0.0018976116   0.0044657767 
     53300   0.005307497    0.0016101643   0.004222448  
     53400   0.0046646002   0.0019185625   0.0042144204 
     53500   0.0026995641   0.0023139328   0.0036426245 
     53600   0.0052326327   0.0023278376   0.004903274  
     53700   0.0037869084   0.0023525329   0.0042164019 
     53800   0.0037463138   0.0021992956   0.0040431844 
     53900   0.004496825    0.0022581519   0.004471433  
     54000   0.0057660791   0.0024945312   0.0053325232 
     54100   0.0061380315   0.0037129682   0.0067340305 
     54200   0.0046104183   0.0036979259   0.0059671161 
     54300   0.0057958224   0.0034695141   0.0063221455 
     54400   0.0048332403   0.0034151314   0.0057939918 
     54500   0.0049693773   0.002820724    0.0052665894 
     54600   0.0045103017   0.0027294131   0.0049493272 
     54700   0.0043333968   0.0027706615   0.0049035053 
     54800   0.0046199654   0.0022569874   0.0045308766 
     54900   0.0052861212   0.0021567699   0.0047585327 
     55000   0.0047585824   0.0023981935   0.0047403083 
     55100   0.005124486    0.0023184498   0.0048406578 
     55200   0.0058088782   0.002483519    0.0053425762 
     55300   0.005216959    0.0021403532   0.0047080752 
     55400   0.0046261335   0.0025583826   0.0048353077 
     55500   0.0057579771   0.0027232685   0.0055572728 
     55600   0.0041409444   0.0025401723   0.0045782933 
     55700   0.0042118565   0.0022279306   0.0043009537 
     55800   0.0053401908   0.0019908841   0.0046192593 
     55900   0.0046193509   0.0024350302   0.004708617  
     56000   0.0058551596   0.0027796935   0.0056615299 
     56100   0.0062778834   0.0021096314   0.0051995271 
     56200   0.0049990389   0.0019808532   0.0044413176 
     56300   0.005667261    0.0021110132   0.0049003682 
     56400   0.0043763366   0.0027361171   0.0048900953 
     56500   0.0044730567   0.0038021939   0.0060037765 
     56600   0.0055258064   0.0036028104   0.0063225432 
     56700   0.0062959125   0.0032143303   0.0063130998 
     56800   0.0042019051   0.0031651388   0.005233264  
     56900   0.0060869881   0.002905635    0.0059015744 
     57000   0.0057868988   0.0027878009   0.0056360401 
     57100   0.0064950497   0.0029399405   0.0061367228 
     57200   0.0050587709   0.0026105139   0.0051003777 
     57300   0.0053527418   0.0023974504   0.005032003  
     57400   0.003922727    0.0021677513   0.0040984684 
     57500   0.0037475815   0.0024135009   0.0042580137 
     57600   0.0053270862   0.002463369    0.0050852943 
     57700   0.0045609319   0.0028937259   0.0051385595 
     57800   0.0069238565   0.0028018135   0.0062096492 
     57900   0.006054894    0.0026147955   0.0055949386 
     58000   0.0057192263   0.0029135455   0.0057284772 
     58100   0.0048946299   0.0025414547   0.0049505303 
     58200   0.003849572    0.002477886    0.0043725973 
     58300   0.0041912557   0.0023914223   0.0044543059 
     58400   0.0052934173   0.0021797269   0.0047850807 
     58500   0.0039186585   0.0019992363   0.003927951  
     58600   0.0053470831   0.0019047638   0.0045365312 
     58700   0.0085743974   0.0016808313   0.0059010425 
     58800   0.0048791203   0.0022616712   0.0046631132 
     58900   0.0050189617   0.0024291926   0.0048994628 
     59000   0.004253455    0.0020956428   0.0041891402 
     59100   0.0060767167   0.0023415227   0.0053324067 
     59200   0.0048321865   0.0027353929   0.0051137347 
     59300   0.0048977252   0.0027351029   0.0051457021 
     59400   0.0069428306   0.0028635561   0.0062807305 
     59500   0.0060870338   0.0028130836   0.0058090455 
     59600   0.0053928323   0.0023989577   0.0050532423 
     59700   0.004054515    0.0018770089   0.0038725905 
     59800   0.0054963992   0.0015445642   0.0042498232 
     59900   0.0042701987   0.0017503963   0.0038521348 
     60000   0.0043336871   0.0019396657   0.0040726523 
     60100   0.0041307694   0.0022506674   0.0042837805 
     60200   0.003790249    0.0022967599   0.004162273  
     60300   0.0055833267   0.0021989572   0.0049470008 
     60400   0.0036377404   0.0022479319   0.0040383822 
     60500   0.0058214434   0.0018167156   0.0046819573 
     60600   0.0046723496   0.0021228113   0.0044224834 
     60700   0.0047974296   0.0023165037   0.0046777386 
     60800   0.0044223476   0.002395644    0.0045722682 
     60900   0.0050279614   0.0024646163   0.004939316  
     61000   0.0060984498   0.002411333    0.0054129137 
     61100   0.0051019827   0.0026219034   0.0051330355 
     61200   0.0050952837   0.0026447827   0.0051526177 
     61300   0.0060527815   0.00238081     0.0053599134 
     61400   0.0049286023   0.0025701005   0.0049958969 
     61500   0.005969882    0.0021249039   0.0050632051 
     61600   0.0046007253   0.0023236173   0.0045880368 
     61700   0.0044396835   0.0025771435   0.0047623002 
     61800   0.0056639445   0.0023601406   0.0051478633 
     61900   0.006055309    0.0021640884   0.0051444358 
     62000   0.0057279406   0.0025880729   0.0054072937 
     62100   0.0067898204   0.0027957117   0.0061375765 
     62200   0.0047542979   0.0029157249   0.0052557309 
     62300   0.0055163244   0.0030389236   0.0057539895 
     62400   0.004623678    0.0029257019   0.0052014185 
     62500   0.006981775    0.0028329928   0.0062693352 
     62600   0.0052790636   0.0025089823   0.0051072715 
     62700   0.004502983    0.0025521714   0.0047684833 
     62800   0.005198644    0.002347132    0.0049058396 
     62900   0.0056829005   0.0019331054   0.004730158  
     63000   0.0061506305   0.0024549965   0.0054822599 
     63100   0.0053233931   0.002854602    0.0054747096 
     63200   0.0039360144   0.0027564754   0.0046937325 
     63300   0.004489603    0.0027418476   0.0049515741 
     63400   0.0045865176   0.0025666641   0.0048240907 
     63500   0.0053091807   0.0025226324   0.0051357448 
     63600   0.0058253669   0.0025830883   0.0054502611 
     63700   0.0048093506   0.0023022853   0.0046693876 
     63800   0.0045950013   0.002432953    0.0046945552 
     63900   0.0051578718   0.0023777817   0.0049164218 
     64000   0.0047482866   0.002104565    0.0044416124 
     64100   0.0070255221   0.0021853492   0.0056432233 
     64200   0.0046851077   0.0026144698   0.0049204212 
     64300   0.0039295793   0.0030161401   0.0049502299 
     64400   0.0048660988   0.0026698987   0.0050649317 
     64500   0.0063953974   0.0028111385   0.0059588731 
     64600   0.0056994558   0.0028564498   0.0056616507 
     64700   0.0053282082   0.0028300066   0.005452484  
     64800   0.00507252     0.0030659405   0.0055625715 
     64900   0.0041852498   0.0031037884   0.005163716  
     65000   0.0045581036   0.0032779545   0.0055213961 
     65100   0.0046913219   0.0032499247   0.0055589347 
     65200   0.0054147947   0.0031621711   0.0058272654 
     65300   0.0054888969   0.0029858355   0.005687402  
     65400   0.0065697151   0.0029281082   0.0061616398 
     65500   0.0060901872   0.0034613474   0.0064588614 
     65600   0.0049597153   0.0033572894   0.0057983993 
     65700   0.0039222949   0.0029538356   0.0048843402 
     65800   0.0044882884   0.0029928496   0.0052019291 
     65900   0.0052161718   0.0026758705   0.0052432051 
     66000   0.0065934271   0.0022680927   0.0055132951 
     66100   0.0050492444   0.0023166854   0.0048018603 
     66200   0.0056593498   0.0025581565   0.0053436177 
     66300   0.0049524609   0.0023519584   0.0047894978 
     66400   0.0063402264   0.0023849748   0.005505555  
     66500   0.004771672    0.00244859     0.0047971473 
     66600   0.0051824552   0.002613505    0.0051642446 
     66700   0.005774468    0.0028348791   0.005677     
     66800   0.0046950833   0.0030075585   0.0053184198 
     66900   0.0053165495   0.0027537876   0.0053705268 
     67000   0.0057308856   0.0025272009   0.0053478711 
     67100   0.0046796202   0.0026661548   0.0049694054 
     67200   0.0047437058   0.0027420071   0.0050767998 
     67300   0.0050394751   0.0025004341   0.0049808008 
     67400   0.0055788811   0.0026418202   0.0053876757 
     67500   0.0070713654   0.0028505191   0.0063309568 
     67600   0.0059801004   0.002765848    0.0057091787 
     67700   0.0040164007   0.0031384648   0.0051152871 
     67800   0.0075967981   0.0028843543   0.0066234034 
     67900   0.0047833735   0.0027882528   0.0051425694 
     68000   0.0063575501   0.0022887647   0.0054178714 
     68100   0.0065862164   0.0024200602   0.0056617136 
     68200   0.0046499936   0.0024835086   0.0047721774 
     68300   0.0043503721   0.0023886701   0.0045298689 
     68400   0.0053742441   0.0021740698   0.0048192056 
     68500   0.0059063897   0.0020291838   0.004936235  
     68600   0.0037691784   0.0023709168   0.0042260593 
     68700   0.0042457471   0.0025315096   0.0046212133 
     68800   0.0047705747   0.0028486739   0.0051966911 
     68900   0.0056572728   0.0027676577   0.0055520966 
     69000   0.0048876697   0.0026945633   0.0051002133 
     69100   0.0052634311   0.0025543709   0.0051449659 
     69200   0.0039270634   0.0024077842   0.0043406358 
     69300   0.0047719266   0.0025001822   0.0048488648 
     69400   0.0045964308   0.0031156371   0.0053779429 
     69500   0.0038131207   0.0031568404   0.0050336107 
     69600   0.0040019157   0.0028941661   0.0048638589 
     69700   0.0057987524   0.0024173543   0.0052714277 
     69800   0.0055944122   0.0023275401   0.0050810399 
     69900   0.0055300148   0.0028197269   0.005541531  
     70000   0.0051611491   0.0030411359   0.005581389  
     70100   0.0040971549   0.0031491635   0.0051657319 
     70200   0.0055808339   0.0027528473   0.0054996639 
     70300   0.0042680699   0.0031070625   0.0052077532 
     70400   0.0055008862   0.0028543271   0.0055617945 
     70500   0.0039595314   0.0030008573   0.0049496891 
     70600   0.0045317436   0.0031540993   0.0053845669 
     70700   0.0063358217   0.0026458835   0.0057642957 
     70800   0.0056228319   0.0027053506   0.0054728382 
     70900   0.0038862998   0.0030872936   0.0050000818 
     71000   0.0037652125   0.0030456236   0.0048988141 
     71100   0.0058617583   0.0027103107   0.0055953949 
     71200   0.0047988175   0.0035246525   0.0058865705 
     71300   0.0039944958   0.0037905669   0.0057566078 
     71400   0.0044217413   0.0034184861   0.0055948119 
     71500   0.0053516896   0.0026979819   0.0053320166 
     71600   0.005877523    0.0025172463   0.0054100897 
     71700   0.004796699    0.0024635307   0.0048244059 
     71800   0.0054039206   0.002438195    0.0050979372 
     71900   0.0059330037   0.0027598928   0.0056800431 
     72000   0.0035154301   0.0025919891   0.0043222399 
     72100   0.0053907319   0.0023632867   0.0050165376 
     72200   0.0039996053   0.0023936698   0.0043622255 
     72300   0.0056224097   0.0020771766   0.0048444563 
     72400   0.0048398147   0.0023749691   0.0047570654 
     72500   0.0045617379   0.0025707433   0.0048159736 
     72600   0.0060582008   0.0026253095   0.0056070802 
     72700   0.0046195931   0.0025751137   0.0048488197 
     72800   0.0048813644   0.002833168    0.0052357145 
     72900   0.0056481557   0.0027074701   0.0054874217 
     73000   0.006292515    0.0026396304   0.0057367277 
     73100   0.0053764044   0.0024208455   0.0050670445 
     73200   0.0059340445   0.0020910744   0.0050117369 
     73300   0.0045107467   0.0018860273   0.0041061604 
     73400   0.0042894239   0.0019444778   0.0040556787 
     73500   0.0043062405   0.0019736233   0.004093101  
     73600   0.0042642569   0.0019793602   0.0040781741 
     73700   0.0033844928   0.0020560248   0.0037218298 
     73800   0.0047683045   0.0017120433   0.0040589432 
     73900   0.0049814296   0.0020021175   0.0044539149 
     74000   0.0051039521   0.0018494992   0.0043616006 
     74100   0.0044872886   0.0017563487   0.003964936  
     74200   0.0042683632   0.0021370509   0.0042378859 
     74300   0.0044182173   0.0020842929   0.0042588842 
     74400   0.004146047    0.0018979692   0.0039386017 
     74500   0.005618121    0.0016769569   0.0044421258 
     74600   0.0041630417   0.0015606788   0.0036096758 
     74700   0.00469299     0.0014615955   0.0037714265 
     74800   0.003438476    0.0016440585   0.0033364334 
     74900   0.0032591127   0.0016853854   0.00328948   
     75000   0.0044285675   0.0020511374   0.004230823  
     75100   0.0061376235   0.0023545114   0.0053753729 
     75200   0.0058007348   0.0026356641   0.0054907132 
     75300   0.0062121848   0.0025091645   0.0055667242 
     75400   0.0052656835   0.00222879     0.0048204936 
     75500   0.0058606828   0.0017085793   0.0045931341 
     75600   0.0050754009   0.0019710511   0.0044691    
     75700   0.0042340893   0.0026732432   0.004757209  
     75800   0.0054321853   0.0027528315   0.0054264852 
     75900   0.0061882937   0.0018661997   0.0049120005 
     76000   0.0066425031   0.0018949786   0.0051643356 
     76100   0.004637703    0.0023976495   0.004680269  
     76200   0.0057871464   0.0022146154   0.0050629765 
     76300   0.0056041364   0.0021844582   0.0049427441 
     76400   0.0047894742   0.0024401459   0.0047974652 
     76500   0.0058023585   0.0023425909   0.0051984393 
     76600   0.0049052887   0.0025078887   0.0049222105 
     76700   0.0049974918   0.0019694335   0.0044291365 
     76800   0.0042191193   0.0016510723   0.0037276701 
     76900   0.0039503471   0.0016873391   0.0036316505 
     77000   0.0047298801   0.0019322374   0.0042602253 
     77100   0.0049992408   0.0018474957   0.0043080595 
     77200   0.0032936644   0.002130223    0.0037513235 
     77300   0.0048303958   0.0023550529   0.0047325133 
     77400   0.0063234799   0.0028929245   0.0060052622 
     77500   0.00463004     0.0027082779   0.0049871257 
     77600   0.0050929326   0.0025020123   0.0050086901 
     77700   0.003384678    0.0023701129   0.0040360091 
     77800   0.0041880355   0.0019308741   0.0039921728 
     77900   0.0049763231   0.0021491433   0.0045984273 
     78000   0.003992385    0.0026137623   0.0045787643 
     78100   0.0051057387   0.0027451908   0.0052581715 
     78200   0.0054348861   0.0025577891   0.0052327721 
     78300   0.0057776202   0.0023891943   0.0052328667 
     78400   0.0048359892   0.0024817177   0.0048619312 
     78500   0.0048704429   0.0028022562   0.0051994273 
     78600   0.0054872014   0.0027906432   0.0054913751 
     78700   0.005509956    0.0026370384   0.0053489699 
     78800   0.0048209086   0.0025299026   0.0049026936 
     78900   0.0045972366   0.002261219    0.0045239214 
     79000   0.0040975737   0.002188761    0.0042055355 
     79100   0.0054985041   0.0019990431   0.0047053381 
     79200   0.0049955306   0.0020001032   0.0044588409 
     79300   0.0039372456   0.001866941    0.003804804  
     79400   0.0036515198   0.0018464302   0.0036436626 
     79500   0.0048873976   0.0018264761   0.0042319921 
     79600   0.005304039    0.0022275707   0.0048381524 
     79700   0.005194031    0.0024761037   0.0050325409 
     79800   0.0052406455   0.0025873547   0.0051667349 
     79900   0.004216836    0.0025392835   0.0046147575 
     80000   0.005005837    0.0023327163   0.0047965267 
     80100   0.0046348948   0.0021326396   0.0044138769 
     80200   0.0067222787   0.0024210591   0.0057296806 
     80300   0.0053915682   0.0027591997   0.0054128621 
     80400   0.0056163828   0.0028198112   0.0055841246 
     80500   0.0036451048   0.0028991527   0.0046932278 
     80600   0.004460046    0.0031348911   0.00533007   
     80700   0.005176748    0.002861288    0.0054092187 
     80800   0.0052764546   0.0026789984   0.0052760035 
     80900   0.0045249993   0.0026485499   0.004875698  
     81000   0.0042943847   0.002686603    0.0048002454 
     81100   0.0046355411   0.0027805802   0.0050621356 
     81200   0.0056521846   0.0026661315   0.0054480661 
     81300   0.0054679611   0.002602514    0.0052937761 
     81400   0.0047593182   0.0031466731   0.0054891501 
     81500   0.0045296063   0.0033412661   0.0055706817 
     81600   0.0070010873   0.0032878869   0.0067337345 
     81700   0.0074436949   0.0033922567   0.0070559503 
     81800   0.005610758    0.0036244321   0.0063859771 
     81900   0.0053273856   0.003409863    0.0060319356 
     82000   0.0063763287   0.0026304698   0.0057688191 
     82100   0.00515822     0.0025793429   0.0051181543 
     82200   0.0051360532   0.003051596    0.0055794972 
     82300   0.0044412777   0.0028681254   0.0050540667 
     82400   0.0064105925   0.0030078272   0.0061630407 
     82500   0.0040821554   0.0033344019   0.0053435877 
     82600   0.0044197889   0.0031022601   0.005277625  
     82700   0.0047935976   0.0025883712   0.00494772   
     82800   0.003738449    0.0023020582   0.0041420761 
     82900   0.0053933957   0.0025158866   0.0051704485 
     83000   0.0047459556   0.0030100237   0.0053459237 
     83100   0.0043152191   0.0032077675   0.0053316644 
     83200   0.0045985383   0.0027825467   0.0050458898 
     83300   0.003769822    0.0025818133   0.0044372725 
     83400   0.0067398285   0.002684571    0.0060018303 
     83500   0.0045499328   0.0030768795   0.0053162995 
     83600   0.0035234858   0.0030251824   0.0047593981 
     83700   0.0049511097   0.0029298231   0.0053666974 
     83800   0.0045676475   0.0028474562   0.0050955952 
     83900   0.0044610737   0.002519446    0.0047151307 
     84000   0.0064545826   0.0025222216   0.0056990865 
     84100   0.004653975    0.0027302156   0.0050208439 
     84200   0.0036167014   0.0030734672   0.0048535624 
     84300   0.0057445599   0.0027562257   0.0055836263 
     84400   0.0058224252   0.0024675774   0.0053333023 
     84500   0.0047973173   0.0023781583   0.0047393379 
     84600   0.0039284071   0.0024652748   0.0043987876 
     84700   0.0029638347   0.0025692972   0.0040280596 
     84800   0.0047887044   0.0029186118   0.0052755522 
     84900   0.0055379755   0.0025806577   0.00530638   
     85000   0.0050508036   0.0027085904   0.0051945329 
     85100   0.0052692208   0.002708691    0.0053021357 
     85200   0.0046732792   0.0025088182   0.0048089478 
     85300   0.0054368212   0.0027754547   0.0054513901 
     85400   0.0041549798   0.0031598353   0.0052048644 
     85500   0.0047011152   0.0032261337   0.0055399639 
     85600   0.0055808536   0.0027000149   0.0054468413 
     85700   0.0048434129   0.0026429768   0.0050268441 
     85800   0.0048083651   0.002842628    0.0052092452 
     85900   0.0068372124   0.0027700697   0.0061352602 
     86000   0.0057512903   0.0032940136   0.0061247267 
     86100   0.0040721642   0.0039506876   0.005954956  
     86200   0.0036910287   0.0039669643   0.0057836425 
     86300   0.0054343665   0.0034411799   0.0061159072 
     86400   0.0062628222   0.0032835749   0.0063660577 
     86500   0.0048513507   0.0035688868   0.005956661  
     86600   0.0069173355   0.0031980342   0.0066026603 
     86700   0.0081806389   0.0029566119   0.0069830201 
     86800   0.0062293924   0.0027879988   0.0058540278 
     86900   0.0056635501   0.0030769808   0.0058645094 
     87000   0.0050517479   0.0034190971   0.0059055043 
     87100   0.0042098299   0.0032866868   0.0053587124 
     87200   0.0051519893   0.0023312815   0.0048670263 
     87300   0.0053215622   0.0019148403   0.0045340467 
     87400   0.0032577713   0.0022767786   0.0038802129 
     87500   0.0044570195   0.0022494502   0.0044431395 
     87600   0.0052392036   0.0021528124   0.0047314829 
     87700   0.0053547779   0.0023921325   0.0050276873 
     87800   0.0045686383   0.0022639202   0.0045125469 
     87900   0.0054222401   0.0021765081   0.0048452669 
     88000   0.0072019377   0.0019999176   0.0055446213 
     88100   0.0051035154   0.0019149795   0.004426866  
     88200   0.0060975634   0.0017265057   0.0047276502 
     88300   0.0061669752   0.0020150074   0.0050503155 
     88400   0.0058805473   0.0027046436   0.0055989755 
     88500   0.0056084198   0.0029070098   0.005667404  
     88600   0.0055620748   0.0024571016   0.0051946853 
     88700   0.0057423726   0.0020670094   0.0048933333 
     88800   0.0045542811   0.0022137937   0.004455354  
     88900   0.0048961572   0.0025511938   0.0049610211 
     89000   0.0050029344   0.0025574486   0.0050198304 
     89100   0.0053494041   0.002790112    0.0054230218 
     89200   0.0062382018   0.0029382962   0.0060086611 
     89300   0.0046549933   0.0025582805   0.00484941   
     89400   0.0061553926   0.0028467604   0.0058763677 
     89500   0.0054415236   0.0027038997   0.0053821496 
     89600   0.0049929284   0.0024439412   0.0049013981 
     89700   0.0052089147   0.0020782333   0.004641996  
     89800   0.0054194082   0.0019060222   0.0045733872 
     89900   0.0042438172   0.0020655704   0.0041543242 
     90000   0.0053810893   0.0022202497   0.0048687545 
     90100   0.0041317433   0.0025163811   0.0045499735 
     90200   0.0049091287   0.0025324657   0.0049486775 
     90300   0.0051286993   0.0024879148   0.0050121964 
     90400   0.0050204469   0.0025904592   0.0050614604 
     90500   0.0042464315   0.0025457079   0.0046357484 
     90600   0.0052250066   0.0023698037   0.0049414866 
     90700   0.0045462634   0.0023097843   0.0045473983 
     90800   0.0037093636   0.002571643    0.0043973454 
     90900   0.0063113799   0.0028984616   0.0060048439 
     91000   0.0043201494   0.0035103634   0.0056366869 
     91100   0.0047435479   0.0028845182   0.0052192332 
     91200   0.0065770065   0.0024854189   0.0057225393 
     91300   0.0062774446   0.0029098606   0.0059995404 
     91400   0.0049078754   0.0033611622   0.0057767571 
     91500   0.0053685781   0.0029029245   0.0055452715 
     91600   0.0053490556   0.0027350213   0.0053677596 
     91700   0.0058290963   0.0025725331   0.0054415414 
     91800   0.0072866405   0.0023256296   0.0059120229 
     91900   0.0058739958   0.002397964    0.0052890713 
     92000   0.0054562234   0.0023199876   0.0050054725 
     92100   0.005611244    0.0020159579   0.004777742  
     92200   0.0056938966   0.0019908685   0.0047933333 
     92300   0.0045806723   0.0018484046   0.0041029543 
     92400   0.004021423    0.0017415055   0.0037207996 
     92500   0.0062152423   0.0016326148   0.0046916794 
     92600   0.0041680258   0.002100735    0.0041521852 
     92700   0.0062858018   0.0020078107   0.0051016038 
     92800   0.0050359408   0.0019708759   0.004449503  
     92900   0.0045713716   0.0019061094   0.0041560814 
     93000   0.0053129071   0.0017527225   0.004367669  
     93100   0.0057446369   0.0018012696   0.0046287081 
     93200   0.0054739901   0.0024684525   0.005162682  
     93300   0.0045647369   0.0031014684   0.0053481748 
     93400   0.0036193876   0.0029006396   0.0046820569 
     93500   0.0060601698   0.0019741831   0.004956923  
     93600   0.0046004665   0.0020015396   0.0042658317 
     93700   0.0042683715   0.0021208495   0.0042216887 
     93800   0.0042496451   0.0021423506   0.0042339729 
     93900   0.0050268403   0.0021521183   0.0046262662 
     94000   0.0040358142   0.0025002024   0.0044865797 
     94100   0.0053294078   0.0023011019   0.0049241698 
     94200   0.0054369608   0.002656387    0.0053323911 
     94300   0.0050797075   0.0022979222   0.0047980907 
     94400   0.0050921226   0.0023796543   0.0048859334 
     94500   0.0049329385   0.0025064774   0.004934408  
     94600   0.0062590368   0.0023118525   0.0053924721 
     94700   0.0051941686   0.0020324496   0.0045889545 
     94800   0.0061044642   0.0022752168   0.0052797577 
     94900   0.0058587855   0.0022442433   0.0051278642 
     95000   0.0040628882   0.0023417837   0.0043414865 
     95100   0.0044093913   0.0024604208   0.0046306681 
     95200   0.0052381724   0.0024953602   0.0050735231 
     95300   0.0041843167   0.0023526891   0.0044121575 
     95400   0.0036206776   0.0024898436   0.0042718959 
     95500   0.0055885007   0.0024269834   0.0051775736 
     95600   0.0053328236   0.0028022568   0.0054270059 
     95700   0.0055391784   0.0026378076   0.005364122  
     95800   0.0053066117   0.0022822165   0.0048940645 
     95900   0.0046804735   0.0024918323   0.0047955029 
     96000   0.0067041432   0.0019985496   0.0052982451 
     96100   0.0048748809   0.0023756505   0.0047750059 
     96200   0.0037728758   0.0023720232   0.0042289855 
     96300   0.0044732638   0.0024277705   0.004629455  
     96400   0.0060579424   0.0023268191   0.0053084627 
     96500   0.0038456366   0.0025592995   0.0044520738 
     96600   0.0049971155   0.0027362251   0.0051957429 
     96700   0.0076930517   0.0024331244   0.0062195483 
     96800   0.0050724787   0.0025514936   0.0050481042 
     96900   0.0060769703   0.0024391751   0.0054301839 
     97000   0.0048021801   0.0021185012   0.0044820743 
     97100   0.005660294    0.0023463709   0.0051322969 
     97200   0.0048179777   0.0030827943   0.0054541426 
     97300   0.0053757318   0.0030170491   0.0056629171 
     97400   0.0067381828   0.0026761785   0.0059926278 
     97500   0.0042197502   0.002912353    0.0049892613 
     97600   0.0057027576   0.0030602803   0.0058671063 
     97700   0.0061693172   0.0025635465   0.0056000073 
     97800   0.0045497375   0.002284389    0.0045237129 
     97900   0.004449448    0.0023558994   0.004545862  
     98000   0.0043326526   0.002198167    0.0043306445 
     98100   0.0050126314   0.0024800737   0.0049472282 
     98200   0.0037659765   0.0027438261   0.0045973926 
     98300   0.0066021495   0.0026389775   0.0058884729 
     98400   0.0047517542   0.0026253143   0.0049640683 
     98500   0.0040493294   0.0025695401   0.0045625693 
     98600   0.0031819859   0.0025493936   0.0041155272 
     98700   0.0050691486   0.0019875569   0.0044825284 
     98800   0.0057652299   0.0020979909   0.0049355649 
     98900   0.0044760097   0.0021491409   0.0043521769 
     99000   0.0073474081   0.0023083358   0.0059246382 
     99100   0.0051021109   0.0029499858   0.005461181  
     99200   0.0049845442   0.0030591608   0.0055124912 
     99300   0.0062195698   0.0028596317   0.0059208262 
     99400   0.0053308323   0.0027370214   0.0053607905 
     99500   0.0079201013   0.0027481443   0.0066463192 
     99600   0.0063782264   0.0029359374   0.0060752207 
     99700   0.0061058594   0.002578078    0.0055833057 
     99800   0.0038451427   0.0023133588   0.00420589   
     99900   0.0061566822   0.0018607765   0.0048910185 
    100000   0.0068927201   0.0020927363   0.005485247  
    100100   0.0047391181   0.0028683768   0.0052009115 
    100200   0.0053483393   0.0029064148   0.0055388005 
    100300   0.0045258461   0.0031283243   0.0053558891 
    100400   0.0050365226   0.0030179463   0.0054968598 
    100500   0.0047312271   0.0029646693   0.0052933201 
    100600   0.0061205474   0.0026210987   0.0056335556 
    100700   0.0025651757   0.002853931    0.0041164784 
    100800   0.0039133509   0.0023758551   0.0043019575 
    100900   0.0052092894   0.0020576226   0.0046215697 
    101000   0.0047933685   0.0019465261   0.0043057621 
    101100   0.003956389    0.0021475561   0.0040948413 
    101200   0.0050643083   0.0024413601   0.0049339493 
    101300   0.00586629     0.0027702329   0.0056575475 
    101400   0.0041134663   0.0028491547   0.0048737514 
    101500   0.0042609904   0.0027710094   0.0048682156 
    101600   0.0040332019   0.0028290391   0.0048141307 
    101700   0.0044978865   0.0027827381   0.0049965416 
    101800   0.0060428561   0.0022749661   0.0052491843 
    101900   0.0051600197   0.0021403985   0.0046800957 
    102000   0.0045333669   0.0023159227   0.0045471892 
    102100   0.0070046179   0.0023404156   0.005788001  
    102200   0.0061519161   0.0022998284   0.0053277247 
    102300   0.0054322922   0.0028143567   0.0054880629 
    102400   0.0067449733   0.0027663729   0.0060861645 
    102500   0.0055718833   0.0028907092   0.0056331205 
    102600   0.005492805    0.003230284    0.005933774  
    102700   0.0057980123   0.0026981722   0.0055518814 
    102800   0.0046380472   0.0021701776   0.0044529664 
    102900   0.0048709823   0.0021799543   0.004577391  
    103000   0.0042697277   0.0023603737   0.0044618803 
    103100   0.0055478928   0.0024828905   0.005213494  
    103200   0.0058182369   0.002465523    0.0053291864 
    103300   0.0059052791   0.0028961956   0.0058027001 
    103400   0.0044892107   0.0033950945   0.0056046279 
    103500   0.0044678566   0.002913743    0.0051127662 
    103600   0.0047670318   0.0030027417   0.0053490152 
    103700   0.005096998    0.0027861302   0.0052948089 
    103800   0.0058219052   0.0025488868   0.0054143558 
    103900   0.0055457492   0.0027238297   0.0054533781 
    104000   0.0053618337   0.0031234195   0.005762447  
    104100   0.0046966491   0.0030342066   0.0053458386 
    104200   0.0056029936   0.0025226951   0.0052804185 
    104300   0.0048428918   0.002439357    0.0048229678 
    104400   0.0049155836   0.002751652    0.0051710407 
    104500   0.0050080274   0.0031713836   0.0056362721 
    104600   0.0052479614   0.0032808705   0.0058638515 
    104700   0.0058029768   0.0030601196   0.0059162722 
    104800   0.0059414983   0.002753915    0.0056782462 
    104900   0.0055676729   0.0027724396   0.0055127786 
    105000   0.0057471966   0.0028378259   0.0056665242 
    105100   0.0062413446   0.0034486799   0.0065205916 
    105200   0.0046813066   0.0037080686   0.0060121492 
    105300   0.006480056    0.0040398659   0.0072292685 
    105400   0.0048801732   0.0040482258   0.006450186  
    105500   0.005828717    0.003617556    0.0064863776 
    105600   0.0075420792   0.0028916713   0.0066037884 
    105700   0.0062363383   0.0023966336   0.0054660814 
    105800   0.0062864114   0.0022015099   0.005295603  
    105900   0.0040615775   0.0025536747   0.0045527324 
    106000   0.0063290288   0.0023102446   0.0054253134 
    106100   0.0051585324   0.002286666    0.0048256311 
    106200   0.0034732608   0.0022578884   0.0039673839 
    106300   0.0044176304   0.0020919564   0.0042662589 
    106400   0.0041908911   0.0019892799   0.0040519841 
    106500   0.0039026099   0.0023120102   0.004232826  
    106600   0.0048572336   0.0024848361   0.0048755058 
    106700   0.0063257167   0.0021928248   0.0053062635 
    106800   0.0036730623   0.0025819264   0.0043897617 
    106900   0.0059944179   0.0028382753   0.0057886528 
    107000   0.0064580669   0.0030999903   0.0062785701 
    107100   0.0046255253   0.0031334458   0.0054100715 
    107200   0.0049283482   0.0030364233   0.0054620947 
    107300   0.0063133439   0.0031381277   0.0062454766 
    107400   0.0041474774   0.0030566705   0.0050980071 
    107500   0.0046740446   0.0026914709   0.0049919772 
    107600   0.0047388492   0.0030377523   0.0053701547 
    107700   0.0054282275   0.0028094709   0.0054811766 
    107800   0.0053721217   0.0023284663   0.0049725574 
    107900   0.004243258    0.0018403539   0.0039288324 
    108000   0.0049353152   0.0019312174   0.0043603179 
    108100   0.0055130508   0.0025271957   0.0052406504 
    108200   0.0060558392   0.0024565719   0.0054371802 
    108300   0.0045859105   0.0023894119   0.0046465397 
    108400   0.0058885278   0.002025608    0.0049238677 
    108500   0.0054340107   0.0023452816   0.0050198337 
    108600   0.0044141867   0.0027647819   0.0049373895 
    108700   0.0058358218   0.002351073    0.0052233915 
    108800   0.0046712028   0.0020506598   0.0043497674 
    108900   0.0060486201   0.0022072723   0.0051843275 
    109000   0.004853394    0.002811998    0.0052007778 
    109100   0.0057238236   0.0026146211   0.0054318155 
    109200   0.0053979441   0.0026364855   0.0052932861 
    109300   0.0050589705   0.0025353887   0.0050253508 
    109400   0.0045738921   0.0024354124   0.004686625  
    109500   0.0046261854   0.0029166817   0.0051936324 
    109600   0.0041689619   0.0030250569   0.0050769678 
    109700   0.0039751906   0.0031283774   0.0050849166 
    109800   0.0059722001   0.0028077245   0.0057471667 
    109900   0.0064808043   0.0030567557   0.0062465266 
    110000   0.0044133757   0.0032871436   0.0054593519 
    110100   0.0062212538   0.002947876    0.0060098993 
    110200   0.0048243587   0.0028732762   0.0052477653 
    110300   0.0053680497   0.0024404749   0.0050825619 
    110400   0.0056285554   0.0027253265   0.0054956311 
    110500   0.0043921234   0.0031812544   0.0053430026 
    110600   0.0052145725   0.0034524517   0.0060189991 
    110700   0.0059297045   0.0035462473   0.0064647737 
    110800   0.0039791183   0.0035589564   0.0055174287 
    110900   0.0050631029   0.0032870617   0.0057790576 
    111000   0.0045785739   0.0032190924   0.0054726092 
    111100   0.0054237583   0.0031450294   0.0058145354 
    111200   0.0035705701   0.0032154539   0.0049728439 
    111300   0.004091047    0.0030329976   0.0050465598 
    111400   0.0055188185   0.0020035252   0.0047198186 
    111500   0.0051455747   0.001780299    0.0043128866 
    111600   0.0053045141   0.0021690289   0.0047798444 
    111700   0.0046372748   0.0023414381   0.0046238468 
    111800   0.0052027731   0.0021395942   0.0047003341 
    111900   0.0052496752   0.0022014434   0.0047852679 
    112000   0.0028159529   0.0022920464   0.0036780232 
    112100   0.0063535899   0.0023859576   0.0055131152 
    112200   0.0039606696   0.0028131121   0.0047625042 
    112300   0.0043064443   0.0026684668   0.0047880449 
    112400   0.0025763379   0.0024405732   0.0037086145 
    112500   0.0044170283   0.0024207001   0.0045947062 
    112600   0.0054643594   0.0024536122   0.0051431015 
    112700   0.005955353    0.0023101328   0.0052412831 
    112800   0.0068939122   0.0023991721   0.0057922695 
    112900   0.0048423154   0.0022677423   0.0046510694 
    113000   0.0024904304   0.0024689214   0.0036946801 
    113100   0.0040994351   0.0022112216   0.0042289123 
    113200   0.0041927948   0.0024644187   0.0045280599 
    113300   0.0059215586   0.0022238183   0.0051383354 
    113400   0.0037381398   0.0026043886   0.0044442543 
    113500   0.0054818864   0.0028451912   0.0055433072 
    113600   0.0080378216   0.0030499469   0.0070060622 
    113700   0.0045790699   0.0034810623   0.0057348233 
    113800   0.0054508947   0.0038292872   0.0065121494 
    113900   0.0063119462   0.0039706622   0.0070773233 
    114000   0.0049062179   0.0040489597   0.0064637388 
    114100   0.0060687528   0.0035775812   0.0065645454 
    114200   0.0048148785   0.0029373954   0.0053072185 
    114300   0.00424213     0.002213809    0.0043017323 
    114400   0.0044688861   0.0020153475   0.0042148774 
    114500   0.0043934851   0.0022074317   0.0043698501 
    114600   0.0031678524   0.0024544466   0.004013624  
    114700   0.0042061988   0.0022330402   0.0043032787 
    114800   0.0050375599   0.0017099923   0.0041894163 
    114900   0.0052476925   0.0022381717   0.0048210204 
    115000   0.004291679    0.0024672021   0.0045795128 
    115100   0.0033461379   0.0025738305   0.0042207577 
    115200   0.0047508507   0.0023793279   0.0047176372 
    115300   0.0045127302   0.0021958678   0.0044169772 
    115400   0.0042068752   0.0023957038   0.0044662752 
    115500   0.0037285941   0.0028463631   0.0046815305 
    115600   0.0041860224   0.0029260055   0.0049863134 
    115700   0.004168745    0.0027625036   0.0048143078 
    115800   0.0066204617   0.0020382981   0.0052968066 
    115900   0.0044148392   0.0023831315   0.0045560601 
    116000   0.0036425746   0.0027894567   0.0045822864 
    116100   0.0066123437   0.0025253525   0.0057798654 
    116200   0.0043932293   0.0025026014   0.004664894  
    116300   0.0056396985   0.0025709236   0.0053467127 
    116400   0.005249659    0.0024941895   0.005078006  
    116500   0.0048737354   0.0021327014   0.004531493  
    116600   0.0060342766   0.0020303848   0.0050003803 
    116700   0.0043521148   0.0023331204   0.004475177  
    116800   0.0046410869   0.002373728    0.0046580129 
    116900   0.0042897946   0.001961581    0.0040729643 
    117000   0.004750975    0.0015980869   0.0039364574 
    117100   0.0061153179   0.0014042146   0.0044140977 
    117200   0.0054286137   0.0022777892   0.004949685  
    117300   0.0048997545   0.0024122729   0.0048238708 
    117400   0.0049525901   0.0021413592   0.0045789621 
    117500   0.0060313513   0.0022504283   0.005218984  
    117600   0.0037243337   0.0021229818   0.0039560523 
    117700   0.0044672452   0.0022478248   0.004446547  
    117800   0.0063305931   0.0023211774   0.0054370162 
    117900   0.0046473976   0.0023775733   0.0046649643 
    118000   0.0057980765   0.0026267782   0.005480519  
    118100   0.0057644375   0.0022614293   0.0050986134 
    118200   0.0053759352   0.002184078    0.0048300461 
    118300   0.00350863     0.002208991    0.0039358949 
    118400   0.0044288284   0.001965456    0.0041452699 
    118500   0.0043770258   0.0023589102   0.0045132276 
    118600   0.0034849389   0.0028846954   0.0045999387 
    118700   0.0052191098   0.0031236261   0.0056924067 
    118800   0.0048827199   0.0031725471   0.0055757608 
    118900   0.0051153876   0.0028000437   0.0053177736 
    119000   0.0040971591   0.002313308    0.0043298784 
    119100   0.0057227038   0.001881064    0.0046977073 
    119200   0.0056176632   0.0020407526   0.0048056963 
    119300   0.0041188652   0.0022214132   0.0042486672 
    119400   0.0050258033   0.0023982737   0.0048719112 
    119500   0.0051708736   0.0023822894   0.0049273288 
    119600   0.0072497277   0.0017190797   0.005287305  
    119700   0.0049186695   0.0014997358   0.0039206434 
    119800   0.0046465176   0.0016186327   0.0039055906 
    119900   0.0035278697   0.0018591078   0.0035954811 
    120000   0.0040577145   0.0019211545   0.0039183108 
    120100   0.0057931299   0.0020505043   0.0049018104 
    120200   0.0054083879   0.0023873443   0.0050492853 
    120300   0.004472033    0.0032540249   0.0054551037 
    120400   0.0057364472   0.003440831    0.0062642387 
    120500   0.0044371632   0.0032682687   0.005452185  
    120600   0.0063617472   0.0027073182   0.0058384906 
    120700   0.0056331876   0.0024164048   0.0051889894 
    120800   0.0049574073   0.002579453    0.0050194269 
    120900   0.0063554724   0.0024675274   0.0055956115 
    121000   0.0050136393   0.0028690616   0.0053367122 
    121100   0.0057016186   0.0030473984   0.0058536638 
    121200   0.0034069274   0.0029406284   0.0046174755 
    121300   0.005908511    0.0024885791   0.0053966743 
    121400   0.0057957821   0.002047517    0.0049001285 
    121500   0.0044996932   0.0021861322   0.0044008249 
    121600   0.0049906281   0.0024747946   0.0049311194 
    121700   0.0060887065   0.002855947    0.0058527323 
    121800   0.004711195    0.0030064421   0.0053252333 
    121900   0.0049532559   0.0025154823   0.0049534129 
    122000   0.0059505907   0.0017859567   0.004714763  
    122100   0.0052105709   0.0018487319   0.0044133098 
    122200   0.0039354219   0.0023273716   0.0042643371 
    122300   0.005401392    0.0028101278   0.0054686255 
    122400   0.0056674886   0.0030709657   0.0058604328 
    122500   0.0061112212   0.0027812454   0.0057891121 
    122600   0.0047755166   0.0028547195   0.0052051691 
    122700   0.0041808644   0.0029896441   0.0050474133 
    122800   0.0077709546   0.0028883017   0.0067130684 
    122900   0.0042970339   0.0032379295   0.0053528759 
    123000   0.0075226296   0.0027071748   0.006409719  
    123100   0.005367627    0.0023276368   0.0049695157 
    123200   0.0041869074   0.0023193481   0.0043800916 
    123300   0.0041202043   0.0023587885   0.0043867016 
    123400   0.0056211685   0.0025252194   0.0052918882 
    123500   0.0043712009   0.0028400139   0.0049914644 
    123600   0.0037914677   0.0024664059   0.0043325189 
    123700   0.0038488631   0.0026006088   0.0044949711 
    123800   0.0031128641   0.0028649081   0.0043970209 
    123900   0.0044313471   0.0025276524   0.004708706  
    124000   0.0056320112   0.0027359714   0.0055079769 
    124100   0.0064750184   0.0027770805   0.0059640036 
    124200   0.0044987626   0.0032505587   0.0054647935 
    124300   0.006510302    0.0031229655   0.0063272547 
    124400   0.006619952    0.0029509754   0.006209233  
    124500   0.0047679095   0.0029512296   0.005297935  
    124600   0.0047701325   0.002816422    0.0051642216 
    124700   0.006678067    0.0028511954   0.0061380565 
    124800   0.0060663232   0.0024223656   0.0054081341 
    124900   0.003844719    0.0026911177   0.0045834404 
    125000   0.0041647942   0.0031817005   0.0052315602 
    125100   0.0050881992   0.0028574448   0.0053617929 
    125200   0.0037529619   0.0024375219   0.0042846828 
    125300   0.0050005985   0.002394114    0.0048553461 
    125400   0.0052503824   0.0023653029   0.0049494755 
    125500   0.0048088113   0.0025903931   0.0049572299 
    125600   0.0038505247   0.0025145197   0.0044096998 
    125700   0.0040790621   0.0026110609   0.0046187243 
    125800   0.0048334165   0.0025063267   0.0048852739 
    125900   0.0071298224   0.0023279068   0.0058371163 
    126000   0.0047556503   0.0025211966   0.0048618683 
    126100   0.0060659642   0.0024950479   0.0054806396 
    126200   0.0037014517   0.0031655455   0.0049873538 
    126300   0.0049728628   0.0035461648   0.0059937457 
    126400   0.0041408641   0.0035428252   0.0055809067 
    126500   0.0038449795   0.0033059564   0.0051984072 
    126600   0.0066626245   0.002801587    0.0060808475 
    126700   0.0049966227   0.0029878413   0.0054471166 
    126800   0.0047933269   0.0034440127   0.0058032283 
    126900   0.0069443863   0.0029671072   0.0063850473 
    127000   0.006278224    0.0028666475   0.0059567109 
    127100   0.0053949188   0.002669936    0.0053252476 
    127200   0.005096313    0.0020292732   0.0045376148 
    127300   0.004632969    0.0024694119   0.0047497013 
    127400   0.0040407222   0.0029519618   0.0049407547 
    127500   0.0067337362   0.0027864718   0.0061007326 
    127600   0.0048046858   0.002784265    0.0051490713 
    127700   0.0049217312   0.0028916068   0.0053140213 
    127800   0.0047809578   0.0027657663   0.0051188939 
    127900   0.0037821584   0.0027926455   0.0046541766 
    128000   0.0047841444   0.0030150198   0.0053697159 
    128100   0.0057148258   0.003019537    0.0058323029 
    128200   0.0049766972   0.0032299129   0.0056793811 
    128300   0.0053534075   0.0030153571   0.0056502374 
    128400   0.0040248704   0.0025979375   0.0045789284 
    128500   0.0052981287   0.0023984432   0.0050061159 
    128600   0.0057796888   0.0029875603   0.0058322509 
    128700   0.0072908316   0.0033206486   0.0069091048 
    128800   0.0050902396   0.0035021684   0.0060075207 
    128900   0.0058251458   0.0027165912   0.0055836552 
    129000   0.0048756176   0.0026574316   0.0050571496 
    129100   0.0046723639   0.0024646451   0.0047643242 
    129200   0.0038316242   0.0022505067   0.0041363842 
    129300   0.0060166322   0.0021926397   0.0051539509 
    129400   0.0057549304   0.0027197829   0.0055522877 
    129500   0.0028962582   0.0030377794   0.0044632815 
    129600   0.0038922573   0.0024899203   0.0044056407 
    129700   0.0042411643   0.0023759221   0.0044633702 
    129800   0.006548476    0.0023240161   0.0055470941 
    129900   0.0049729391   0.0028642532   0.0053118717 
    130000   0.0050890459   0.0028088299   0.0053135946 
    130100   0.0029038256   0.0027921066   0.0042213333 
    130200   0.0059512066   0.0027683475   0.005697457  
    130300   0.0051614526   0.00301503     0.0055554325 
    130400   0.004222731    0.003405594    0.0054839694 
    130500   0.0050986052   0.0028953762   0.0054048459 
    130600   0.0046849881   0.0026998659   0.0050057585 
    130700   0.0043345774   0.0026810714   0.0048144962 
    130800   0.0044094469   0.0026339556   0.0048042303 
    130900   0.0049347584   0.0027561296   0.005184956  
    131000   0.0050455262   0.002312234    0.0047955789 
    131100   0.0042198059   0.0022460696   0.0043230053 
    131200   0.0054589123   0.0027009148   0.0053877232 
    131300   0.004288358    0.0027913246   0.0049020008 
    131400   0.004764887    0.0024861655   0.0048313833 
    131500   0.0035330946   0.0021225872   0.0038615322 
    131600   0.0041490186   0.001770521    0.0038126161 
    131700   0.0038325307   0.0023784068   0.0042647305 
    131800   0.0039187208   0.0030081226   0.004936868  
    131900   0.0056226883   0.0027875838   0.0055550007 
    132000   0.0072295511   0.0024125427   0.0059708374 
    132100   0.0046347951   0.0027197012   0.0050008894 
    132200   0.0056619899   0.0031905621   0.0059773228 
    132300   0.0044276207   0.0030490221   0.0052282417 
    132400   0.005951752    0.0025991866   0.0055285645 
    132500   0.0061282756   0.0025352287   0.0055514893 
    132600   0.0055495961   0.0025212417   0.0052526835 
    132700   0.0048877637   0.0027421997   0.005147896  
    132800   0.0034509233   0.0027896644   0.0044881657 
    132900   0.005277937    0.0024213042   0.0050190389 
    133000   0.0051294936   0.002263101    0.0047877736 
    133100   0.0036120892   0.0022617565   0.0040395817 
    133200   0.004439563    0.0022846635   0.0044697609 
    133300   0.0035550703   0.0021552705   0.0039050317 
    133400   0.0056073403   0.002274687    0.0050345498 
    133500   0.0041909664   0.0025752587   0.004638     
    133600   0.0051610993   0.0023581062   0.0048983347 
    133700   0.0054679436   0.0020752744   0.0047665279 
    133800   0.0055609206   0.0021740809   0.0049110965 
    133900   0.0054706246   0.0022358669   0.0049284399 
    134000   0.0072174486   0.0022197526   0.0057720906 
    134100   0.0056280937   0.0020959985   0.0048660759 
    134200   0.00320157     0.0022067432   0.0037825159 
    134300   0.0036899818   0.0023298354   0.0041459984 
    134400   0.0046726079   0.0020348693   0.0043346685 
    134500   0.0057699374   0.0020992695   0.0049391606 
    134600   0.0046495065   0.0028228922   0.0051113212 
    134700   0.0055851509   0.0027449905   0.005493932  
    134800   0.0057087169   0.0024403493   0.0052501084 
    134900   0.0062368544   0.0025605615   0.0056302633 
    135000   0.0047129051   0.002878744    0.0051983769 
    135100   0.0067149977   0.0028027509   0.0061077889 
[...]
   1967200   0.0049714506   0.0020357125   0.0044825983 
   1967300   0.005977992    0.0021433671   0.00508566   
   1967400   0.0053902316   0.0020022409   0.0046552456 
   1967500   0.0046586404   0.0019883349   0.0042812595 
   1967600   0.0039033117   0.0023083811   0.0042295423 
   1967700   0.0043752254   0.0025024203   0.0046558515 
   1967800   0.0043589795   0.0024982533   0.0046436885 
   1967900   0.0052777293   0.0025180008   0.0051156332 
   1968000   0.0034189485   0.0024891574   0.0041719211 
   1968100   0.0048088533   0.0023660067   0.0047328642 
   1968200   0.0064220903   0.0022541356   0.0054150081 
   1968300   0.0060765069   0.0026611767   0.0056519575 
   1968400   0.0039367764   0.0027331653   0.0046707974 
   1968500   0.0060924498   0.0030554742   0.0060541019 
   1968600   0.00614092     0.0033329465   0.0063554306 
   1968700   0.0047542107   0.0029760359   0.0053159989 
   1968800   0.0054506215   0.0025875217   0.0052702495 
   1968900   0.0043579159   0.002381629    0.0045265407 
   1969000   0.0040054447   0.0024285121   0.0043999419 
   1969100   0.0042311652   0.0026493681   0.0047318947 
   1969200   0.0053567692   0.0024350446   0.0050715794 
   1969300   0.0056387297   0.002089391    0.0048647032 
   1969400   0.0051026868   0.0017434762   0.0042549549 
   1969500   0.0048391876   0.001917665    0.0042994526 
   1969600   0.0037442695   0.0018411399   0.0036840225 
   1969700   0.0041662021   0.0023597055   0.0044102581 
   1969800   0.0048332633   0.003008715    0.0053875868 
   1969900   0.0035195388   0.0031190537   0.0048513267 
   1970000   0.0037215918   0.0023704618   0.0042021828 
   1970100   0.0045265138   0.002228958    0.0044568515 
   1970200   0.0053884757   0.0022231472   0.0048752876 
   1970300   0.0060521133   0.0023611798   0.0053399543 
   1970400   0.0067249521   0.0024082083   0.0057181457 
   1970500   0.0056554492   0.0029147842   0.0056983256 
   1970600   0.0042355139   0.0033454496   0.0054301166 
   1970700   0.0052954485   0.0033357837   0.0059421372 
   1970800   0.0039578327   0.003382902    0.0053308978 
   1970900   0.0070756702   0.0033565376   0.006839094  
   1971000   0.0038925924   0.0033054241   0.0052213094 
   1971100   0.0057297208   0.0028192575   0.0056393545 
   1971200   0.0053615822   0.0030168347   0.0056557385 
   1971300   0.0047059075   0.0033849381   0.0057011269 
   1971400   0.0057164524   0.0028652423   0.0056788087 
   1971500   0.0055595605   0.002817329    0.0055536752 
   1971600   0.0058039023   0.0030304874   0.0058870956 
   1971700   0.0043448922   0.003096274    0.0052347757 
   1971800   0.0036321233   0.0029971895   0.0047848752 
   1971900   0.005140237    0.0029246325   0.0054545928 
   1972000   0.0047777658   0.0030824931   0.0054340497 
   1972100   0.0067663028   0.0032434707   0.0065737604 
   1972200   0.0059467742   0.003827276    0.0067542039 
   1972300   0.0052360169   0.0038464504   0.0064235524 
   1972400   0.0054253556   0.0033726987   0.006042991  
   1972500   0.0047094539   0.0027297566   0.0050476909 
   1972600   0.0049655731   0.0027897336   0.0052337266 
   1972700   0.0042014405   0.0028846031   0.0049524997 
   1972800   0.0067617805   0.0027408443   0.0060689082 
   1972900   0.0047488406   0.0035163253   0.0058536453 
   1973000   0.0050213518   0.0036927106   0.0061641572 
   1973100   0.0045958668   0.0034397612   0.0057017894 
   1973200   0.00491002     0.0029937584   0.0054104088 
   1973300   0.0060429046   0.0028447392   0.0058189814 
   1973400   0.0055203192   0.0025766793   0.0052937114 
   1973500   0.0055681405   0.0023389798   0.005079549  
   1973600   0.0043210092   0.0028398802   0.0049666269 
   1973700   0.0049103211   0.0028410593   0.005257858  
   1973800   0.0045391302   0.003143301    0.0053774041 
   1973900   0.0041241205   0.0026072632   0.0046371038 
   1974000   0.0051957384   0.0021001088   0.0046573864 
   1974100   0.0060325521   0.0020217554   0.0049909021 
   1974200   0.0047307958   0.0023757612   0.0047041998 
   1974300   0.0062928884   0.0022520228   0.0053493038 
   1974400   0.0048969188   0.0027798908   0.005190093  
   1974500   0.0060556348   0.0025749225   0.0055554303 
   1974600   0.0064805615   0.0021720665   0.0053617179 
   1974700   0.0044676811   0.0025536507   0.0047525875 
   1974800   0.0068051163   0.0028049398   0.006154333  
   1974900   0.0068328027   0.0024118326   0.0057748527 
   1975000   0.0055704185   0.0024589736   0.005200664  
   1975100   0.0059750587   0.0024398561   0.0053807053 
   1975200   0.0062643598   0.0023495976   0.0054328372 
   1975300   0.0060022128   0.0026989646   0.0056531788 
   1975400   0.0066336948   0.0025435592   0.0058085808 
   1975500   0.0055590611   0.0024328755   0.0051689759 
   1975600   0.0057934535   0.002595223    0.0054466884 
   1975700   0.0050700463   0.0028409376   0.005336351  
   1975800   0.0041203695   0.0026620262   0.0046900206 
   1975900   0.006391252    0.0022078384   0.0053535327 
   1976000   0.005554686    0.0020056826   0.0047396296 
   1976100   0.0056292475   0.0021034226   0.0048740678 
   1976200   0.0053536508   0.0026886722   0.0053236722 
   1976300   0.005483876    0.0026237706   0.0053228658 
   1976400   0.0049829385   0.0022140453   0.0046665854 
   1976500   0.0038646913   0.001928554    0.0038307067 
   1976600   0.0056354078   0.001951041    0.0047247183 
   1976700   0.006322617    0.0020049399   0.005116853  
   1976800   0.0068346506   0.0028231365   0.0061870661 
   1976900   0.004425002    0.0029317198   0.0051096504 
   1977000   0.0039872885   0.0028442901   0.0048067837 
   1977100   0.0051132872   0.0027037761   0.0052204721 
   1977200   0.0065234064   0.0023518813   0.0055626204 
   1977300   0.006834685    0.0024803098   0.0058442564 
   1977400   0.0048422499   0.0027909748   0.0051742697 
   1977500   0.003860027    0.0028217769   0.0047216339 
   1977600   0.004524088    0.0020753902   0.0043020897 
   1977700   0.0039299072   0.001968914    0.0039031652 
   1977800   0.0052786677   0.0016284221   0.0042265163 
   1977900   0.0058670623   0.0019257935   0.0048134883 
   1978000   0.005328742    0.0018319712   0.0044547114 
   1978100   0.0053149862   0.0015611072   0.004177077  
   1978200   0.0047016678   0.0017958738   0.0041099759 
   1978300   0.0040021215   0.0017083803   0.0036781744 
   1978400   0.0050191291   0.0019845438   0.0044548964 
   1978500   0.0053307985   0.0021834192   0.0048071716 
   1978600   0.0045795286   0.0015629799   0.0038169666 
   1978700   0.0040588884   0.0016023327   0.0036000669 
   1978800   0.0056087102   0.0017337129   0.00449425   
   1978900   0.0042195899   0.0016850083   0.0037618377 
   1979000   0.0041282468   0.001924472    0.0039563435 
   1979100   0.0041563346   0.0021684014   0.0042140974 
   1979200   0.0047855088   0.0019797408   0.0043351084 
   1979300   0.004713838    0.0022519439   0.004572036  
   1979400   0.0053922758   0.0024204081   0.0050744189 
   1979500   0.0044929275   0.0023548922   0.004566255  
   1979600   0.0052116931   0.002142128    0.0047072581 
   1979700   0.0044301591   0.002051807    0.0042322759 
   1979800   0.0049303952   0.0020448889   0.0044715678 
   1979900   0.0043640762   0.0023095794   0.0044575232 
   1980000   0.0066283108   0.0027330313   0.005995403  
   1980100   0.0059506906   0.0028329204   0.0057617759 
   1980200   0.0059808309   0.0020017151   0.0049454053 
   1980300   0.0040694112   0.0015880621   0.0035909755 
   1980400   0.0062363532   0.0014758557   0.0045453108 
   1980500   0.0053348598   0.0016729627   0.004298714  
   1980600   0.0060339265   0.002075905    0.0050457282 
   1980700   0.0058317331   0.0024649366   0.0053352428 
   1980800   0.0053585871   0.0025072608   0.0051446904 
   1980900   0.0047268588   0.0027389226   0.0050654234 
   1981000   0.0046919327   0.0025076764   0.004816987  
   1981100   0.0054195362   0.002119352    0.00478678   
   1981200   0.0049859359   0.002384692    0.0048387073 
   1981300   0.0046362027   0.0021999107   0.0044817917 
   1981400   0.004668489    0.0025675308   0.0048653027 
   1981500   0.0051245574   0.0023607949   0.004883038  
   1981600   0.0045853814   0.0029000395   0.0051569069 
   1981700   0.0040460053   0.0029528043   0.0049441976 
   1981800   0.0074680387   0.0022237666   0.0058994419 
   1981900   0.0053653048   0.0020252809   0.0046660168 
   1982000   0.0055223326   0.0019722649   0.004690288  
   1982100   0.0049637703   0.0020603435   0.0045034492 
   1982200   0.0056249922   0.0023490878   0.0051176387 
   1982300   0.004992881    0.0018096202   0.0042670538 
   1982400   0.0052150644   0.001666925    0.0042337145 
   1982500   0.005313939    0.0016009002   0.0042163545 
   1982600   0.0041870273   0.0016989236   0.0037597261 
   1982700   0.004182574    0.0020278464   0.004086457  
   1982800   0.0054656535   0.0018606793   0.0045508056 
   1982900   0.0070960884   0.0017181386   0.0052107446 
   1983000   0.0060347209   0.0021900075   0.0051602217 
   1983100   0.0035152978   0.0024311352   0.0041613209 
   1983200   0.0046516392   0.002079688    0.0043691666 
   1983300   0.0051688307   0.0020050591   0.004549093  
   1983400   0.0048165233   0.0022223044   0.0045929369 
   1983500   0.006040761    0.0028677546   0.0058409416 
   1983600   0.0046465971   0.0031376505   0.0054246475 
   1983700   0.0070986138   0.0034349895   0.0069288385 
   1983800   0.0056043517   0.0030140473   0.0057724392 
   1983900   0.0056223852   0.0027937842   0.005561052  
   1984000   0.0050532751   0.0024712755   0.0049584344 
   1984100   0.0056924885   0.0024401928   0.0052419645 
   1984200   0.0056846356   0.0021283476   0.0049262542 
   1984300   0.0039684604   0.0022801088   0.0042333354 
   1984400   0.0057022348   0.0023077644   0.0051143331 
   1984500   0.0050569045   0.0029058378   0.005394783  
   1984600   0.0042357858   0.0029254972   0.005010298  
   1984700   0.0061819768   0.002168067    0.0052107587 
   1984800   0.0045070634   0.0017174146   0.0039357348 
   1984900   0.0064325048   0.0016413865   0.0048073849 
   1985000   0.00469054     0.0022749654   0.0045835906 
   1985100   0.005221984    0.0023528129   0.0049230081 
   1985200   0.0034586036   0.0022755683   0.0039778498 
   1985300   0.0055984832   0.0021331389   0.0048886424 
   1985400   0.0048608198   0.0026110527   0.0050034875 
   1985500   0.0035728121   0.003113909    0.0048724025 
   1985600   0.0057716041   0.0024205499   0.0052612613 
   1985700   0.0056227728   0.0023218579   0.0050893164 
   1985800   0.0048254807   0.0024124083   0.0047874496 
   1985900   0.0043041213   0.002521663    0.0046400977 
   1986000   0.0060402316   0.0023918867   0.0053648131 
   1986100   0.0045195804   0.0025196187   0.0047440997 
   1986200   0.0056304062   0.0028655702   0.0056367858 
   1986300   0.004940732    0.0029267485   0.0053585151 
   1986400   0.0051048822   0.0025004927   0.0050130519 
   1986500   0.0051543479   0.0022587456   0.0047956512 
   1986600   0.0052495893   0.0020899933   0.0046737756 
   1986700   0.0057607706   0.0023671158   0.0052024951 
   1986800   0.0058301603   0.0021323223   0.0050018543 
   1986900   0.0055676168   0.0015264375   0.0042667489 
   1987000   0.0042138366   0.0014262963   0.003500294  
   1987100   0.0062862323   0.0016101627   0.0047041676 
   1987200   0.0058300172   0.0014433623   0.0043128239 
   1987300   0.0042680877   0.0016998945   0.0038005939 
   1987400   0.0056182989   0.0018484745   0.004613731  
   1987500   0.0065123996   0.001742609    0.0049479307 
   1987600   0.0056369884   0.0017309688   0.004505424  
   1987700   0.0048519312   0.002041564    0.0044296239 
   1987800   0.0046661666   0.0027280469   0.0050246757 
   1987900   0.0057507062   0.0029982409   0.0058286666 
   1988000   0.0046941817   0.0028044002   0.0051148177 
   1988100   0.0056456028   0.0021826056   0.0049613007 
   1988200   0.0054698025   0.0019572188   0.0046493872 
   1988300   0.0050247915   0.0023554816   0.0048286212 
   1988400   0.0042434649   0.0020184918   0.0041070722 
   1988500   0.0051100694   0.0018169564   0.0043320687 
   1988600   0.0064519371   0.0022968105   0.0054723733 
   1988700   0.004244774    0.0028191818   0.0049084065 
   1988800   0.0055475823   0.0023268452   0.0050572959 
   1988900   0.0047735124   0.0021846311   0.0045340942 
   1989000   0.0067925537   0.0021052906   0.0054485006 
   1989100   0.0053264826   0.0027883386   0.0054099668 
   1989200   0.0044899899   0.0026529638   0.0048628807 
   1989300   0.0044819859   0.0020405624   0.0042465398 
   1989400   0.0055102469   0.0020744229   0.0047864975 
   1989500   0.0032349766   0.0022298778   0.0038220928 
   1989600   0.0042232508   0.0024966295   0.0045752607 
   1989700   0.0058795448   0.0022546869   0.0051485253 
   1989800   0.0077871398   0.0024580206   0.0062907534 
   1989900   0.0066070218   0.0026114385   0.005863332  
   1990000   0.0055028717   0.0021736585   0.0048821031 
   1990100   0.0058517627   0.0019654744   0.0048456389 
   1990200   0.005259527    0.0023259082   0.0049145816 
   1990300   0.0039825638   0.0032344198   0.0051945879 
   1990400   0.0046223289   0.003680173    0.0059552254 
   1990500   0.0041608433   0.003327208    0.0053751231 
   1990600   0.0051822972   0.0020900233   0.0046406852 
   1990700   0.0045353647   0.0020709256   0.0043031754 
   1990800   0.004117584    0.0026043084   0.0046309317 
   1990900   0.0031785486   0.0023566873   0.0039211291 
   1991000   0.0046371325   0.0022251759   0.0045075145 
   1991100   0.0031842429   0.0021117931   0.0036790376 
   1991200   0.0064351612   0.0018734894   0.0050407954 
   1991300   0.0044154695   0.0017651334   0.0039383723 
   1991400   0.0051370601   0.001617819    0.0041462158 
   1991500   0.0068023705   0.0021464791   0.0054945208 
   1991600   0.004941278    0.0024908807   0.004922916  
   1991700   0.0071691365   0.0023977738   0.0059263332 
   1991800   0.004928178    0.0024002531   0.0048258407 
   1991900   0.0044836427   0.0024387138   0.0046455067 
   1992000   0.0043522849   0.002431429    0.0045735693 
   1992100   0.0055260491   0.0022524073   0.0049722596 
   1992200   0.0064724232   0.0022818623   0.0054675081 
   1992300   0.0057010022   0.0026553879   0.00546135   
   1992400   0.005649787    0.0021582975   0.0049390521 
   1992500   0.0059608769   0.001989569    0.0049234381 
   1992600   0.0044612397   0.0018231766   0.004018943  
   1992700   0.0054501286   0.0021690321   0.0048515173 
   1992800   0.0051572844   0.0027260947   0.0052644457 
   1992900   0.0041187454   0.0028101566   0.0048373517 
   1993000   0.0039292726   0.0028538619   0.0047878007 
   1993100   0.004333378    0.0026337387   0.0047665731 
   1993200   0.0055955453   0.0024484898   0.0052025472 
   1993300   0.0046788239   0.0021023181   0.0044051767 
   1993400   0.0054766711   0.0021039039   0.004799453  
   1993500   0.0044777734   0.0023353662   0.0045392704 
   1993600   0.0046387967   0.0020376463   0.0043208041 
   1993700   0.0067209752   0.0017739096   0.0050818896 
   1993800   0.0036846547   0.0021362854   0.0039498264 
   1993900   0.0035441194   0.0021016423   0.0038460136 
   1994000   0.0046487757   0.002166301    0.0044543703 
   1994100   0.0061404977   0.001974164    0.0049964402 
   1994200   0.0052462447   0.0025239715   0.0051061076 
   1994300   0.0061448229   0.0033154981   0.0063399032 
   1994400   0.0060807602   0.0030597861   0.0060526603 
   1994500   0.0055340069   0.0024630001   0.0051867691 
   1994600   0.0048207495   0.0024412778   0.0048139905 
   1994700   0.0056573062   0.0021671285   0.0049515839 
   1994800   0.0040610277   0.0024453574   0.0044441445 
   1994900   0.0055377006   0.0025202564   0.0052458435 
   1995000   0.0056677693   0.0025586879   0.0053482931 
   1995100   0.0050007413   0.002912869    0.0053741714 
   1995200   0.0036082484   0.0026871674   0.0044631022 
   1995300   0.0031404131   0.0025518402   0.0040975123 
   1995400   0.0045197622   0.0024076203   0.0046321908 
   1995500   0.0053878155   0.0022927619   0.0049445773 
   1995600   0.0055513181   0.0023714437   0.005103733  
   1995700   0.004986409    0.0021815935   0.0046358417 
   1995800   0.0059840528   0.0022040675   0.0051493435 
   1995900   0.0048047694   0.0028504619   0.0052153093 
   1996000   0.0041188062   0.0032162296   0.0052434545 
   1996100   0.0057045074   0.0030025305   0.0058102177 
   1996200   0.0053857785   0.0030991164   0.0057499293 
   1996300   0.004934022    0.0032275728   0.0056560368 
   1996400   0.0052477409   0.0029614228   0.0055442952 
   1996500   0.0057506584   0.0026090882   0.0054394904 
   1996600   0.0054215917   0.0028450729   0.0055135126 
   1996700   0.0040779023   0.0029812633   0.0049883559 
   1996800   0.004955063    0.0029577484   0.0053965685 
   1996900   0.0045757937   0.0030085418   0.0052606903 
   1997000   0.0042222687   0.0030588955   0.0051370433 
   1997100   0.0046832438   0.002815517    0.005120551  
   1997200   0.0051500003   0.0021958113   0.004730577  
   1997300   0.0045633612   0.0017893532   0.0040353825 
   1997400   0.0036703158   0.0018360092   0.0036424928 
   1997500   0.0044518319   0.002115422    0.0043065581 
   1997600   0.0047498709   0.0023608622   0.0046986893 
   1997700   0.0059294019   0.0022669779   0.0051853554 
   1997800   0.0039899174   0.0024775314   0.0044413189 
   1997900   0.0055844392   0.0021641055   0.0049126966 
   1998000   0.0051106512   0.0018176641   0.0043330627 
   1998100   0.0056143278   0.0022659689   0.0050292709 
   1998200   0.0043151851   0.0025546655   0.0046785456 
   1998300   0.0052712957   0.0024152156   0.0050096815 
   1998400   0.0042348839   0.0024296798   0.0045140367 
   1998500   0.0030287342   0.002623803    0.0041145081 
   1998600   0.0055051309   0.0021173655   0.0048269221 
   1998700   0.0057217041   0.0017686861   0.0045848373 
   1998800   0.0048875419   0.0018746291   0.0042802161 
   1998900   0.007364676    0.0019868413   0.0056116428 
   1999000   0.0053002642   0.0021333448   0.0047420686 
   1999100   0.0044239819   0.0026956169   0.0048730454 
   1999200   0.0037866761   0.0031115123   0.0049752669 
   1999300   0.0045921308   0.0027207583   0.0049809477 
   1999400   0.0052107996   0.0020772636   0.004641954  
   1999500   0.0049143451   0.001868372    0.0042871512 
   1999600   0.0059949807   0.0022728405   0.0052234951 
   1999700   0.0050216233   0.002669087    0.0051406673 
   1999800   0.0049219953   0.0025093587   0.0049319033 
   1999900   0.0045165212   0.0022190108   0.004441986  
   2000000   0.0049904073   0.001955233    0.0044114491 
Loop time of 22.6651 on 4 procs for 2000000 steps with 64 atoms

Performance: 38120276.772 tau/day, 88241.381 timesteps/s, 5.647 Matom-step/s
96.8% CPU use with 4 MPI tasks x 1 OpenMP threads

MPI task timing breakdown:
Section |  min time  |  avg time  |  max time  |%varavg| %total
---------------------------------------------------------------
Pair    | 0          | 0          | 0          |   0.0 |  0.00
Bond    | 0.37899    | 0.39755    | 0.41982    |   2.3 |  1.75
Neigh   | 2.9184     | 3.0178     | 3.1717     |   5.4 | 13.31
Comm    | 10.429     | 10.694     | 11.003     |   6.2 | 47.18
Output  | 0.12974    | 0.14293    | 0.17878    |   5.5 |  0.63
Modify  | 6.4203     | 6.5794     | 6.7365     |   4.5 | 29.03
Other   |            | 1.833      |            |       |  8.09

Nlocal:             16 ave          16 max          16 min
Histogram: 4 0 0 0 0 0 0 0 0 0
Nghost:              4 ave           4 max           4 min
Histogram: 4 0 0 0 0 0 0 0 0 0
Neighs:              0 ave           0 max           0 min
Histogram: 4 0 0 0 0 0 0 0 0 0

Total # of neighbors = 0
Ave neighs/atom = 0
Ave special neighs/atom = 6
Neighbor list builds = 2000000
Dangerous builds not checked
Total wall time: 0:00:22
