LAMMPS data file via write_data, version 8 Feb 2023, timestep = 100000

200 atoms
1 atom types

-11.876696863105703 11.876696863105703 xlo xhi
-11.876696863105703 11.876696863105703 ylo yhi
-11.876696863105703 11.876696863105703 zlo zhi

Masses

1 39.948

Pair Coeffs # lj/cut

1 0.00965188 3.4

Atoms # atomic

39 1 -10.394704135733114 -8.775565826160808 -8.397941096758792 0 -1 1
57 1 -6.0931281896189695 -9.344348749599556 -7.681818125657076 1 0 0
82 1 -7.510250310452092 -7.015516388660279 -10.07082880494168 0 0 0
47 1 -8.77559664157391 -8.051556457641034 -5.414795391990417 1 2 1
8 1 -7.186535453159322 -11.036850971616609 -10.567777816088821 0 1 1
49 1 -0.39620530191825165 -8.622783800666731 -7.678166749572666 0 1 0
184 1 7.393521813917142 -7.373039726272342 -11.446331826056564 0 1 2
54 1 4.350458272629415 -9.857224313433228 -9.653286924521744 0 -1 1
114 1 3.8685603455186985 -8.598956542283156 -6.307174409208557 -1 0 1
128 1 1.5947628847115236 11.435941489344966 -7.415359628481937 0 0 -2
102 1 2.581923114006006 -6.377657392511939 -10.762619336954629 1 -1 -1
157 1 6.660414728640671 -6.277919775804619 -7.429265669038422 -1 0 1
20 1 8.111607396483045 -11.231970200759829 -9.923403990974927 0 1 0
147 1 10.627447337694411 -5.758860591417452 -9.410039814850826 -1 2 0
169 1 9.360516562348877 -8.959647419481891 -6.858134439225374 0 1 1
123 1 -6.81574278381186 -3.257465879140419 -10.90227212401971 -1 0 -1
182 1 -10.83184823295899 0.6211210726593173 -5.225302920513499 0 1 -1
130 1 -6.48675645240678 -2.4960330140097717 -7.149887944428669 -1 1 0
140 1 -9.06689925915267 -1.3404094442689392 -9.265230651366284 -1 1 0
153 1 -4.596115154274846 -5.2269288210583476 -8.762725686367764 0 1 0
129 1 -0.18023204267520931 -5.069487595679249 -8.563855383994511 0 1 1
148 1 -3.129776386379185 -2.132302209017619 -9.812957672584432 0 0 0
68 1 -2.5326692981381176 -3.433323674590902 -6.08354364753642 0 1 1
119 1 -3.563878018222407 -3.8548716132518166 10.583657201237452 0 -1 -1
174 1 3.1103832548223167 -1.970524067942005 -10.720839500990373 -1 1 -1
134 1 -0.0533798609747933 -0.3943397369034881 -8.568909963478589 -1 0 2
189 1 2.8780134490012608 -1.3406833227009611 -6.386852522463116 0 0 2
28 1 6.229563951867086 -1.1530156323854972 -9.327046250788925 0 0 -1
1 1 7.525938759972945 -2.8198310481116913 -6.5604190503711814 1 -1 0
24 1 10.94065283830757 -2.1209886921600436 -8.153560298060441 0 -1 1
89 1 -5.78369558828959 0.914992281244533 -8.554571507812774 0 0 -1
137 1 -8.18813666088715 3.7027977864495334 -8.645965827566897 -1 1 0
88 1 -3.2799196205792844 2.576742862817614 -11.027465080959736 0 1 -1
160 1 -0.2557418723462786 5.44151330793023 -5.976638045093324 0 0 1
125 1 -3.2953557120100467 3.5116994482831103 -7.1553118740511215 0 1 0
167 1 2.6725243652102173 2.638087495697569 -7.466301426847419 0 1 0
107 1 2.5245946528561056 1.4391466346789628 -11.24156229950114 -1 1 1
45 1 -0.29130191021650537 3.390022307884845 -9.780519849519312 0 1 0
95 1 7.067732497970006 1.8275651232311958 -11.06782765028197 0 2 -1
111 1 11.286054617943643 1.4415120259015062 -8.377487796984207 0 1 1
37 1 7.567677172981714 1.512274859816151 -7.66702414977977 1 0 2
53 1 9.41684489904846 5.317555173980882 -10.149115122842298 -1 -1 1
122 1 -8.696560905496263 11.52907921791907 -7.072120720309414 2 -1 -1
126 1 -8.701961655974642 9.131336810565264 -10.209192118557077 0 0 -1
72 1 -11.181614439635823 7.328242947804642 10.873052780217858 2 0 0
144 1 -3.063630044241759 -9.888584626042347 -9.88620302733954 0 1 1
135 1 -0.011770197460421628 7.809248750526247 -8.433472830923051 1 0 0
183 1 2.868185059788288 5.159526867067117 -10.074475497261854 0 0 0
155 1 3.7046375990422384 9.18029420434672 -9.355401725486303 0 0 0
21 1 6.6545915304717695 6.763201059850044 -8.264144019598284 1 0 0
66 1 9.504750400993288 7.515486524178964 -6.171582593350192 -2 -1 0
22 1 11.084351988266622 10.76412261505721 -6.106373064516015 -1 0 0
42 1 9.142378798766934 9.296638377937079 -10.23790547780751 -1 1 0
77 1 -6.875408369074396 -10.905367618463075 -3.8927601705390593 1 -1 1
18 1 -10.586419483635158 -11.318597225412478 -3.865523315987396 1 0 -1
46 1 11.248362092754824 -7.711534097612761 -3.9950725578324935 1 0 -2
14 1 -9.503351845338017 -7.486629728113749 -2.029636008930268 -1 0 2
178 1 -4.577490558383545 -8.077630279121967 -4.852591089043882 2 1 0
48 1 -3.2127534742600403 -10.982725180284804 -6.34369805529311 1 1 -1
55 1 -0.9448027936788463 -6.214616210957371 -4.309013304243614 -1 0 -1
12 1 -1.8077376902517912 -9.51331251139922 -2.294135008818479 -1 0 2
15 1 6.0707891099498035 -8.158735340051752 0.7389132882736256 -1 0 -1
64 1 2.744794419170617 -10.568743032836894 -1.6560300803721786 1 1 0
44 1 8.059994426810258 -6.349491556263628 -3.6188994660194567 -1 0 1
188 1 10.007211181841205 -8.471311544163584 -0.7301030264655086 -1 0 0
200 1 -9.361429934020506 -3.325582783501604 -5.251291205351098 -1 0 0
198 1 -7.206783651218934 -1.1768543952383812 -2.2878728904921033 0 0 1
76 1 -9.957900853453992 -2.990392708748729 -1.4836790089375538 1 0 0
194 1 -6.720915931526202 -5.0514840317136205 -2.6178060083265535 0 1 -1
96 1 -3.442998842345119 -4.030752937282784 -2.1099501345166054 -1 2 0
104 1 -0.4344464897733502 -0.6370527730950448 -0.3065766310174318 -1 0 -1
91 1 3.028414651691776 -6.371562707358944 -2.3012007885342207 1 -1 -1
154 1 -0.18450456920986724 -2.8959245063427446 -2.9727341046372144 -1 2 0
19 1 3.3110202139376677 -2.0069344123928587 -2.3036519362171575 0 1 -1
176 1 10.315295502792623 -3.712962672865248 -4.262743726209571 0 0 0
120 1 6.599910778171431 -2.290014983742207 -2.708516274908039 1 1 1
138 1 9.70090444039391 -4.510671194156078 -0.7586380570561282 -1 1 -1
9 1 7.581463530555666 -2.0591591013924426 0.5576192070111965 0 0 1
150 1 -9.916366847902271 1.9274446583917424 -1.3280546499490278 1 -1 1
38 1 -5.810864806174543 4.79569434382538 -4.7432663890343605 1 0 2
172 1 -9.649044476681059 4.000883539130775 -4.9787866594630685 0 0 2
87 1 -3.293106763914671 -0.9728697280200684 -3.5717383721780784 0 -1 1
93 1 -6.290260113883048 1.000513447709075 -4.873943848533926 0 -1 1
195 1 0.9143548729177553 0.18149461265281985 -3.719891858874817 1 -1 3
149 1 -2.3007300445292564 2.7637958268752776 -2.589523265551314 1 0 0
25 1 4.621842262318463 1.3043820546828728 -0.6225207492747167 -1 0 1
35 1 2.847846769015831 3.7484794005209174 -3.7317005078406185 1 -1 0
5 1 5.76859301522971 1.4821693744986142 -4.192625078793096 0 -1 -1
116 1 5.980108401532309 5.771931805152196 -4.952107221267599 0 1 0
112 1 4.9004069037624305 5.449030478588363 -0.25381811981375635 -1 0 0
152 1 11.427575396440815 -0.5215078327180223 -1.9270850902641319 -2 -1 0
132 1 8.550991064218966 1.8728424902700131 -1.3413841671493485 0 0 0
173 1 8.98824885831321 3.8266779448060135 -5.54469830676447 0 0 1
73 1 -9.970827412932536 8.006037772956901 -6.707069562638264 0 -2 1
29 1 -7.851850658958549 7.656691482687513 2.2522623824361467 1 -1 -1
161 1 -11.447924236091708 7.060851422709438 -3.5858559166646984 2 0 2
78 1 -1.7537678607411138 10.085056705494843 -1.7540835643783588 1 -2 1
11 1 4.471756401488951 11.779896969440827 -4.946674669424063 0 1 1
84 1 2.43612195340992 7.404092397911457 -5.290554303714214 1 0 0
90 1 6.2047805444381146 9.344776673352051 -0.9025295949725489 0 -1 1
36 1 1.9413202066882462 7.760257880084115 -1.7928253633196454 2 -1 0
98 1 8.489759189718113 7.59448375625753 -2.9903904190005255 -1 0 0
56 1 7.283347233840352 10.49272575590101 -6.717344837699539 -1 0 1
109 1 9.256731562506227 11.306927316729052 -0.9017849515922478 -1 1 1
115 1 -7.271375340356332 -8.164250984794014 2.885007836656445 1 0 0
124 1 -11.095529268087242 -8.923461918340646 4.126541576799873 1 0 -2
121 1 -8.243366755262961 -10.114098944495577 6.642910506934619 0 1 -1
80 1 -4.970941376701066 -7.256796443574398 -0.2694927115936565 0 0 1
151 1 0.35720010482862147 -6.473326344145772 0.3145914251441795 0 1 2
4 1 1.490868001691105 10.008505441456391 4.6538607757363515 -1 -1 -1
6 1 9.00182583692019 -10.573496261667716 2.7405792887239087 1 1 0
166 1 -8.709149836110669 -5.121301291304988 4.221356992297617 0 2 0
40 1 -6.986302058442625 -4.546619094873101 1.2165687777692458 1 1 0
127 1 -5.703890672733537 -2.4808733861641947 3.9258140668162143 0 -1 0
60 1 -2.3900969955392997 -2.1240248283806444 5.301270425252238 0 1 0
168 1 3.975110510651529 -3.4413029165097235 0.7867580630241555 -1 1 -1
51 1 0.36128571956442473 -3.39012855469405 2.9987895355425387 0 0 -1
97 1 2.1619059504545017 -0.14370659092792337 2.253550136735452 0 -1 -1
103 1 4.021656515073349 -0.9827338117732367 6.042568640726292 -1 2 0
163 1 -10.59690034092717 -2.73669268553396 2.3250010477277816 0 -1 0
175 1 5.789631011184049 -3.417672117461432 3.9954654049476215 -1 1 0
158 1 8.907482269205014 -6.491283319059688 2.9624073267859536 -1 0 -1
85 1 10.197413661591135 -0.012917762754849087 5.257965818060175 1 0 1
63 1 -8.188715623008076 -0.18029853692280418 1.160315648952679 -1 0 1
133 1 -10.49518128239182 2.3754251515033395 3.670523930057962 1 1 0
67 1 -6.57681506296786 3.490338685255813 3.2777499682226248 1 0 0
83 1 -3.8395282904771557 0.6878472661538524 2.789698047147944 0 -2 1
181 1 -5.242185082676098 0.757446996867543 5.798435988392239 -1 1 -1
162 1 0.5730435311953745 0.02538554697642809 6.131446692962922 0 0 0
71 1 1.5861291557437986 4.031923436354859 -0.5668685974116876 0 -1 -1
31 1 1.1084648099889496 4.166735507593387 6.199029350547128 0 -2 0
139 1 3.8934885611865404 3.644680090821751 3.3699758952172827 -1 2 0
3 1 11.031167120250961 1.2297818113295769 0.8240448962619134 0 -1 1
108 1 6.151774132335838 0.9127260755469919 3.630865862972541 1 1 0
16 1 8.948393568215273 3.5697656211117277 4.019424538349256 0 -2 1
110 1 -11.360902504880006 5.931262380786016 3.1386340545012104 0 0 -2
50 1 -7.03855700568745 11.1587737863648 4.038018652970141 0 0 0
191 1 -8.539592833531575 6.98957805034221 5.576163396973422 1 -1 0
187 1 -10.749591400235348 11.27674482179097 5.078753839959464 1 1 0
180 1 -1.0497509784332344 6.113751500784257 -1.8125940782158025 1 -1 2
2 1 -1.7901048404834796 5.395364205758469 2.706946913090345 1 -2 -1
30 1 -0.609763114135145 8.866708941315338 1.2567907242718874 1 -2 -1
7 1 4.024360795442131 8.792731325824677 1.6316831819568236 -1 0 1
164 1 1.9253904296798758 6.2539753963352425 2.2732172727821673 -1 0 0
69 1 4.589943704480154 6.860175335740237 5.107742575629615 0 -2 -1
61 1 10.211708813407666 5.048929362482134 -0.6556133826774401 -1 -2 0
34 1 7.618123086186067 9.260791062852595 2.410253158978456 0 0 -1
43 1 7.187831963553112 6.047643259558733 2.377231426556367 -1 -2 1
177 1 8.53679514766192 7.2855280107021585 5.618179930120522 -1 1 -1
65 1 -10.025744517789033 -8.43398132011017 11.42484399314975 0 -1 -1
27 1 -10.94664003963282 -11.66367183635281 8.50586002909509 1 1 1
58 1 -9.736423247717525 -6.9374057905213675 8.120131077653108 -1 0 -1
26 1 -5.214988898132063 -8.488979255655 9.322140672840906 1 0 0
142 1 -2.2289627568453696 -6.732212289220556 8.533930418433167 2 1 0
101 1 -4.332868168974628 -8.046497536008985 4.908195000324994 1 3 1
100 1 -1.5781140115056829 -10.89378955359733 6.845196027213777 1 2 0
105 1 1.348709072973532 -7.840212526420486 3.935309569976617 0 0 -1
75 1 4.538409842632715 -6.347596431637598 5.462073088539682 0 -1 0
99 1 1.681804464017192 -11.02047184883833 10.743929007254543 0 0 0
193 1 2.131527690130696 -6.895966349546285 9.427352746134135 1 1 -1
33 1 4.441375653691135 -11.736850231117081 7.202677955581144 0 -1 0
81 1 7.255373647519644 -8.53916396071646 6.739789624034124 -1 1 1
92 1 9.790634573312333 -9.44185811686149 11.159147618448468 0 2 -1
131 1 11.167512844489337 -5.2910720883824744 6.1780456625725 1 0 0
32 1 -6.188065315477864 -5.388148534056967 6.4630859734577015 2 1 -2
165 1 -9.199411318810375 -3.239575676768024 7.39142666230393 0 0 0
199 1 -6.937479844200535 -4.998516463158538 9.811426478379644 0 -1 1
70 1 -5.484149755229003 -2.3316100376807256 7.82342156113301 0 1 1
146 1 -1.4782561675061032 -0.5332293079309558 11.298322053799005 2 1 1
106 1 -1.299565649633866 -2.547377817344993 8.672457149378053 0 0 -1
86 1 5.4346476876843255 -4.567525864857576 8.586496749161867 -1 0 1
52 1 0.6258963928325112 -3.6737913184680213 11.408468473681546 0 0 0
197 1 1.6655903827098761 -4.690360650696893 7.1487356646988935 -1 0 -1
185 1 2.1215529597432052 -0.6042753779764993 10.00914541981377 -2 1 -2
145 1 7.122063254971888 -3.6848122349525525 -11.806135592932787 -1 -2 0
156 1 -5.464187808325629 -0.39192954326422935 11.38371879051662 0 -1 -1
10 1 -9.035521158465771 -0.7757159430461369 4.809652747733452 0 0 2
196 1 -9.335669158910619 0.22813232884729473 8.66176404595545 1 2 1
143 1 -7.124352690053236 3.030922198080938 8.687337455424057 1 0 0
13 1 -11.772101478818819 3.2748279418542197 6.990058907086091 -1 -1 1
170 1 -2.6686912671072918 4.2637019013785284 6.493175161410804 -1 1 -2
59 1 -3.414884055242947 1.7144589247064204 9.304818354414252 1 -1 1
190 1 7.431647314963107 -0.2323681547056703 9.930387554553988 0 0 -1
186 1 0.12403907626679356 2.5751847736553266 9.610847507588266 1 1 0
136 1 3.4038632456152635 2.1695685652264665 7.948376142475482 0 -1 -3
62 1 3.9322597596563718 6.930006246409542 8.985009369790514 1 0 0
192 1 10.419594684028056 2.5035467156582776 9.806945423286493 1 1 1
113 1 7.193391146269118 2.2362428283193516 6.875806515902987 -1 -1 -1
179 1 11.834426610265067 -11.194697762969987 -10.475928756799647 -1 3 2
74 1 -8.13998220698503 9.794354756748188 9.006589181804868 1 -1 0
118 1 -11.66384578850255 8.468830152015009 7.042404750007243 0 1 0
117 1 -5.315240522733173 11.32072783429444 7.576721087819581 -1 -1 0
23 1 -5.138619088737474 5.725030905668137 11.239725943022542 0 0 -2
171 1 -4.330917401708549 7.140228396638214 7.942565065680071 0 2 -2
17 1 -2.03596415813805 8.313925455397243 5.2823718467129375 -2 0 -1
94 1 0.5232518791432845 9.687616975679045 9.044820921363916 -1 0 0
79 1 8.56918534055184 11.565534359174451 5.948120961320791 -1 0 0
41 1 5.45739715811315 11.541960137674769 11.642369134799488 0 0 -1
141 1 9.892948341443592 5.76405276568962 9.068370836458591 1 -1 -1
159 1 9.60684214528172 9.743113663992652 9.758679903521092 0 -1 0

Velocities

39 -2.179321628468343 1.1511761233721014 -0.5234785181560597
57 -6.53120961304823 2.2544161501487334 -1.2373865721091248
82 -1.0543302569480935 -1.2919030991113425 -2.688794866729753
47 1.4420685217894869 -0.5747049377538087 0.6848122481945966
8 2.36242269061923 3.5603470370323436 1.4936669774368116
49 -0.6083156247744255 -1.170955618423765 -3.8346753413107364
184 3.2429732085760055 -3.3821697881066015 -7.235911314720436
54 -3.6115695852161833 0.0106170916100512 5.665158101271987
114 6.929262289695876 4.643270489304085 -2.432510904848287
128 3.7837119455630903 -0.5425190416852157 -0.9248832742343969
102 -5.730330621950312 2.5925672733788283 -4.330025077474401
157 -0.16543207126613158 -3.935307993847579 1.876153422628358
20 -2.5674917416750285 7.261116339316168 -0.2822364811608604
147 3.957269802164221 -0.44334252499690296 1.8428688293334772
169 -0.43761432062493966 -2.7004091328373003 -1.9616354437812995
123 0.4419336641195504 1.661879969268821 -0.34576656499174563
182 -2.755633666515818 2.89026397900542 -3.3064689855078004
130 0.4228585869964945 -2.6339270059626747 2.3472759619296717
140 -2.5258615952943133 4.5464360654810925 -2.960299517136603
153 2.614799199811544 -6.997005129983971 -0.4675266931999429
129 -1.0794701392816852 -0.7999027589273617 -1.3594765973927763
148 -2.5441459127388772 -5.738540142837333 1.2458734580393733
68 -0.8806574381084391 3.664356747058979 4.498638804868755
119 1.348535842985886 -1.9096618944303452 1.6705192446304495
174 0.23536625265167066 3.432430764653958 -0.9841797613553105
134 0.26301203065712264 2.9239481371691687 4.198089422305616
189 -5.106229336056745 1.3598593078850199 -5.0921887654096665
28 -0.5789581538284776 4.678352716038949 1.6083556088979694
1 4.3168451733041335 -0.8087879863432109 -1.1510010508143134
24 4.684129190758672 0.5864820180144825 1.3599272674223446
89 1.2931815025110984 -1.7192563446283065 -3.2675358462468287
137 -2.489381057507014 1.3936843668930472 -3.4953181455890334
88 5.564916491075967 0.8520321811715912 -4.447122865446203
160 -0.07033878109043368 2.2522705799844327 1.9030072089658323
125 -1.5185131407725638 0.6804743431846004 -2.389477187487043
167 -3.6035218377687275 -1.9787464624356907 1.2495634883162925
107 -4.50061384293538 -4.128984940089246 -1.940600692273992
45 -2.0130680589133294 1.0097638511181886 -1.9327875523898734
95 -1.8894050626509937 -4.373548537324043 0.32709687823368594
111 -4.9090211058158335 -4.89034728498546 -4.4838347069372535
37 -0.7827825654937912 0.2606671310038102 1.2648209822548744
53 -3.3248176554427693 -1.934526339006954 -2.2700456945424197
122 2.3544797713703187 -0.1174286295452037 -1.1080357975092663
126 -1.8232106805443349 -4.42954489421542 3.9468260248902474
72 -0.3083487798866145 7.089424978098924 -4.065977117594069
144 -3.209546353795563 2.7953912155418355 -1.9419952653204642
135 2.825460830342647 -1.3242735854960683 -1.061464548303972
183 -0.6219322132099675 4.350176294595897 -3.2016653855084876
155 -4.16183730251878 -4.394917007094668 3.143265712814128
21 1.042679461197399 -3.76474130433989 3.307467644481217
66 -0.5660353999856405 -0.9094642274226821 -0.5314610131608182
22 -1.709804393279522 2.6955272721787336 6.847933865416769
42 1.5723865718421481 1.2482884329237185 2.4822430118654624
77 1.0256281250413677 0.6998122284735013 2.9532003047278765
18 -3.421972744387341 -0.5274519950694775 -4.133682641337289
46 2.168436016686143 1.0804778012063694 -4.320033516090909
14 -4.0164283054824255 0.49834440962343196 -0.8290451948901274
178 -1.7412819488092 2.798973205265782 -0.479900827844132
48 -0.555572193190021 -2.2271111327857946 -5.48753500392571
55 -0.2945098160209474 -2.3597197684570634 -1.323571695006608
12 2.648780275608345 -5.627798255886156 3.878499085658468
15 5.08064047237585 10.983886551374368 -3.8614562219189974
64 4.528407739688303 3.5669581487847277 -1.59783436247384
44 0.6179240842533569 4.733042665051045 3.2581525303469463
188 -7.148050937863482 -0.9829624495370496 -0.8418403492142479
200 -2.1181786226695647 -0.7796260516164706 -2.0505857854477805
198 -0.41864716042364125 2.296081055566785 0.29109905683884685
76 3.589037248934578 3.9784201870774147 -0.18396191505765547
194 3.2793423730519953 -0.6090514771278666 -3.4934826993710537
96 -1.781539941975932 -4.363514711154816 4.864062078072237
104 1.408163209882818 -2.2024070797001714 1.13197301326935
91 0.7549842936282545 -1.8949946215618456 -1.0202618871629823
154 -3.58496442590166 0.6965660533263317 -1.9948941159972786
19 1.1538547086598117 4.352147462832853 0.5698931598819479
176 6.6158635134989 -2.4436529370166666 -7.921148144074609
120 1.9770896033272432 5.325440429480748 0.4321682589452387
138 -2.434142355712014 -4.211844174503549 3.7463686848024356
9 -7.9556317081134775 1.3611081846148716 1.1973651519179334
150 7.132627873294173 -1.1589700932996243 -0.3531633921451265
38 -2.373885424533282 -1.6670776794732187 7.126244784839699
172 -4.190332426742245 1.4971407429268737 -2.1038522992559976
87 3.8705371644824407 0.6946282376038537 -0.5718475935933448
93 1.3514689577122314 2.2886635029067657 1.1457291529838165
195 0.8294761589431854 6.809445622982572 -4.490681006002271
149 4.665694837020095 -3.8971221183097815 -7.000247317496072
25 -1.4227504585025186 2.666757793916314 -4.2485642256584795
35 2.0433487025942068 2.1539055294115 -2.682708261193331
5 -3.648704562720594 -0.39330823945136234 0.15528838477335327
116 2.764952659364006 3.2308857608345534 -0.538944143891585
112 1.7976356559372615 -1.540357698562047 -2.170928793825917
152 -2.4572877205036923 -1.6206485240807629 -4.85936004694647
132 4.802107956404735 -0.11013197470116909 0.6674735986355181
173 -0.7045077946396323 0.6277364102624156 1.4282110726540087
73 -3.4535983591604964 -1.3273163733693092 3.631166806617851
29 -5.742750315320132 4.210335165654985 -3.183862358662845
161 0.7207671082657183 -2.639249856838032 1.2031913703667394
78 1.9802499580941673 3.892356471093276 -6.0300544674355
11 0.3710597317170738 3.014897507875772 7.0674999285689495
84 0.06314153271125988 -4.938702818012672 2.3405049696166014
90 -3.021721770486999 0.5895782968475963 -0.883462541486843
36 0.6115261475891951 3.326758596635819 5.305093464697983
98 -3.289247327924386 -0.7716659861479829 -0.8061979190797803
56 -2.484208615656381 -0.7583806019455193 2.000293738990754
109 4.065544877208817 -0.31468790514138334 0.3860037578404895
115 -1.5583103456503846 -4.034490286401138 0.5420000897756707
124 2.716664944254732 1.195693130251065 -1.0534283229167152
121 8.492299287405391 -0.8573607139000322 2.0906896396885357
80 -4.269726737071596 1.290253084422534 1.3756246647776993
151 0.17922239204385892 -5.243344038190157 -1.7214465623209987
4 -1.5287457726003018 4.545253326761756 0.4075652200807629
6 -5.5555965267113505 5.196757149002673 -2.131768740002899
166 3.8192709965319924 8.287983828276944 -1.2203929922517287
40 3.450300769917062 1.3679263003539135 -5.713912913407013
127 -1.8550057408599427 0.2529213554001156 4.292787610095508
60 -0.4570467791684108 2.1995625338737512 0.38684023826685754
168 -1.1461639744415708 -3.7753008221986715 -0.7069362633693567
51 4.246427854086795 2.2660286121479016 -0.17525536000106454
97 -0.45920058079801923 2.3672214881822935 2.918793131685986
103 2.8457407886760415 5.079818233132883 -1.6831372889932052
163 6.588786306029201 2.961102097923318 0.12898108224833468
175 -0.7784000842847736 0.05239163186710383 4.783927411692968
158 1.324975092911766 5.716483065795907 -2.766582829578808
85 1.126575470046233 1.8878210873276244 -0.3160540074040886
63 0.26385610607819265 -1.0518690744177137 4.681584068045189
133 -0.8004471826186864 6.474544076922776 1.4133211461125943
67 3.6157553514613374 3.5767340310447207 0.22045279936244222
83 -1.0062072078141164 -6.493845317833074 -5.600689394569981
181 -1.9698774782124704 -2.4967875449198838 -1.482046688397622
162 -2.904567214261779 4.609525946829769 -4.773883794319192
71 4.704149679704777 3.1523586525426124 4.57547323305684
31 -1.5901553457672002 -3.05689507101266 2.2039810687618497
139 -2.695407001366337 2.151237461783768 -2.283708689815052
3 -0.46766817551787454 -3.140857693103965 0.4361924390516714
108 0.1913617703423478 -2.71581239158428 0.6724779385423365
16 -0.5574602967458635 2.869089341747036 3.246617986586125
110 -3.2935781644783413 -4.906537822882089 2.429950659174858
50 1.3517081278566716 0.7979565345760338 -0.4185472621695281
191 -6.186669509381163 1.5069910278978673 -3.122140179713244
187 0.8559064953620825 0.3957056787517148 0.9088293844669495
180 0.221714052316844 3.344232199120801 0.5800459730217239
2 2.3994296631460794 -2.8375195813060388 -1.0887178593496891
30 1.2210690766888224 3.5899619104376446 0.08151741673684687
7 2.7726111769463913 0.687615055956059 0.37410979119832144
164 -1.1931898641891907 -1.3539824930215878 -3.3405462160564703
69 1.9731979197688503 -3.2571194324245205 1.6749831681024951
61 3.1823016504442476 -3.0315743307115213 0.8747268024881065
34 0.42940760329491323 -0.8546757769020348 0.7046464666351262
43 -1.2834304624987016 -0.32585553857664296 0.40311374457538895
177 -4.156106157869977 -1.1691085227558309 4.764406539360629
65 0.7459698348800096 2.6999150256104985 -3.5548113977053744
27 1.2331887682296838 -1.694381902758542 0.04304965560826135
58 -6.154057979578904 -0.19938148972279413 -3.4163165607386854
26 2.910747146350628 -2.990465499480819 -1.5258142005591657
142 -2.6857404309480515 -0.4742647340730133 0.8619212003727141
101 0.8564696967146533 -2.0546263222545185 5.004696469365843
100 1.7773361390238631 3.5466656645190247 -4.741841979587642
105 5.236015515046745 -7.745834640119119 -2.0944663177984997
75 3.19034440896343 4.856191854526413 0.20239301909347396
99 0.7372059827598996 0.8218000327204846 1.1962914445625328
193 -5.54751039136509 -0.8984829893317632 -0.09804506747660646
33 -0.9015609488918586 2.8634014710755875 -0.5142897564939601
81 -4.226349362632615 0.4990338142221863 -3.177351469506789
92 4.852938979419456 -0.5312580038435196 0.4444574326006344
131 -6.780942865007681 0.2505331120455996 2.984671966978939
32 2.043323184339133 -2.0915365663642502 0.3570674081797969
165 1.772621337461088 5.624086428613788 -2.1958779155861525
199 -4.655961690467214 -1.5582587292151853 -1.0372922469851396
70 2.1009520029345854 -3.4367267457669444 0.3489118952393979
146 1.1094627356046975 -3.7052416904893786 3.1151669468585044
106 0.9244635796842038 -0.8697076449017062 -1.1271268628891515
86 -2.4614440724404063 -1.1443915951868173 3.0472327038543923
52 2.206997554373295 0.48895638167295574 7.813903343751546
197 -4.43947099244034 0.3827402537789232 -6.114284477117655
185 1.8450115502667273 -3.367103363338241 -2.7646657581326055
145 -4.495233666659511 1.3255674480674051 -1.5848168476287035
156 -1.1061826790673608 3.490100920043544 1.7425058587963753
10 0.10888349121518726 -2.3346954910750384 0.3634642612209191
196 -1.237862986215301 2.306399540514406 -5.426709024577362
143 1.387043305733553 -2.3787136376519027 -0.20756141146550633
13 2.2357687358768974 1.685714857075964 2.2457142840004356
170 5.1889099023089535 2.9826822454922652 1.0755609101553643
59 -1.712405925615148 -2.553137012160255 0.03926835373766702
190 -1.7274645985224364 -0.0964601276780217 -0.8892867639051387
186 -0.5051041743099376 2.0346977046537615 2.086897795173162
136 1.6635288094047165 0.5254443611211371 1.8199836517530088
62 0.7708640981248649 0.12152082573932288 1.7717141492471689
192 -1.0422128532558474 -4.04447955732469 -1.926662726630305
113 -4.472429838979146 -6.765621050808509 -3.003588999898843
179 -1.7067254128417755 -7.980317775082368 -0.9140818138687279
74 3.515578700667397 -5.09057685611017 -2.4373465493326076
118 -3.836950473028625 -4.398228703366778 -0.9008313748045251
117 1.2669363304661976 0.4817377004658103 -1.5641060379969072
23 -3.023411190495862 0.4127754096885368 0.24116380806370397
171 0.782437003849918 2.278657242176388 -1.477387925776958
17 0.8979396881179555 -2.2139965953711083 -0.9661842759619532
94 -2.2083649456241576 -0.3520697824173402 6.939477089019811
79 -5.097477099334401 -1.1053765447054356 -0.5927717885602897
41 2.717742851180541 -0.8197068618726784 -1.1670313842646072
141 1.3223712852080913 -1.1251601779570968 2.4100632027817
159 -3.979797713933269 1.5260607907829866 1.4624579807682239
