LAMMPS data file via write_data, version 8 Feb 2023, timestep = 100000

200 atoms
1 atom types

-11.876696863105703 11.876696863105703 xlo xhi
-11.876696863105703 11.876696863105703 ylo yhi
-11.876696863105703 11.876696863105703 zlo zhi

Masses

1 39.948

Pair Coeffs # lj/cut

1 0.00965188 3.4

Atoms # atomic

39 1 -10.338208372875723 -8.724519590498623 -8.445612139491281 0 -1 1
82 1 -7.5133824622188925 -6.978636164411631 -10.191775661279799 0 0 0
57 1 -6.093878587859262 -9.276313581141936 -7.744358551066254 1 0 0
8 1 -7.188384493977925 -11.000743174865285 -10.566868392413127 0 1 1
49 1 -0.45896030511450936 -8.721648062141405 -7.76988436909876 0 1 0
54 1 4.36019737005205 -9.840722628422576 -9.652200105153977 0 -1 1
114 1 3.904944042667676 -8.560258519206736 -6.227256449483399 -1 0 1
128 1 1.537670815459421 11.367557646509137 -7.44113189883349 0 0 -2
102 1 2.6467980910798623 -6.300231690446356 -10.839747469959917 1 -1 -1
157 1 6.599214138053117 -6.278630725537236 -7.389049268829837 -1 0 1
20 1 8.160418209241914 -11.236890922228888 -9.90427297873004 0 1 0
147 1 10.464052914243185 -5.834517788008704 -9.403782126876184 -1 2 0
169 1 9.355540563360105 -8.982132042608429 -6.861385656669775 0 1 1
123 1 -6.908328795781873 -3.2942152122483694 -10.871702946953768 -1 0 -1
130 1 -6.59789640513614 -2.559000332768779 -7.109058819418416 -1 1 0
140 1 -9.12121182032633 -1.3228381271313019 -9.248705124201138 -1 1 0
153 1 -4.57209419001429 -5.197951679459013 -8.806559015841044 0 1 0
129 1 -0.17714454435176596 -5.056145756511569 -8.582370909018262 0 1 1
148 1 -3.197585507102101 -2.0540921199407465 -9.77932871778502 0 0 0
119 1 -3.51954842440485 -3.8478081846346726 10.678236929073831 0 -1 -1
174 1 3.1384595215939513 -1.9078182147633918 -10.748237231758047 -1 1 -1
134 1 -0.0032185119392025285 -0.36841629060197645 -8.631895429784365 -1 0 2
189 1 2.892780086534627 -1.3587472579142499 -6.410113256095116 0 0 2
28 1 6.224912481821424 -1.100900418829165 -9.316948573538184 0 0 -1
1 1 7.533342646866252 -2.8858379557892953 -6.5588822497649195 1 -1 0
24 1 10.891564390761006 -2.1693511431878143 -8.14872153065027 0 -1 1
176 1 10.35065200687287 -3.6683271215630047 -4.32699396695263 0 0 0
182 1 -10.764131367809398 0.5730937842904389 -5.180063181396292 0 1 -1
137 1 -8.194528746006949 3.76661130396705 -8.596433076900993 -1 1 0
89 1 -5.793296966734716 0.9591211322466908 -8.532912969707475 0 0 -1
88 1 -3.2415549382910047 2.6063473128515433 -11.019658141847422 0 1 -1
160 1 -0.17978720428819353 5.335367005111222 -5.961111228150678 0 0 1
125 1 -3.2595127311899836 3.541669787125592 -7.094678802230409 0 1 0
167 1 2.6101389699783257 2.7016950511217104 -7.510579719545417 0 1 0
107 1 2.478905108002845 1.3710464608203452 -11.241338409619438 -1 1 1
45 1 -0.2728444271939366 3.4472072045614333 -9.803824961885091 0 1 0
95 1 7.005885045149228 1.8641755193621776 -11.033503201926393 0 2 -1
111 1 11.28085723924775 1.3577973865073396 -8.404143782130012 0 1 1
37 1 7.50412447792306 1.5806311975228182 -7.696866725729485 1 0 2
53 1 9.464056637143884 5.181490576538966 -10.160960273108417 -1 -1 1
122 1 -8.61454149114821 11.46923394337289 -7.097906043887797 2 -1 -1
126 1 -8.658911027419105 9.160142379367757 -10.196432851978876 0 0 -1
72 1 -11.223582472260205 7.275428216701358 10.836645274139237 2 0 0
144 1 -3.0387339366126 -9.918200912273784 -9.896452956043586 0 1 1
135 1 0.03771056281680529 7.830565362407303 -8.390686664231268 1 0 0
183 1 2.8786138768293665 5.221499246050073 -10.100270572243783 0 0 0
155 1 3.821499942128122 9.224610559399695 -9.359914290522674 0 0 0
21 1 6.6299071097705 6.818271712520994 -8.197268594363944 1 0 0
66 1 9.53812274637967 7.559409537149467 -6.194715694404919 -2 -1 0
22 1 11.107750453110658 10.72621054512756 -6.232964722376559 -1 0 0
42 1 9.127119842763733 9.280850325093446 -10.249747757735628 -1 1 0
77 1 -6.840159982144716 -10.92057206639582 -3.876267638432264 1 -1 1
47 1 -8.742923464684916 -8.023408201112765 -5.403173093100989 1 2 1
18 1 -10.63751608820882 -11.30186343558728 -3.9206887105699195 1 0 -1
46 1 11.298180499183054 -7.685155723666886 -4.06604680107494 1 0 -2
14 1 -9.566429851257723 -7.447961115721825 -2.010931774940218 -1 0 2
178 1 -4.527419254322211 -8.045910047035035 -4.819501104832851 2 1 0
48 1 -3.2147691406929866 -10.888877164915472 -6.377437598460709 1 1 -1
55 1 -0.9601171939836206 -6.238495322587188 -4.2762406549238605 -1 0 -1
12 1 -1.8964494825899862 -9.405283267682947 -2.3799601015584315 -1 0 2
15 1 6.020890846962015 -8.178330582079944 0.7240728610757863 -1 0 -1
64 1 2.731938348082501 -10.543443272156145 -1.741916704711699 1 1 0
44 1 8.065377899358 -6.2776681789760715 -3.599447303926354 -1 0 1
188 1 10.02823971588665 -8.47709879900416 -0.7307124355000334 -1 0 0
200 1 -9.394872508283228 -3.330386381489715 -5.1567351351767705 -1 0 0
198 1 -7.21209897973175 -1.1704302343832897 -2.203950414480204 0 0 1
76 1 -9.986350100477846 -3.0116982250661763 -1.5200938888623745 1 0 0
194 1 -6.746550374491012 -4.972813556867408 -2.5010542319113824 0 1 -1
68 1 -2.5395355119165752 -3.5084431511046077 -6.11089008487593 0 1 1
96 1 -3.383034995518244 -3.996115182399876 -2.1114098179404905 -1 2 0
91 1 3.023350222125586 -6.242259457656427 -2.3794062527217115 1 -1 -1
154 1 -0.21966769644821582 -2.9431607814775376 -3.0023832902544516 -1 2 0
19 1 3.1658091018639274 -2.0642468786997554 -2.307083850490244 0 1 -1
120 1 6.655220459905831 -2.268055028492757 -2.8431810436972036 1 1 1
138 1 9.657284951715521 -4.552145938528714 -0.6562837148986382 -1 1 -1
9 1 7.577787647310252 -2.027383158459481 0.591256647470022 0 0 1
150 1 -9.975709520806461 2.045189761629004 -1.3967042898865678 1 -1 1
38 1 -5.780821497271447 4.724336446491739 -4.727424802574532 1 0 2
172 1 -9.690365647641709 4.0528825638271995 -4.90299752668659 0 0 2
29 1 -7.905836311144201 7.618140007848844 2.0916587803060374 1 -1 -1
87 1 -3.2429786758343386 -0.9446923499804107 -3.602689802943157 0 -1 1
93 1 -6.311310050813026 0.9463486890063564 -4.844328963553153 0 -1 1
195 1 1.0294591756555889 0.17190072131794665 -3.729109843284945 1 -1 3
149 1 -2.2517532526979984 2.837758606759653 -2.568308902690684 1 0 0
25 1 4.622058806898725 1.1966098061131745 -0.5762266975161516 -1 0 1
35 1 2.770724754796497 3.7811224145924633 -3.6900492736017867 1 -1 0
116 1 5.985384722273807 5.820793889080573 -5.01963853113883 0 1 0
5 1 5.710509981071034 1.5091333740272113 -4.1779355439452 0 -1 -1
112 1 4.909280213802248 5.451229842365678 -0.23301351689583433 -1 0 0
152 1 11.352756404691903 -0.5457110274170986 -1.851635893722021 -2 -1 0
132 1 8.574718024729343 1.7846682488107686 -1.3135653711870618 0 0 0
173 1 8.985071256603522 3.7974294357041134 -5.507410143502991 0 0 1
73 1 -9.997675226742189 8.034933990134746 -6.6211967592334595 0 -2 1
161 1 -11.552860384837217 7.057039822309078 -3.567109853559714 2 0 2
78 1 -1.8080552760100446 10.151101687740656 -1.7466859905812946 1 -2 1
11 1 4.503908677727956 -11.845112920212848 -5.000489634351112 0 2 1
84 1 2.4816138724708487 7.425072174245171 -5.250945864454475 1 0 0
90 1 6.134640615065156 9.297869169242624 -0.8361676575747339 0 -1 1
36 1 1.9591052897014976 7.715785297331987 -1.741598961638701 2 -1 0
98 1 8.55440808947692 7.573996243117245 -2.894381804652479 -1 0 0
56 1 7.300059241947594 10.446841724098018 -6.708609001665156 -1 0 1
109 1 9.185972290533323 11.319457447612841 -0.9199703749554402 -1 1 1
115 1 -7.290737513756202 -8.128422064576581 2.840900089769448 1 0 0
124 1 -11.095494798277388 -8.787146009506092 4.06143463064398 1 0 -2
121 1 -8.269324094623837 -10.076632693187037 6.580117501920071 0 1 -1
80 1 -4.964400090273426 -7.254460179243866 -0.2516287260948715 0 0 1
101 1 -4.352556925935133 -8.093642941491481 4.9061967743324075 1 3 1
4 1 1.6615068736969008 10.065280091130505 4.658196599859135 -1 -1 -1
81 1 7.340287496174785 -8.542929146635126 6.681008128047246 -1 1 1
6 1 8.92830710513934 -10.595453002991315 2.772878983207939 1 1 0
166 1 -8.702005772998799 -5.0252019350878925 4.355591496028076 0 2 0
40 1 -7.050509790391359 -4.52399648752538 1.2979104738341645 1 1 0
127 1 -5.6981160982548635 -2.4804262914214696 3.963876974872145 0 -1 0
104 1 -0.43889931205929145 -0.6786512342031208 -0.26982380817326046 -1 0 -1
151 1 0.38632233704260427 -6.436575550724694 0.28827602607540115 0 1 2
60 1 -2.3388191412291297 -2.1909895686965264 5.332358036316238 0 1 0
168 1 3.905092056046815 -3.342842649601014 0.743162620375255 -1 1 -1
51 1 0.30821594516237355 -3.3431888641351466 2.97421468380087 0 0 -1
97 1 2.0959982908166124 -0.09218688876005032 2.2065126859574242 0 -1 -1
103 1 4.032770557637615 -1.033589048853706 6.026643139338357 -1 2 0
163 1 -10.67096111340156 -2.753792851497721 2.2777487994238297 0 -1 0
175 1 5.732332747304902 -3.395357434547403 3.9793999602240824 -1 1 0
158 1 8.900731939704714 -6.465614302153284 2.882524782105495 -1 0 -1
85 1 10.256991086371421 -0.03399764580791596 5.19749850902792 1 0 1
63 1 -8.206071489694988 -0.20777550918309284 1.1337283531787357 -1 0 1
133 1 -10.53669133454302 2.413445898515217 3.6779422317228634 1 1 0
67 1 -6.580427997228583 3.5308019506173483 3.249950052857889 1 0 0
83 1 -3.837130760373457 0.5948829995405305 2.7555803207629808 0 -2 1
162 1 0.5628056325507875 0.015590885064073646 6.104541108047491 0 0 0
170 1 -2.741308504695489 4.278253215456882 6.467354505657028 -1 1 -2
181 1 -5.298818879016533 0.6747551441657151 5.729306597544269 -1 1 -1
71 1 1.6643578976841618 4.095917673198805 -0.5219437486813767 0 -1 -1
31 1 1.0515428688465895 4.152933403466363 6.1671972298548825 0 -2 0
139 1 3.7848906674638663 3.6854393920193473 3.29399693806094 -1 2 0
3 1 10.981379981294642 1.2656622142958476 0.9353988521574017 0 -1 1
108 1 6.1052451115408175 0.8636547219490183 3.620998736363435 1 1 0
16 1 8.972094495168673 3.5728016103606848 4.03251575890399 0 -2 1
110 1 -11.360244143589199 5.991417852211969 3.108858276372061 0 0 -2
50 1 -7.001523002421964 11.111129854490866 4.085896982012491 0 0 0
191 1 -8.535734954334753 7.01291974923636 5.601813919122847 1 -1 0
187 1 -10.711068400768836 11.24759510548256 5.108018843428019 1 1 0
180 1 -1.0115990012221623 6.198904069067613 -1.8166876549028856 1 -1 2
30 1 -0.6366171189365808 8.860606610617594 1.2441466899617097 1 -2 -1
2 1 -1.8186886713768473 5.401678057284073 2.675711617904522 1 -2 -1
17 1 -2.0021887273825953 8.358120841698845 5.289337562756078 -2 0 -1
7 1 4.074924702840786 8.78812906409422 1.7171879913627848 -1 0 1
164 1 1.8692613585489788 6.285969009685708 2.179749632062295 -1 0 0
69 1 4.63280772470042 6.917030747154868 5.0992927825629835 0 -2 -1
61 1 10.180483484726627 5.102933813094147 -0.6143013682078827 -1 -2 0
34 1 7.6753980260971115 9.289346236573914 2.385702988209246 0 0 -1
43 1 7.122060213065371 6.027541758611427 2.434097564627603 -1 -2 1
177 1 8.528259310530697 7.357497844279905 5.573095645895759 -1 1 -1
179 1 11.765063377112929 -11.216117555594387 -10.520782276852188 -1 3 2
65 1 -9.939292746165652 -8.35547457034324 11.370610161953358 0 -1 -1
27 1 -10.951259960706151 -11.676718912293088 8.46919851147203 1 1 1
58 1 -9.681801591871107 -6.867288275839336 8.155377252027327 -1 0 -1
32 1 -6.131008336203429 -5.3807894145123 6.404139996945254 2 1 -2
26 1 -5.277766259873033 -8.47443173172751 9.34226968131783 1 0 0
142 1 -2.2300264866152233 -6.734520703453221 8.54527447884555 2 1 0
100 1 -1.5334511532264656 -10.941538235330839 6.762850724892153 1 2 0
184 1 7.375517404090732 -7.455937963783537 -11.443563002056962 0 1 2
105 1 1.3322147240971494 -7.892907018083993 3.959755431262508 0 0 -1
75 1 4.579073338589469 -6.332281766890766 5.401380400098642 0 -1 0
99 1 1.6872589572610692 -11.008904691990601 10.790406649632594 0 0 0
193 1 2.165378393000026 -6.907577487565213 9.269079214220964 1 1 -1
33 1 4.415243573456659 -11.651415043860048 7.196586725345009 0 -1 0
79 1 8.562132664810616 11.60776935837499 5.9765813232044 -1 0 0
92 1 9.7882797687825 -9.546408677583251 11.099049944831634 0 2 -1
165 1 -9.230629586630256 -3.286419219229394 7.361693942438226 0 0 0
199 1 -6.865681519441191 -4.960200472270827 9.951650907912764 0 -1 1
70 1 -5.465385410624981 -2.359017759235627 7.824489075549977 0 1 1
146 1 -1.4128831058942808 -0.5651321764460739 11.276244400666037 2 1 1
106 1 -1.359759429785522 -2.5612049312124596 8.66030082151058 0 0 -1
52 1 0.6275246163307096 -3.6626685091764974 11.394079726568394 0 0 0
86 1 5.385048800206313 -4.521509414521681 8.656605720260643 -1 0 1
197 1 1.5960773668099044 -4.632851183052137 7.050260712413685 -1 0 -1
185 1 2.0988154112902677 -0.6155858372057779 10.039741652805866 -2 1 -2
190 1 7.402096413387279 -0.25029457328283883 9.918579248632192 0 0 -1
145 1 7.12421994994077 -3.662416626939269 -11.744325877649178 -1 -2 0
131 1 11.18002293743892 -5.284301350499634 6.202872301153104 1 0 0
156 1 -5.458324556633278 -0.38542205585237 11.508150106421377 0 -1 -1
10 1 -9.11455987814511 -0.7284053525098189 4.7937364242043685 0 0 2
196 1 -9.334790977795333 0.22026194254469544 8.665774918646903 1 2 1
143 1 -7.202065049712928 3.0671354576980563 8.711576683539384 1 0 0
13 1 -11.827431931265373 3.351396387549464 6.969024410690874 -1 -1 1
59 1 -3.4888315694577976 1.7945900827414363 9.37212343512276 1 -1 1
186 1 0.1399856131518682 2.5706426278242667 9.701168522174706 1 1 0
136 1 3.4415384834588973 2.185354911818653 7.959200431003509 0 -1 -3
192 1 10.528638878678947 2.482587032106114 9.852249456508758 1 1 1
113 1 7.169273245351864 2.240386648237891 6.81806834338785 -1 -1 -1
62 1 3.8919207853480167 6.881948160439718 8.99101225575 1 0 0
74 1 -8.178685418297237 9.818884262184877 8.930172678325137 1 -1 0
118 1 -11.577334387980462 8.493934752303879 6.984011067983683 0 1 0
117 1 -5.265098295144998 11.327347075770236 7.5602122003602945 -1 -1 0
23 1 -5.150793196726769 5.778029085599102 11.296630874448987 0 0 -2
171 1 -4.323653153250317 7.139179037030907 7.775653914779269 0 2 -2
94 1 0.595594702317225 9.593135599654605 9.048522029833913 -1 0 0
41 1 5.495056487999116 11.528824616719037 11.673423310901565 0 0 -1
141 1 9.858324590689726 5.708495049079261 9.011577695177973 1 -1 -1
159 1 9.655575431519994 9.766549249024301 9.761747234830672 0 -1 0

Velocities

39 3.843901085922765 -0.7556840039136884 3.588481686862416
82 -6.7131250110640295 0.1978517371310493 3.794615543737683
57 -3.8444246166822666 -0.12509187511770853 -0.15016726331630528
8 2.510198026755905 3.9393955076781997 2.1890256483333417
49 2.3436002495676416 -3.937791517692209 -0.8678317852601907
54 0.6032383013072746 3.3962808798459587 -4.353772407339659
114 1.733121125021854 -5.515987819958336 5.5418081738213125
128 0.6238341583124627 -4.373836957545107 -1.8358939583013871
102 3.7217703111263405 -2.1130321869806172 0.3604425898099683
157 -3.060805678543839 -4.541031970793705 2.0247670855961024
20 0.19495210236206537 0.7445218389780817 -4.9481403197240175
147 1.300002576089047 0.4456991718445389 -0.49416915478347523
169 -0.4362191685321444 -3.947171092840025 -1.656461237016801
123 -4.189637911629164 -3.3929868871757067 0.6670412748458154
130 0.6134420085318386 2.2669355259081905 -3.459678248548238
140 -3.017718530938869 2.2011145660870097 -0.08987220236519784
153 1.8522800493758318 0.8156876148506785 -9.385509457300062
129 4.422122082904887 0.7131966606636173 0.3531709089212848
148 0.6611682907987628 -0.38909659051429185 -0.4773785971811748
119 -1.669105812009433 -0.37002694554897725 -3.3024540150626986
174 -6.672226703796612 4.247321732812844 1.6315053674536977
134 -3.0608984486057835 -2.4129204610506294 -2.734745807674302
189 -2.302704208974844 3.481037259019509 -2.794714120652709
28 -2.75682827680027 -3.050875489215879 -4.227117245181596
1 -2.1560141369701795 4.052819594846101 5.448339653382999
24 -2.386079256841039 -2.8280668145030563 4.35837241466938
176 -1.4372688768932664 -6.6415313837559875 4.129983376772735
182 -0.4720828255607976 3.662207995039096 2.519318256725504
137 3.2869116185302323 3.2307568609578143 -1.9509349541264633
89 0.9583454014186878 -1.6238254590624648 1.3557912965537908
88 1.7694593220184982 -1.036030143090322 1.9233033494166958
160 1.008621423016506 -6.119196433851812 5.640861548269096
125 1.8734575131064475 -1.5413231325971886 -1.3731468026454559
167 0.5552538334188052 4.600624550198432 0.10361430748931168
107 -3.2399064229680294 -1.8236363657903167 0.5755237816639006
45 -0.8909937912895557 3.652128037032182 0.47945125158298724
95 -3.55734648018246 -1.7071938037895589 -0.49307606319505376
111 -0.5877274590969576 -1.0815552570296887 1.2264280053757328
37 -0.4940015083502718 2.120546197357239 -6.129979680695427
53 -0.2896516389711194 0.42515885739039166 -1.8677025658203998
122 0.967791765282903 1.7401195129115046 1.9118554789129
126 -2.954209751448974 2.164651827051895 2.3297982456925053
72 3.173369384034092 -3.8176084785054245 -2.272242460318536
144 7.811875555936 4.819434744326224 0.3359991553117815
135 0.1395889289809734 1.0258297209323288 -3.8437628564556956
183 3.6133240015570744 -0.6507150055387017 -3.110230107415811
155 -1.81416144798709 -3.5659788058079758 -2.041490164886604
21 0.6092276970785621 -4.133031653047547 -1.1692481377542574
66 -1.2540845964267104 -3.824259504042551 3.29729030480536
22 2.5446763351186448 -0.6513499783353496 -2.0932016159863465
42 5.82871794909335 1.6743919751666467 0.7126718280768334
77 -0.4040118365141223 -3.2290750702108357 1.818231240430787
47 0.028653058178313952 -2.27141290239272 0.7388413469098802
18 -0.3605358292652272 -2.51632133097868 -2.2152302223559324
46 -4.956822430210972 1.7347845441659948 -0.8052402055568453
14 1.0447813005670052 1.7950897980192044 -5.120385937069129
178 2.8613069610645323 -1.221832900100255 4.786474400939546
48 -1.0101057057064093 -4.108390928419403 -3.626668446988165
55 3.380329095570148 1.9767809972549477 -0.7468971412257048
12 0.5796037236485843 -2.968894009109519 -1.109629405353503
15 -1.0805423425753338 -0.6224135466634316 2.517980927489596
64 2.772129192684522 2.307682180641892 1.326944641441264
44 -2.8172327982334355 1.083586023278567 -1.8763865737567058
188 -3.437261818925725 1.5454398749025489 -0.16540078855271825
200 -4.575258061249265 4.788641216932844 -0.4020526553149053
198 2.0555443873273083 -3.895983368588817 1.158820403753976
76 -0.43680328576927907 -2.690054938184871 -3.1926091395345697
194 -4.927518640766644 -2.7958765254010074 2.346084579105554
68 3.8869230882195995 -4.532127531608888 -3.709193335672372
96 0.5541428371102486 2.469654795647139 1.3292842757665846
91 -0.732047074282118 -2.6885559423815857 -2.1949168022734056
154 -2.5136766428597386 3.590700279102351 -0.059374328708080126
19 -6.161653279730477 -2.8765306398549155 2.4409492942004887
120 3.4942280062726017 -3.9836089343560284 -3.098191865520773
138 -1.392154916395345 -2.6054126458670575 -0.5249503554366697
9 -1.4056559546036238 -7.532778826245055 -1.3371688664267456
150 0.5460808983742688 1.1289965684546914 0.03903574349628039
38 7.617629027425106 5.411105913171608 -2.660628272394109
172 1.971077098016012 -2.934759849810778 -2.6385133345793075
29 -0.8567705552974654 6.938534740571189 1.1877415743187205
87 -2.465817251368031 -0.5425773738872799 -0.8367656554342691
93 -3.238874163573574 -1.2524540618123574 0.7858441913773856
195 0.6658739747764354 -1.3905513374439 -4.4817269197268415
149 4.447455849494194 -3.5745477247727786 -0.5281496993793596
25 3.022648709593685 0.43914951689799137 -0.6775610151451638
35 1.3277674074899293 0.9468507964705938 -3.026965993493294
116 3.907132307739244 1.560341819486881 -2.1186616218198884
5 -3.10241641974574 6.10623002683338 -0.012215259748321432
112 -2.863798374154691 0.5948426813836486 0.35177484162268213
152 1.5766503044655036 -0.41730163186181074 1.996501964828515
132 -2.0634425438904502 -6.992874517268254 -0.2451331836568511
173 0.12455810167557121 0.14574198963840712 2.9966160518510416
73 -0.10493988646970537 0.013265555839272553 -3.9096646776491677
161 -0.7682600042762859 1.8026603641653332 -2.7660568636516665
78 -4.598805320864625 -0.6966368634003359 -2.729429984123398
11 -0.9758381654162251 0.5227854122925947 0.3448945101494703
84 2.841479136799234 0.22602223675017963 -1.9286282882334902
90 -1.170230656537341 -0.6922100007103397 1.00880686523509
36 -1.555842370975647 0.5631255749042902 -1.1019837065378786
98 2.0124676556916246 0.6570695281160257 5.910973495167498
56 -0.022897610961461763 5.352337474059436 -7.2334429828662445
109 -0.08981766099555996 -2.306157996649536 -0.3829489041252826
115 -0.9773922652842171 -1.500230307176322 -3.510085314469408
124 -1.1435154328225432 2.1646855444941977 -2.677614067537958
121 -0.6489305438370466 -5.377205725667324 6.410392354489873
80 -2.184720009719291 -4.6495239027996265 -0.404219915911962
101 -1.8277373470288034 -0.16307514644975357 -4.871062878988115
4 5.273572229084702 -6.329640548895822 -0.10537322064888095
81 -3.237096839577087 -1.2899510482475711 -0.501749653216555
6 -2.850185972190969 -0.9855865922331829 1.2879726986158606
166 -0.71207408822265 -1.941276610007301 -0.46670672944069197
40 2.5501094465369287 -4.1121537776062285 -3.7730629800493616
127 0.9391826983400688 -0.23609028118969985 -0.8428319005564415
104 -2.889702758235898 2.6026465825944647 1.733501739951787
151 1.0239383010373613 4.20250515830853 -2.5188428027750676
60 0.8768242700054026 -1.4452870366932915 4.607166615214986
168 2.6499467008683806 0.15351519699868008 -2.4173199831848433
51 -2.7001470663696083 2.298050292705142 -1.8727439352999022
97 4.077411493370136 -0.49363711607361804 2.618893169202227
103 -0.7976469434966291 -2.8296239792549494 -3.1085019733170576
163 1.4239083858918546 -1.7152330037559187 -3.7262201886107413
175 2.28608354457103 -5.013082617544787 1.9463144730607622
158 2.364724804444635 -1.417965451640216 3.3110988056960116
85 2.634049111053192 2.030183273599258 -1.1156959044778305
63 -2.5594596368644584 6.5807348164634165 1.2216612365119401
133 0.11496856368877509 -1.3029278864933922 0.3137832360475215
67 3.2847742901460815 -3.509493405431694 2.207008202574443
83 2.570557721108847 -0.3717669874940476 0.19918880069367745
162 3.0399699011039054 1.3116112714661063 2.674382531726811
170 -1.38109599459742 3.3822351643604485 2.3645182440787846
181 -3.229104480841883 0.4809626947427979 -1.0038042842684436
71 3.9132675825937917 1.4930647145750953 -2.169388439547446
31 0.2080392077753374 -0.7175240437209078 5.244126748535574
139 -3.2722113265821164 2.403646928095839 4.89007181946881
3 0.23844888496446556 -1.2064671761077215 -3.765272552252597
108 1.9533881124972572 2.2407632376201616 2.7809203919337717
16 -2.546655497698339 -2.9475172512416052 5.679217575496501
110 -2.0619258300646304 -2.5135908125338595 -1.9634278842507895
50 2.7297022478135924 -1.7023753942716038 0.9305543045166054
191 -5.08419299322051 0.0712033790584315 4.019663294315123
187 -1.1602692653736124 0.6592040176624594 -0.9276587772961099
180 3.9270482120535912 0.7337070019018614 -6.1521791130682715
30 2.146405625539158 -4.470711382216746 2.4389136902743624
2 -2.164694698633498 -3.946038803617009 -6.932908852758065
17 -5.0136316664846525 -4.910395378878622 0.2531438520391362
7 6.405139093241594 -0.029320522419797518 -2.4556700372713656
164 -4.71978957162196 0.7565882723845814 -7.804804192177828
69 0.585325244096323 -4.172549570259053 1.421305529899283
61 -1.2969434367599055 0.21371727493194503 -5.996553017036012
34 0.836211095631979 4.842199148306591 -0.264740483545493
43 4.973431404758735 -3.0161637272673114 0.6585207320279483
177 1.9972180553856484 2.8405653312769714 3.7936113983454574
179 -1.8016662165736297 0.17922718595288942 1.675961420609039
65 -0.3262344061357664 4.502937830108041 -1.6925046570602365
27 3.2148912674329595 -4.265923914349978 0.20837858074619325
58 -2.5148141053183966 -3.410776250506333 -4.126435252324821
32 -3.9688004644027894 -4.975859333985981 -0.31037975343014773
26 -1.8868624613436276 -0.6784023280861808 -6.9019978159434325
142 -2.2655622806415803 5.065238482808602 -0.5612653461135326
100 -3.1689440110918863 3.611829368506524 -5.535634657025687
184 1.155071447769214 1.3970696009831187 5.21877428678114
105 -1.0527289600189955 -0.359868396602688 -4.314898952688254
75 1.1126434309490583 7.161365583137096 -6.8797286508213995
99 -2.2511573267704605 4.325930022921806 -4.536664094156967
193 -1.8538759123569282 -0.3771359852226918 1.3265167612281819
33 4.043103770190031 -2.463191434468879 0.2825585567463736
79 0.8247934215179962 -0.8593180918731026 1.8075425908507756
92 -1.9872298962564725 4.526116206000229 5.875185828559399
165 -0.9325271408003691 1.9234746099504088 0.09139445808177141
199 -2.4466143796538278 -3.5392337118481905 0.07336564176962056
70 1.6955535004916 2.7542669443749292 -2.844202030673744
146 -2.7188074197448584 1.8546678027188679 3.404472056065058
106 1.6207845192963544 1.2164210998710923 7.1450165172108
52 6.210256198054289 -2.1514980948844977 -3.0246733234381606
86 -4.166581136807711 -0.379450814784322 -2.11423926273923
197 -2.0944322960049 2.1097024434581955 -1.5699756741420037
185 0.496431323422778 -0.673746468047717 1.6256733179580487
190 3.5894390751435754 -0.5232916689073732 -2.5898259464521436
145 -5.060692392767518 -3.604348262830216 8.963086293155014
131 -1.7493649096325448 1.9215551392824017 -5.654561521157757
156 3.0486560090093078 0.7623397112130897 -0.6623326467666147
10 -0.3025813929631971 3.8012367067722552 1.7944918683195408
196 0.20779509519657535 1.1724947587327104 -3.2497684331092898
143 0.1615216816901657 0.541965759645283 -0.3699391852573772
13 0.3416281793998905 2.006587618812918 -4.356326172952984
59 1.6542517855144645 1.9404536050042447 2.6385288647359855
186 -3.4589984191612237 4.344929883747252 -2.4261876990284055
136 -1.052237178030063 1.7981079687785935 1.5452947189881334
192 -1.8283033036376375 -2.1460456664281984 0.4532252919540826
113 -0.07210257811201395 0.4448121853700756 0.4002442722770919
62 0.07671657245048122 3.988794018720988 -1.5215067553007326
74 -6.261763851450271 6.841230877971418 0.19948931371832682
118 -4.55843930988713 0.7045880922983706 -1.5541929923380147
117 -1.7138030815767766 -2.2218466460669197 -2.4862510267677966
23 3.4139900995951797 -1.2153416151189098 1.5870813641624815
171 2.9673700826094715 -2.730113253007238 -0.013674771129509489
94 -1.559158449433541 -4.089352807642382 -4.9936243516296415
41 0.05830786336808787 1.0332428056957692 -1.4731928753411638
141 2.0403501209228514 0.38114816689047215 0.2637593201666092
159 -2.276370624127765 -5.5130320242721425 -2.201507053272948
