LAMMPS (28 Mar 2023)
Running on 4 partitions of processors
