LAMMPS (24 Dec 2020)
OMP_NUM_THREADS environment is not set. Defaulting to 1 thread. (src/lammps/src/comm.cpp:94)
  using 1 OpenMP thread(s) per MPI task
# created by fftool

units real
boundary p p p

atom_style full
bond_style harmonic
angle_style harmonic
dihedral_style opls
special_bonds lj/coul 0.0 0.0 0.5

read_data data.1.lmp
Reading data file ...
  orthogonal box = (-13.443762 -13.443762 -13.443762) to (13.443762 13.443762 13.443762)
  2 by 2 by 3 MPI processor grid
  reading atoms ...
  1090 atoms
  scanning bonds ...
  1 = max bonds/atom
  scanning angles ...
  10 = max angles/atom
  scanning dihedrals ...
  12 = max dihedrals/atom
  reading bonds ...
  729 bonds
  reading angles ...
  377 angles
  reading dihedrals ...
  16 dihedrals
Finding 1-2 1-3 1-4 neighbors ...
  special bond factors lj:    0        0        0.5     
  special bond factors coul:  0        0        0.5     
     5 = max # of 1-2 neighbors
     4 = max # of 1-3 neighbors
     8 = max # of 1-4 neighbors
     9 = max # of special neighbors
  special bonds CPU = 0.001 seconds
  read_data CPU = 0.016 seconds
# read_restart restart.*.lmp
# reset_timestep 0

pair_style hybrid lj/cut/coul/long 10.0 10.0   lj/cut/coul/long/soft 1 0.5 10.0 10.0 10.0
pair_modify tail no
kspace_style pppm 1.0e-5

# use pair soft for atoms that may overlap
# zero epsilon between appearing and desappearing sites: 2-5 3-5
pair_coeff    1    1 lj/cut/coul/long     0.065999     3.500000  # CO-C CO-C
pair_coeff    1    2 lj/cut/coul/long     0.065999     3.500000  # CO-C CD-
pair_coeff    1    3 lj/cut/coul/long     0.044497     2.958040  # CO-C HD-
pair_coeff    1    4 lj/cut/coul/long     0.044497     2.958040  # CO-C H1-H
pair_coeff    1    5 lj/cut/coul/long     0.105924     3.304542  # CO-C OH-D
pair_coeff    1    6 lj/cut/coul/long     0.000000     1.870829  # CO-C HO-D
pair_coeff    1    7 lj/cut/coul/long     0.000000     1.870829  # CO-C Hw
pair_coeff    1    8 lj/cut/coul/long     0.101281     3.328551  # CO-C Ow
pair_coeff    2    2 lj/cut/coul/long     0.065999     3.500000  # CD- CD-
pair_coeff    2    3 lj/cut/coul/long     0.044497     2.958040  # CD- HD-
pair_coeff    2    4 lj/cut/coul/long     0.044497     2.958040  # CD- H1-H
pair_coeff    2    5 lj/cut/coul/long     0.000000     3.304542  # CD- OH-D
pair_coeff    2    6 lj/cut/coul/long     0.000000     1.870829  # CD- HO-D
pair_coeff    2    7 lj/cut/coul/long/soft     0.000000     1.870829  0.0  # CD- Hw
pair_coeff    2    8 lj/cut/coul/long/soft     0.101281     3.328551  0.0  # CD- Ow
pair_coeff    3    3 lj/cut/coul/long     0.030000     2.500000  # HD- HD-
pair_coeff    3    4 lj/cut/coul/long/soft     0.030000     2.500000  0.0  # HD- H1-H
pair_coeff    3    5 lj/cut/coul/long     0.000000     2.792848  # HD- OH-D
pair_coeff    3    6 lj/cut/coul/long     0.000000     1.581139  # HD- HO-D
pair_coeff    3    7 lj/cut/coul/long/soft     0.000000     1.581139  0.0  # HD- Hw
pair_coeff    3    8 lj/cut/coul/long/soft     0.068284     2.813139  0.0  # HD- Ow
pair_coeff    4    4 lj/cut/coul/long     0.030000     2.500000  # H1-H H1-H
pair_coeff    4    5 lj/cut/coul/long     0.071414     2.792848  # H1-H OH-D
pair_coeff    4    6 lj/cut/coul/long/soft     0.000000     1.581139  1.0  # H1-H HO-D
pair_coeff    4    7 lj/cut/coul/long     0.000000     1.581139  # H1-H Hw
pair_coeff    4    8 lj/cut/coul/long     0.068284     2.813139  # H1-H Ow
pair_coeff    5    5 lj/cut/coul/long     0.170000     3.120000  # OH-D OH-D
pair_coeff    5    6 lj/cut/coul/long     0.000000     1.766352  # OH-D HO-D
pair_coeff    5    7 lj/cut/coul/long/soft     0.000000     1.766352  1.0  # OH-D Hw
pair_coeff    5    8 lj/cut/coul/long/soft     0.162549     3.142668  1.0  # OH-D Ow
pair_coeff    6    6 lj/cut/coul/long     0.000000     1.000000  # HO-D HO-D
pair_coeff    6    7 lj/cut/coul/long/soft     0.000000     1.000000  1.0  # HO-D Hw
pair_coeff    6    8 lj/cut/coul/long/soft     0.000000     1.779185  1.0  # HO-D Ow
pair_coeff    7    7 lj/cut/coul/long     0.000000     1.000000  # Hw Hw
pair_coeff    7    8 lj/cut/coul/long     0.000000     1.779185  # Hw Ow
pair_coeff    8    8 lj/cut/coul/long     0.155425     3.165500  # Ow Ow

variable TK equal 300.0
variable PBAR equal 1.0

neighbor 2.0 bin

timestep 1.0

velocity all create ${TK} 12345
velocity all create 300 12345

fix SHAKE all shake 0.0001 20 0 b 2 4 5 a 6
       1 = # of size 2 clusters
       0 = # of size 3 clusters
       2 = # of size 4 clusters
     360 = # of frozen angles
  find clusters CPU = 0.001 seconds

fix NPT all npt temp ${TK} ${TK} 100 iso ${PBAR} ${PBAR} 500
fix NPT all npt temp 300 ${TK} 100 iso ${PBAR} ${PBAR} 500
fix NPT all npt temp 300 300 100 iso ${PBAR} ${PBAR} 500
fix NPT all npt temp 300 300 100 iso 1 ${PBAR} 500
fix NPT all npt temp 300 300 100 iso 1 1 500

thermo_style custom step cpu epair emol etotal temp press density
thermo 1000

run 200000
PPPM initialization ...
  using 12-bit tables for long-range coulomb (src/lammps/src/kspace.cpp:339)
  G vector (1/distance) = 0.30693002
  grid = 24 24 24
  stencil order = 5
  estimated absolute RMS force accuracy = 0.0020339166
  estimated relative force accuracy = 6.1250794e-06
  using double precision FFTW3
  3d grid and FFT values/proc = 5415 1152
Neighbor list info ...
  update every 1 steps, delay 10 steps, check yes
  max neighbors/atom: 2000, page size: 100000
  master list distance cutoff = 12
  ghost atom cutoff = 12
  binsize = 6, bins = 5 5 5
  3 neighbor lists, perpetual/occasional/extra = 3 0 0
  (1) pair lj/cut/coul/long, perpetual, skip from (3)
      attributes: half, newton on
      pair build: skip
      stencil: none
      bin: none
  (2) pair lj/cut/coul/long/soft, perpetual, skip from (3)
      attributes: half, newton on
      pair build: skip
      stencil: none
      bin: none
  (3) neighbor class addition, perpetual
      attributes: half, newton on
      pair build: half/bin/newton
      stencil: half/bin/3d/newton
      bin: standard
Per MPI rank memory allocation (min/avg/max) = 15.89 | 15.91 | 16.08 Mbytes
Step CPU E_pair E_mol TotEng Temp Press Density 
       0            0   -229.48168   0.30946681    744.65843    449.58716    1838.1136    0.5580518 
    1000    2.8635947   -3742.9697    4.1903612   -3131.1604    280.51866   -112.99056   0.79154688 
    2000    6.6438658   -3919.6785     1.665933    -3276.745     296.0532   -49.647788   0.92073328 
    3000    10.685247   -3913.4898    2.4666481   -3245.8596    307.08522   -160.80971   0.94075288 
    4000    14.698692   -3978.9787    1.1776298   -3337.7812    295.47715    -824.7169   0.96807018 
    5000    18.457057   -3967.7744    3.7809107   -3308.8039    302.48054   -964.05949   0.97227906 
    6000    22.503941   -4047.7752     1.594901   -3389.3146    303.25435   -1278.0647   0.98603209 
    7000    26.570565   -3993.1667    3.0880389   -3316.8457     310.8106   -455.24243   0.97147072 
    8000    30.646808   -4029.6615    3.1283629   -3377.0232     299.8584    599.37366     1.003459 
    9000    33.825208   -3982.1444    5.4935438   -3319.9224    303.19103    1164.2977   0.99353511 
   10000    37.430023    -4019.084    4.5105694   -3361.7759     301.3762    183.41983   0.98361155 
   11000    41.600513   -3967.5952    6.3519318    -3298.588    305.92723    928.47152   0.97766946 
   12000    44.796388   -3955.2285    4.6921094   -3317.1316    292.42321   -117.32819    0.9774732 
   13000    48.842096   -4003.6932    5.4484768   -3351.2146    298.71356    812.36359   0.99476135 
   14000    53.021301   -4066.9878    2.7884927   -3402.7388    305.37563    -1417.498   0.98368431 
   15000    57.184649   -3989.7862    3.6901723   -3361.1978      288.496    551.14017    0.9917307 
   16000    61.385659   -4029.2088    2.9568724   -3384.2768    296.37986   -207.73623   0.99521325 
   17000     65.53381   -4001.6369    4.7184616   -3348.8013    299.21543   -560.90868   0.98425454 
   18000    69.637491      -4022.1    3.5042289   -3380.2247    294.71598   -611.44361   0.98551984 
   19000    73.692434   -3961.1642    4.0239288   -3333.6832    287.83062    353.23625     1.004089 
   20000    77.784288   -3998.2691    2.1683645   -3349.7721    298.38971    747.07733    1.0114919 
   21000     81.84531   -4009.5195    3.9902695   -3377.5894    289.90019    489.91691   0.97849387 
   22000    85.939599   -4014.5739    2.3939699   -3350.2788    305.57906    55.419974   0.99440238 
   23000    90.051628   -3955.0637    2.2199616   -3323.1172    290.72505   -7.7721815   0.98549425 
   24000    94.158115   -4000.9992    4.2525396   -3349.4193    298.85076   -273.69111   0.97238823 
   25000    98.332118   -3968.5132     2.618385   -3332.6765    292.33709   -727.53277   0.98858339 
   26000    102.35147   -3974.7329    1.9638732   -3332.4172    295.63044    133.26429   0.99729161 
   27000    106.30449   -3998.7265    2.9638963   -3327.0599    308.71915    407.46885   0.99982483 
   28000    110.33266   -4075.9749    2.8311813   -3409.3656    306.44557    1198.5767   0.99704031 
   29000    114.38447   -4041.8613    3.8436815   -3375.6544     305.7924   -1128.6668   0.98058112 
   30000    118.45367   -4002.9956    4.4017189   -3351.7294    298.63712   -854.07475    1.0067934 
   31000    122.61847   -4033.9087    4.5250854   -3384.1922    297.86471    395.77851    1.0103305 
   32000    126.68254   -3965.4081    4.0156791   -3329.0493    291.93304   -267.67314    0.9835521 
   33000    130.94387   -3953.6881    4.4350234   -3282.3967    307.86671   -506.65616   0.97764913 
   34000    135.04766   -4016.0271    4.3947682   -3369.5991    296.40667   -865.85103   0.98846683 
   35000    139.18543   -4021.1514    5.8697001   -3358.7499    303.10019    31.812473   0.98434678 
   36000     143.3499   -4003.5175    4.1542949   -3374.7925    288.34474   -777.94357   0.97771379 
   37000    147.41488   -3978.6528    7.1061795   -3283.5338    317.63402   -761.54223   0.97490912 
   38000    151.49432   -4018.1411    6.5882319   -3342.3196    308.96409    84.156492   0.97407768 
   39000    155.54026   -4011.6317    3.3902271    -3354.299    301.90476   -906.55957   0.99082544 
   40000    159.64183   -4012.5811    5.9930279   -3339.7954    307.83733    305.45147   0.97972847 
   41000    163.69911   -3992.3112    4.1520658   -3314.7715    310.88199   -546.12778   0.98712272 
   42000    167.77799    -3960.031    2.7778227   -3290.0697    308.01775   -545.29941   0.98048265 
   43000    171.87227   -3988.9252     5.494048   -3341.6687    296.28167   -36.495683   0.99395939 
   44000    175.91321   -4021.6364    5.6479415   -3366.3707    299.90819    407.29892   0.99221646 
   45000    179.94987   -3990.5212    4.9254755   -3342.5646    296.86736     523.9043   0.97813686 
   46000    184.00582   -4069.1931     6.403044   -3426.3319    293.83283   -1001.2738   0.98191828 
   47000    188.07292   -4010.5904    7.0993696   -3338.7839    306.87449     438.7814    1.0045392 
   48000    192.18584   -3974.9485     7.599357   -3323.2422    297.36402   -486.22321    0.9933134 
   49000    196.24089    -4029.142    5.7293706   -3371.9999     300.7369   -392.25417    0.9710023 
   50000    200.28384   -4004.7525    5.0503603   -3316.5665    315.38237   -1123.6326   0.98138871 
   51000    204.45275   -4060.5366    2.2230199   -3410.8359    298.92022    893.45399    1.0043432 
   52000    208.56767   -3980.4734    5.7778732   -3327.4096    298.83165   -1420.9032    0.9608093 
   53000    212.66796   -4041.0472    5.0985056   -3399.5323    293.81355   -170.32229   0.98231908 
   54000    216.77575   -4003.8757     3.603557   -3354.7695    298.00841   -1500.3171   0.96483957 
   55000    221.03421   -4018.2524    6.4123929   -3349.1742    305.93206   -757.92979   0.99455844 
   56000    225.31873   -3957.7178    6.0980062   -3311.6019    295.47626   -1299.5256   0.98008047 
   57000    229.45995   -3997.5868    6.4199968    -3338.721    301.21384    808.68086    1.0035833 
   58000    233.63202   -4055.4811    4.8428071   -3379.4255    309.87797   -191.79451    0.9873725 
   59000    237.76129   -3991.4693    5.7994039   -3347.2982    294.71623   -22.180122   0.99242371 
   60000    241.84557   -4011.9065    4.3469621   -3377.2441    290.99693   -99.123133   0.97257669 
   61000    245.92346   -3990.4492    2.8782083   -3328.5041     304.2706    1623.0919    1.0023972 
   62000     250.0141   -3976.4006    4.2106118   -3288.8231    315.48911    77.149047   0.98277438 
   63000    254.15326   -3997.6603    6.0549495   -3358.4709    292.29839     50.50191    1.0007851 
   64000    258.07187   -4036.3971    4.8385517   -3401.8233    290.72906   -574.71364   0.98089257 
   65000    260.66346   -4066.1052    4.0078738   -3415.5197    298.50468    -1692.519   0.96635942 
   66000    263.46917   -4072.3889    7.2723162   -3419.3538    298.12852   -1071.2947   0.99777297 
   67000    267.57555   -4064.4874    8.0953829   -3447.5713    281.07348   -571.99949    1.0003352 
   68000    271.60879   -4008.3481    6.5651754   -3347.9788    301.84089   -230.36796   0.99366259 
   69000    275.62091   -4011.9553    3.5618979    -3350.242    303.84794   -477.72502   0.99772976 
   70000    279.77051   -3995.1858    2.3360158   -3363.1671    290.70479    20.917762   0.96489512 
   71000      283.793   -3989.9331    4.4366733    -3277.762    326.73887    410.07547   0.96902518 
   72000    287.87257   -3997.3633    2.6827818   -3341.0307    301.76969   -867.44899   0.97851466 
   73000    292.03171   -4012.1469     4.749055   -3349.9744    303.51186   -202.21927     1.005273 
   74000    296.13319    -4014.645    4.7266022   -3327.5809    315.01388   -703.39296      1.00951 
   75000    298.85374   -3982.0124    7.1728068   -3369.6522     279.3961    -789.0445   0.97632744 
   76000     302.8686   -4007.8537    3.4319516   -3346.9406    303.53851    -597.7502   0.99581166 
   77000    306.88132   -3985.8685    3.9428279   -3328.6205    301.61055    144.37196    0.9932132 
   78000    310.89987   -3986.3643    5.5870761   -3271.5723    327.41775    767.34559    1.0005427 
   79000    314.84021   -3972.7818    5.1754398   -3311.1626    303.05956    1264.9009    1.0175369 
   80000    318.32119   -4027.1912    5.3264589   -3374.3352    298.94418    32.435536    1.0276864 
   81000    320.85633   -4018.2512    3.1202213   -3388.8142    289.15087   -591.24145   0.99332972 
   82000     323.3736   -3936.6973    3.7429947   -3249.7616    315.40872   -623.62782    0.9735415 
   83000    327.28905   -4030.9561    4.4896965   -3382.5799    297.26224   -602.86213   0.99513609 
   84000    330.66287   -4060.7003    3.6968231   -3407.0181    300.07791    226.82996   0.99129385 
   85000     334.1201   -4057.5148    4.3290451   -3422.3967     291.2156    1206.9604    1.0178849 
   86000     338.2687   -4029.1033    5.2946284   -3370.0961    301.79867     59.35593   0.98693309 
   87000    342.35747   -4029.5619    7.9164526    -3392.005    290.68531    719.88243   0.98908534 
   88000    346.45051   -4003.6499    6.8140619    -3366.679    290.92369    1177.3912    1.0055014 
   89000    350.51183   -4057.4512    7.1375223   -3411.6787    294.83783    451.17154   0.99638353 
   90000    354.65813   -4065.4984    5.8718285   -3408.9669    300.38926    19.877259   0.99086045 
   91000     358.7114   -4066.1395    4.8817253   -3422.6574    294.82184    1894.7548    1.0167741 
   92000    362.77562   -4010.8542    6.0448197   -3373.8138    291.31091   -728.10642   0.95794112 
   93000    366.80088   -4072.6945    5.4664136   -3445.1144     287.2104    156.40573   0.99242257 
   94000    370.85389   -4026.3231    5.2200806   -3366.4564    302.22988    63.844513   0.97146024 
   95000    374.95497   -3978.4082    5.1288491   -3323.1337    300.15195    285.43328   0.98960694 
   96000    379.12178   -4001.7349    6.3883218   -3337.9003    303.52237    12.143041   0.98766479 
   97000    383.24297   -3984.0317    3.9387011   -3368.0902    282.54254    456.27081    1.0105955 
   98000    387.32812   -3990.9118    3.5395358   -3319.7901    308.20182    511.24788    1.0176315 
   99000    390.82409   -3974.3536    6.2625947   -3368.6542    276.74121    778.68786    1.0048368 
  100000    393.36177   -4065.9514    7.3400841   -3445.3827    283.10844    -376.8948    1.0100145 
  101000    397.32935   -4024.2646    6.1200466    -3406.036     282.5914    194.42481    1.0004015 
  102000    401.22857   -4001.4725    7.6888202   -3368.1253    288.84689   -97.926641   0.98670353 
  103000    404.29137   -4037.9231    3.8024385   -3355.7575    313.17905   -409.86164   0.96361373 
  104000    407.74887   -4075.0029    4.2624134   -3409.8573    305.10909    393.23615   0.98245617 
  105000    411.26962   -4022.9048    3.8497926   -3380.6544    294.72963    389.41976   0.96963353 
  106000     415.1099   -4029.2692    8.4396044    -3408.733    282.58584    489.58478   0.97102156 
  107000       419.12   -3980.5722    7.8151105   -3299.9229    310.62653    205.10414   0.95166637 
  108000    423.05591   -3957.2979    5.1691821   -3300.8801    300.66113   -2130.7851    0.9838301 
  109000    427.17679   -4011.1099    6.7246266   -3342.9571    305.36069   -699.19382   0.97738107 
  110000    431.20822   -4016.5807    3.9588727   -3378.3752    292.81185   -104.91924   0.98995394 
  111000    435.40481   -4004.8213     3.196094   -3325.2661    312.25383   0.97656657    0.9915946 
  112000    439.27194   -3965.0246    4.6050314   -3317.3511    296.88461    353.61639   0.98235271 
  113000    443.26533    -3970.801    3.1310612   -3325.6359    296.40704   -551.00417   0.99503467 
  114000    447.26469   -3997.7748    6.4473317   -3348.5933    296.73022   -676.36797   0.99136829 
  115000    451.37602   -4042.8149     5.271402   -3385.7325    300.92076   -137.49075    0.9950477 
  116000    455.50056   -4010.3647    5.1997676   -3350.4637    302.25509   -71.719056    0.9878578 
  117000    459.61084   -4030.0349    2.9788658   -3356.3397    309.64877     822.0524    1.0174972 
  118000    463.71057   -3967.2583    4.3647601   -3286.0165    312.49296    -111.5811   0.99342928 
  119000    467.81472   -4020.5612    4.7397237   -3393.4004    287.35233    134.55901    1.0094298 
  120000    471.96638   -4022.6959     5.445041   -3340.0893    312.62431    448.40246   0.98484208 
  121000    476.03503    -4032.977    6.8925182   -3398.5703    289.70369   -267.03168   0.98784393 
  122000    480.11117   -4027.6488    4.1935248   -3318.6641    325.38004   -51.991322    0.9872323 
  123000    484.11575   -3998.9701    4.0559254   -3356.1065    294.91755   -3.0365949   0.98783344 
  124000    488.15366   -3935.7491    2.9332009   -3281.3713    300.75156    990.43745    0.9866344 
  125000    492.18609   -3997.2579    5.5710823    -3325.115    307.73539   -1023.4089   0.97658968 
  126000    496.20805   -4019.2989    4.5499919   -3367.3067    298.90379    349.91549   0.99879841 
  127000    500.28186   -3995.1738    3.3240028   -3337.5869     302.0527    536.49657   0.99751907 
  128000    504.36988   -4037.2586    3.2980794   -3390.5928    297.02274    519.64098   0.99494072 
  129000    508.41797   -3985.9528    3.3431769   -3309.0986    310.93899   -1633.1062   0.99548225 
  130000    512.46482   -3999.5183    6.6114952   -3361.6747    291.42011    476.98292   0.99595174 
  131000     516.5149   -4008.4249    3.0589596   -3401.3041    278.87646   -766.37336   0.97819963 
  132000    520.61875   -4030.0468    3.2660431   -3378.0716    299.48871    580.32971     1.019174 
  133000    524.69633   -4048.5526    6.7225871     -3417.81    288.09052   -372.05741   0.99027746 
  134000     528.7675   -4073.8046    3.6504946   -3436.4681    292.55302   -1043.7414    1.0056374 
  135000    532.81133   -4074.7281    2.7584152   -3366.5706    325.66074     932.7812   0.99435221 
  136000    536.86238   -3993.3074    5.5896238   -3357.6467    290.88408    523.62971   0.98746238 
  137000    540.90977   -4006.9092    3.7656507   -3341.1243    305.63354     1269.692    1.0062903 
  138000    545.02918   -4070.3442    4.3675212    -3393.241      310.581   -215.01383     1.001735 
  139000    549.12386   -4016.0663    2.7981534   -3338.2524    311.63367    319.95181    0.9953744 
  140000    553.14931   -4036.6178    3.5537684   -3393.7588    295.14722    257.44781   0.99649268 
  141000    557.21475   -4005.0497    4.4203951   -3351.2037    299.81948    1037.9541   0.99510832 
  142000    561.26639   -4057.4329    4.7858328   -3415.6611     294.0765    553.32184   0.99617192 
  143000    565.32341   -4012.7577    5.0147215    -3358.945    299.52972   -811.42582   0.99244797 
  144000    569.41254   -4054.8831    3.8754048   -3415.7845    293.26266    80.231938   0.98582293 
  145000    573.46294   -3978.7353    4.0566254   -3284.7343    318.52578    369.52419   0.98579452 
  146000    577.54909   -3982.9158    6.2588697   -3305.2481    309.96844   -180.15791   0.98588006 
  147000    581.63195   -3965.4725    6.7230683   -3320.7625    294.53859    180.71329   0.98386063 
  148000    585.76881   -3976.6124    6.5536315    -3300.808    308.97218   -321.92422   0.98128309 
  149000    590.00346   -4021.1779    4.6788824   -3379.2874    294.18068   -875.50692   0.99374228 
  150000    594.05028   -4035.6115    5.6150436   -3404.9911    288.54545    152.91079   0.99037284 
  151000    598.14067     -3992.53    2.7997644   -3342.7777    298.67776    1620.7446    1.0042766 
  152000    602.23325   -3962.0865    2.1847015   -3330.5613     290.5468    -1900.049   0.97754889 
  153000     606.2612   -4004.1031    3.0611731   -3369.5506    291.53978   -610.23508   0.98171975 
  154000    610.36252   -3998.9629    5.2686188   -3338.2754    302.58641    1379.2485   0.99053811 
  155000    614.38589   -3930.8073    6.0974026   -3250.4099    311.30325    589.49061    0.9656871 
  156000    618.44167   -4025.2216    3.1261296   -3371.6079    300.30979   -520.34228   0.98380651 
  157000    622.45083   -3993.2721    3.6054705    -3349.583    295.50658   -176.83489   0.97738861 
  158000    626.50421   -3958.7863    4.3691624   -3327.9628    289.21437   -756.28553   0.96645046 
  159000    630.59694    -4005.307    7.1922219   -3367.0367    291.34901   -193.35896   0.99926863 
  160000    634.76977   -4021.5239    4.8902893   -3368.3344    299.29946    1509.8075    1.0089163 
  161000    638.86906   -4066.3401    4.6755933   -3414.9856    298.55145   -157.33462   0.98772117 
  162000    642.97276   -3994.4022    5.0543137   -3337.0448    301.14796   -279.24175   0.98159806 
  163000    647.12258   -4029.7375    4.9739138   -3335.7057    318.11648    624.09835   0.97986233 
  164000    651.23178   -4035.3795    3.4708376   -3383.1991    299.48893       59.695   0.98625334 
  165000    655.41304    -3948.534    4.0358997   -3307.1153    294.25975     549.9406   0.98004019 
  166000    659.45649   -4008.3919    4.1005294   -3355.2835    299.62663    1389.9695   0.99243626 
  167000    663.52504   -4026.3288    4.1375137   -3379.7022    296.61714    710.86414     1.008493 
  168000    667.54094   -4024.7776    3.4318655    -3370.998    300.24522    -479.6238     1.001483 
  169000    670.88829   -4037.8224    6.4977905   -3368.3078    306.09414   -666.72262    1.0206385 
  170000    673.71425   -4017.8335    5.9568643   -3374.9161    294.06477    640.76449    1.0124702 
  171000    677.13736   -4048.5908    5.5034177   -3390.7923    301.14424   -657.54951   0.99927575 
  172000    681.20817   -4032.1589    5.7701643   -3385.1111     296.0578    761.41487   0.98967801 
  173000    685.28763   -4100.9941    5.6099668   -3441.5465    301.85636   -137.92357    1.0017159 
  174000     689.4156    -4035.176    4.6691974   -3391.1949    295.15034     189.1311    1.0015235 
  175000    693.57771   -4021.0404    6.5153381   -3374.0438    295.69018   -734.29607   0.96981794 
  176000    697.69419   -4013.8302     5.529758   -3368.2107    295.50941     1008.164    1.0099504 
  177000     701.9318   -4014.0512    4.0766332   -3367.1218    296.78503    197.68893   0.99152618 
  178000    706.08584   -4006.0795    6.2507656   -3321.5175    313.15508    756.19277   0.99088377 
  179000    710.26195   -4046.1865    3.5285282   -3409.4184    292.34694    139.14353   0.98513125 
  180000    714.25689    -4018.442    4.2552458   -3360.4347     301.8169    1797.1329    1.0013639 
  181000    718.36096   -3973.7785    8.2514801   -3321.0395    297.53975    1085.0601   0.98090942 
  182000    722.49329   -4014.8238    6.3958946   -3355.0023    301.66618    328.65544   0.97986224 
  183000    726.59866   -4028.1515    7.5505636   -3399.2029    286.88004      123.202   0.99001952 
  184000    730.81408   -3993.2488    5.7893191   -3313.0305    311.36276    1574.0119    1.0003917 
  185000    734.89975   -4028.0782    7.2849818   -3388.8962    291.72713    131.96333    0.9990682 
  186000    739.00212   -4013.9727     3.615562   -3314.6862    321.16953    -684.7945   0.99815782 
  187000    743.09695   -3994.0053    5.1555863   -3357.4514    291.49684   -741.53837   0.98923897 
  188000    747.18705   -4000.7537    7.3560343   -3339.2142    302.01604   -166.32621   0.97934016 
  189000    750.79417   -3989.5664    4.4030049   -3324.8464    304.84768   -533.74784   0.97990923 
  190000     754.8261   -4009.1066    4.6412068   -3373.4692    291.31122    -1026.188   0.98417864 
  191000    758.87945   -4021.8957    4.1706975   -3367.8834    300.01156   -342.12644   0.98940647 
  192000    762.88448    -4006.888     7.714705   -3327.2824      310.191   -609.38705   0.96370709 
  193000    766.90216   -3999.1435    5.0030095   -3370.7787    287.78665    1448.7446   0.99526319 
  194000    770.31165   -4008.1928    6.6492363   -3365.0613      293.844   -233.91613   0.99670012 
  195000    772.85394   -3993.3166    8.2041399   -3357.6364    289.68604   -1933.1988   0.97398935 
  196000     775.9882   -4045.3343    3.1888973   -3395.9224    298.34099    70.982559   0.98380055 
  197000    778.52891    -4019.233    7.2272183    -3355.533    303.07295    190.11586   0.98931642 
  198000    781.11925   -4033.8338    3.6142356   -3357.6624    310.49858   -236.66232    1.0002961 
  199000    785.14524   -4065.2975    5.3180126   -3400.1932    304.60271   -629.29021   0.99085965 
  200000    789.16694   -4032.3694    4.6887094   -3388.4979    295.09071   -530.96609    1.0018337 
Loop time of 789.167 on 12 procs for 200000 steps with 1090 atoms

Performance: 21.897 ns/day, 1.096 hours/ns, 253.432 timesteps/s
90.9% CPU use with 12 MPI tasks x 1 OpenMP threads

MPI task timing breakdown:
Section |  min time  |  avg time  |  max time  |%varavg| %total
---------------------------------------------------------------
Pair    | 253.92     | 272.1      | 300        |  75.4 | 34.48
Bond    | 0.25834    | 0.59485    | 3.5107     | 115.3 |  0.08
Kspace  | 240.2      | 270.68     | 288.75     |  79.1 | 34.30
Neigh   | 21.486     | 21.547     | 21.609     |   0.8 |  2.73
Comm    | 58.219     | 59.454     | 61.954     |  12.3 |  7.53
Output  | 0.011786   | 0.012227   | 0.016669   |   1.2 |  0.00
Modify  | 145.36     | 152.55     | 154.73     |  19.6 | 19.33
Other   |            | 12.23      |            |       |  1.55

Nlocal:        90.8333 ave          97 max          81 min
Histogram: 1 0 0 1 0 4 1 2 2 1
Nghost:        3802.17 ave        3851 max        3727 min
Histogram: 1 1 0 0 0 3 2 3 1 1
Neighs:        32702.8 ave       37448 max       29847 min
Histogram: 2 1 2 1 4 0 1 0 0 1

Total # of neighbors = 392433
Ave neighs/atom = 360.03028
Ave special neighs/atom = 2.0587156
Neighbor list builds = 8439
Dangerous builds = 3

reset_timestep 0

variable lambda equal ramp(1.0,0.0)
variable minusl equal 1.0-v_lambda
variable q1 equal  0.145*v_lambda-0.180*(1.0-v_lambda)
variable q2 equal -0.180*(1.0-v_lambda)
variable q3 equal  0.060*(1.0-v_lambda)
variable q4 equal  0.040*v_lambda+0.060*(1.0-v_lambda)
variable q5 equal -0.683*v_lambda
variable q6 equal  0.418*v_lambda

fix ADAPT all adapt/fep 100000     pair lj/cut/coul/long/soft lambda 2*3 7*8 v_minusl     pair lj/cut/coul/long/soft lambda 3 4 v_minusl     pair lj/cut/coul/long/soft lambda 4 6 v_lambda     pair lj/cut/coul/long/soft lambda 5*6 7*8 v_lambda     atom charge 1 v_q1     atom charge 2 v_q2     atom charge 3 v_q3     atom charge 4 v_q4     atom charge 5 v_q5     atom charge 6 v_q6     after yes

variable dlambda equal -0.05
variable minusdl equal  0.05
variable dq1 equal (0.145+0.180)*v_dlambda
variable dq2 equal  0.180*v_dlambda
variable dq3 equal -0.060*v_dlambda
variable dq4 equal (0.040-0.060)*v_dlambda
variable dq5 equal -0.683*v_dlambda
variable dq6 equal  0.418*v_dlambda

compute FEP all fep ${TK}     pair lj/cut/coul/long/soft lambda 2*3 7*8 v_minusdl     pair lj/cut/coul/long/soft lambda 3 4 v_minusdl     pair lj/cut/coul/long/soft lambda 4 6 v_dlambda     pair lj/cut/coul/long/soft lambda 5*6 7*8 v_dlambda     atom charge 1 v_dq1     atom charge 2 v_dq2     atom charge 3 v_dq3     atom charge 4 v_dq4     atom charge 5 v_dq5     atom charge 6 v_dq6     volume yes
compute FEP all fep 300     pair lj/cut/coul/long/soft lambda 2*3 7*8 v_minusdl     pair lj/cut/coul/long/soft lambda 3 4 v_minusdl     pair lj/cut/coul/long/soft lambda 4 6 v_dlambda     pair lj/cut/coul/long/soft lambda 5*6 7*8 v_dlambda     atom charge 1 v_dq1     atom charge 2 v_dq2     atom charge 3 v_dq3     atom charge 4 v_dq4     atom charge 5 v_dq5     atom charge 6 v_dq6     volume yes

fix FEP all ave/time 20 4000 100000 c_FEP[*] file fep10.fep

thermo_style custom step cpu epair emol etotal temp press density v_lambda

dump TRAJ all custom 20000 dump.lammpstrj id mol type element xu yu zu
dump_modify TRAJ element C C H H O H H O

#restart 20000 restart1.lmp restart2.lmp

run 2000000
PPPM initialization ...
  using 12-bit tables for long-range coulomb (src/lammps/src/kspace.cpp:339)
  G vector (1/distance) = 0.30785992
  grid = 20 20 20
  stencil order = 5
  estimated absolute RMS force accuracy = 0.0025738694
  estimated relative force accuracy = 7.7511314e-06
  using double precision FFTW3
  3d grid and FFT values/proc = 4046 800
FEP settings ...
  temperature = 300.000000
  tail no
  lj/cut/coul/long/soft lambda 2-3 7-8
  lj/cut/coul/long/soft lambda 3-3 4-4
  lj/cut/coul/long/soft lambda 4-4 6-6
  lj/cut/coul/long/soft lambda 5-6 7-8
  1-1 charge
  2-2 charge
  3-3 charge
  4-4 charge
  5-5 charge
  6-6 charge
Neighbor list info ...
  update every 1 steps, delay 10 steps, check yes
  max neighbors/atom: 2000, page size: 100000
  master list distance cutoff = 12
  ghost atom cutoff = 12
  binsize = 6, bins = 4 4 4
  3 neighbor lists, perpetual/occasional/extra = 3 0 0
  (1) pair lj/cut/coul/long, perpetual, skip from (3)
      attributes: half, newton on
      pair build: skip
      stencil: none
      bin: none
  (2) pair lj/cut/coul/long/soft, perpetual, skip from (3)
      attributes: half, newton on
      pair build: skip
      stencil: none
      bin: none
  (3) neighbor class addition, perpetual
      attributes: half, newton on
      pair build: half/bin/newton
      stencil: half/bin/3d/newton
      bin: standard
Per MPI rank memory allocation (min/avg/max) = 17.08 | 17.17 | 17.29 Mbytes
Step CPU E_pair E_mol TotEng Temp Press Density v_lambda 
       0            0   -4032.3714    4.6887094   -3388.4999    295.09071    -144.5947    1.0018337            1 
    1000    3.3545758   -3993.2304    5.3194267   -3305.7366    314.93855     17.38903   0.99464662       0.9995 
    2000    6.7852473   -3990.5496    5.0385235   -3361.8396    287.92964   -1367.0126   0.97942087        0.999 
    3000    10.132349   -4037.1752    10.134669   -3408.1897    285.70406    1003.8048    1.0186681       0.9985 
    4000    13.551997   -4028.6574    8.9225043   -3372.9576    298.59682    176.35167   0.99738716        0.998 
    5000    16.856717   -4034.9644     5.153222   -3395.6824    292.75745   -214.44893   0.98691849       0.9975 
    6000    20.285674   -3961.0606    6.5330862   -3233.6087     332.8257   -1049.0567   0.96683781        0.997 
    7000    23.700573   -4003.1617    4.1016049   -3365.6668    292.41786    714.42957    0.9657731       0.9965 
    8000    27.245384   -3983.6854    3.7258889   -3318.1293    305.54632   -203.90315   0.96426241        0.996 
    9000    30.717137    -4021.126    7.4393876   -3369.7775    297.27271    830.92864   0.97100771       0.9955 
   10000    32.877415   -3977.2809    12.442455   -3313.9439    300.49762    -694.9947   0.98780289        0.995 
   11000    36.049639   -4025.4557    8.7813189   -3374.6186    296.41707   -713.07777   0.98803007       0.9945 
   12000    39.527296   -3982.0882      8.81454   -3333.9442    295.15844   -654.85798   0.98977554        0.994 
   13000    43.011866   -3998.1789    6.6367253   -3333.2137    303.92965   -79.242187   0.98361459       0.9935 
   14000    46.475418   -4001.8994    6.7431822   -3342.8877      301.132   -471.38776   0.97971171        0.993 
   15000    49.905974   -3985.3373    2.8054926   -3337.1907     297.9338   -782.93789   0.97729067       0.9925 
   16000    53.354801   -4005.7343    8.1902438   -3314.8153     315.1945    504.41636   0.99040984        0.992 
   17000    56.812155   -4020.7888    8.6724318   -3321.9007    318.65099    424.79786    1.0043161       0.9915 
   18000    60.252711    -4011.165    7.4152144   -3338.3288    307.20405    487.07321    1.0081708        0.991 
   19000    63.661736    -4000.211    8.5994689   -3347.9975     297.1365    -1136.116   0.98943576       0.9905 
   20000    67.152591    -4025.673     7.868777   -3360.4895    303.46166    1107.6253    1.0032067         0.99 
   21000    71.017115   -3987.4069    9.6788762   -3297.8043    313.89952   -79.584442    1.0039362       0.9895 
   22000    74.749725   -3999.0871    5.9793644    -3379.271    283.38921    413.63165   0.99137672        0.989 
   23000    78.233916   -4028.1651    5.0748816   -3364.5634    304.02124      864.997    1.0015576       0.9885 
   24000    82.102968   -4002.8068    4.1161274   -3359.3916    295.14438   -1093.2316   0.99577831        0.988 
   25000    85.979137   -3997.5133    7.7403952   -3354.9132    293.09489    734.68297   0.99338046       0.9875 
   26000    89.775403   -4001.9508    4.8498153   -3351.4714    298.06696    396.76657   0.99532596        0.987 
   27000    93.558548   -4000.2666    7.2992026   -3338.7843    302.01588    400.48607    0.9754851       0.9865 
   28000    97.402583    -4042.883     5.262294   -3384.2034     301.6623   -1282.5805   0.95384983        0.986 
   29000    101.19128   -3987.6646    6.5576663   -3312.4903    308.67941   -853.98708    0.9720666       0.9855 
   30000    104.96332   -4020.8242    2.4804869   -3387.0278    291.45881   -29.575949   0.96756159        0.985 
   31000    108.68207    -4040.057    5.2075559   -3399.6966    293.23021   -53.617398   0.97798592       0.9845 
   32000    112.51936   -4013.4625    5.5213134   -3341.9403    307.47181    600.94663   0.99040067        0.984 
   33000    116.28025   -4051.6693    4.6763064   -3396.9046    300.12549     172.9598    1.0122728       0.9835 
   34000    120.09848   -3997.5121    4.9873763   -3332.5959    304.66853    121.94579   0.99435099        0.983 
   35000    123.90096   -4037.9539    6.4402017   -3372.6065    304.19683   -802.34831   0.99358219       0.9825 
   36000    127.63635   -4033.5729    5.5539225   -3385.2234    296.75864    144.53029   0.99739175        0.982 
   37000    131.35205   -3989.8774    6.1335286   -3309.9686      311.061    447.18718    0.9902859       0.9815 
   38000    135.16538   -4013.3716    8.2068177   -3346.1364    304.25278    1419.8261    1.0074425        0.981 
   39000    139.06103   -4064.6848    3.5800055   -3410.7613    300.24325   -1380.6523   0.98338063       0.9805 
   40000    142.95649   -4015.6658    4.9726441   -3321.2365    318.30057   -336.74938   0.98733585         0.98 
   41000    146.37781   -3953.7464     5.446824    -3283.392    306.96707    2088.0378     1.009018       0.9795 
   42000    149.17681    -4026.846    4.4474126   -3388.6039    292.60317   -626.48476    1.0166627        0.979 
   43000    152.94718   -4098.3399    6.6358638   -3454.9372    293.97532   -662.17113    1.0028956       0.9785 
   44000    156.67966   -4080.8117    7.2146513   -3440.0829    292.47369    313.31362   0.99924191        0.978 
   45000    160.37023   -4050.2447    4.4229662   -3420.2504    288.80674    37.375808   0.99503935       0.9775 
   46000    164.11073   -4047.6865    7.0579113   -3357.7382    315.26916   -629.86581   0.99554628        0.977 
   47000    167.86093   -3961.2999    4.0160462   -3281.8017    311.84896   -202.99478   0.98800385       0.9765 
   48000    171.57505   -4028.3908    3.4105315   -3375.7092    299.74813    4.0960436     1.013905        0.976 
   49000       175.34   -3974.3339    6.5220899   -3304.2179    306.36054    398.60761   0.97495125       0.9755 
   50000    179.07388   -4012.8294    7.5971643   -3339.5229    307.33716    189.63282   0.97430839        0.975 
   51000    182.73207   -3985.3401    6.2352269   -3293.6725    316.44266   -820.94361   0.99220879       0.9745 
   52000    186.50105   -3990.2581    7.3425603   -3340.4944    296.58574   -548.45481   0.97719524        0.974 
   53000    190.26854   -4025.9905    4.1360637   -3333.6059    317.74279    910.14149   0.98367329       0.9735 
   54000    194.04109   -3948.3333    5.2733245   -3330.2451    282.91746     1226.123   0.97553019        0.973 
   55000    197.75174    -4045.067    5.7967824    -3411.509    289.81771   -331.53333   0.98555821       0.9725 
   56000    201.65606   -3978.8745    7.2109365   -3328.3206    297.01137    560.38441   0.99324975        0.972 
   57000     205.3934   -3984.3349    6.6314606   -3344.1324    292.49994   -1534.0248   0.99081419       0.9715 
   58000    209.08452   -4023.2073    6.6336035   -3367.0907    299.84597   -180.71673    1.0044792        0.971 
   59000     212.8683   -3999.2949    6.6021937   -3328.8828    306.46028    256.41854   0.98054534       0.9705 
   60000    216.68323   -4035.1703    4.0049066   -3375.3807    302.75529    232.68302    1.0092126         0.97 
   61000    220.50546   -4066.3053    5.6274929   -3422.6414    294.56144    315.04582    1.0055681       0.9695 
   62000    224.30341   -4002.9798    7.8986579   -3343.3317    300.89234    181.37717   0.99172015        0.969 
   63000    228.08349   -3987.5495    5.4069242    -3303.293    313.40362   -171.17077   0.98995678       0.9685 
   64000    231.13673   -4018.4766    6.2584358    -3366.938    297.90564    638.67561   0.98393715        0.968 
   65000    233.99805   -4023.7977    8.9276862   -3354.0999     305.0569   -350.85693   0.98238954       0.9675 
   66000    237.83029   -4004.4206    11.788047   -3330.6579    305.61302     535.6254    0.9810667        0.967 
   67000    241.58439   -4043.2141    7.8168436   -3398.4311    294.06737    725.79494   0.99122685       0.9665 
   68000    245.37901   -3978.5512    8.0507306   -3329.5358    295.91336    948.27602   0.99600135        0.966 
   69000    249.11003   -3987.5353    7.5814385   -3318.5481    305.35036   -923.06107   0.96561106       0.9655 
   70000    252.89025   -4038.1769     6.558951   -3388.2866    297.00598   -1112.8458   0.97534441        0.965 
   71000    256.53871   -4037.8888    7.8700262   -3358.8969      309.836   -850.81533   0.97750034       0.9645 
   72000    259.52056    -4032.857    4.8447623   -3385.4211    296.66419   -929.44077   0.99234026        0.964 
   73000    262.34321   -4071.5226    5.0211958   -3376.6166    318.49826    -509.7035   0.98706671       0.9635 
   74000    266.10962   -4000.4004    7.3326189    -3330.533     305.8716   -224.39639    1.0081847        0.963 
   75000    269.97437   -4023.7042     6.181901    -3394.722    287.52741    1026.1242    1.0088671       0.9625 
   76000    273.72658    -3960.492    7.5298772    -3329.731    287.72631    979.76598   0.98848528        0.962 
   77000    277.47383   -4054.1422    10.930556   -3438.5269    279.16403    208.14815    1.0006804       0.9615 
   78000    281.28652   -4002.7281    6.2837896   -3323.4343    310.70767    922.02415    0.9787229        0.961 
   79000    285.02917   -4008.3006    4.9737029   -3357.3807    298.21319    -85.24183   0.97520749       0.9605 
   80000    288.80384   -4030.5266    7.0392678   -3373.2153    300.21027    201.70054    1.0127867         0.96 
   81000    292.57773   -4049.5365    7.3849267   -3408.5089    292.53299   -86.088984    1.0086861       0.9595 
   82000    296.38854   -3979.2505    7.6965342    -3305.059    307.69987   -1385.1834   0.98646191        0.959 
   83000    300.10559   -4009.7574     7.137029   -3332.6756    309.29253   -348.24071   0.99119938       0.9585 
   84000    303.88818   -4036.3658    7.1886811   -3385.2987    297.25854   -35.334538    1.0087461        0.958 
   85000    307.61013   -3993.5665    5.8618023   -3347.8934    295.38084    205.43393   0.99238482       0.9575 
   86000     311.2452   -3982.7817    5.3133776   -3317.7806    304.55719   -225.93258   0.97304426        0.957 
   87000    314.81456   -4005.2405    5.3244279   -3342.6809    303.42493   -598.23577   0.99234429       0.9565 
   88000    318.50313    -4057.683    9.7411543   -3392.5644    302.56728    183.98892    1.0054146        0.956 
   89000    322.09423   -4002.4727    7.6918401   -3356.0416    294.88594   -828.25677   0.96828125       0.9555 
   90000    325.75196   -4059.9967    10.290501   -3425.7402    288.06558    1055.6159   0.99314745        0.955 
   91000     329.2247   -3991.6605    5.6589218   -3323.1157    306.03368    694.45474   0.96003874       0.9545 
   92000    332.77626   -4002.1942    7.0284729   -3334.4844    305.01592   -453.41486   0.95601694        0.954 
   93000    336.30068   -4016.2729    6.6081772   -3381.9738    289.78529   -278.58153    1.0037812       0.9535 
   94000    339.98715    -4020.156    7.5061613   -3380.7921    291.70899   -32.368716    1.0136196        0.953 
   95000    343.50411    -4019.856    4.0101011   -3322.8743    319.92333    228.55377   0.98387691       0.9525 
   96000    347.11261   -3994.5245     5.270046   -3336.6103    301.30543   -786.21325   0.97680479        0.952 
   97000    350.64297   -3969.9539    8.2255797    -3355.116    280.05398   -510.48119   0.98609131       0.9515 
   98000    354.22708   -4001.7763    4.4254199   -3330.2605    307.97477    337.86373   0.99611468        0.951 
   99000     357.7224   -3964.9913     4.808232   -3289.5926    309.59067    506.28138   0.97766926       0.9505 
  100000    361.39167   -4004.5711    6.2248481   -3370.4335    289.88769   -19.626148   0.96966267         0.95 
  101000    364.62654   -4088.3569     6.055975    -3441.226    295.96427   -310.72883   0.98637915       0.9495 
  102000    367.99159   -3988.0413    5.4636737   -3322.0943    304.92448     1432.547   0.97169437        0.949 
  103000    371.27607   -4063.4322    9.7148962   -3376.3264     312.7302   -392.47622   0.99449171       0.9485 
  104000    374.68393   -3988.1935    4.4668679   -3344.7291    295.00517    -471.3871   0.97610752        0.948 
  105000    378.03806     -3974.59    11.534828   -3317.1056    298.21472   -462.83276   0.96420206       0.9475 
  106000    381.45678   -3979.5999    8.4948336    -3307.697    306.27477   -647.62713   0.96065859        0.947 
  107000    384.31039    -4042.068    7.7693813   -3418.7899    284.16111    989.35767   0.98839161       0.9465 
  108000    387.62537   -4042.4823     4.352645   -3383.3268    302.30198    594.58741   0.98356823        0.946 
  109000    390.52863   -4030.8664    3.6049316   -3371.4545    302.76557   -421.87411   0.96536778       0.9455 
  110000    393.45018   -4016.8981    4.3701815   -3345.6504    307.87652    1390.8403   0.98898634        0.945 
  111000    396.67488   -3982.7477    7.2927774   -3306.3471    308.90616     308.2379   0.99398626       0.9445 
  112000    400.01156   -3994.1088    3.6226538   -3324.5667    307.43419    1202.1651     1.008254        0.944 
  113000    403.12241   -4021.5077    6.4343475   -3347.6794    308.11492    743.82788   0.98766763       0.9435 
  114000    405.23648   -4024.8044    4.7018185   -3327.5644    319.72322    158.07773   0.98638194        0.943 
  115000    408.57291   -3988.7671     4.359472   -3309.1872    311.72815   -464.47273   0.99013569       0.9425 
  116000    411.90328   -4033.0004    5.4309598   -3359.7659    308.30397    300.96975   0.97859253        0.942 
  117000    415.27715   -4047.0613    6.6131243   -3380.5194    304.66847   -50.597877   0.98814027       0.9415 
  118000    418.75352   -4016.0608    8.2546879    -3364.726    296.89002   -793.77693    1.0032336        0.941 
  119000    422.19483   -3989.6361    6.9930299   -3305.4788    312.62556    768.38251    1.0076841       0.9405 
  120000    425.65566     -3958.51    6.2906437    -3301.588    300.37613   -915.82491   0.98877033         0.94 
  121000    429.42115   -3947.1521    5.0454572   -3264.7442    312.71704   -211.92128   0.98111961       0.9395 
  122000    433.04577   -3994.5588    7.5378347   -3336.4913    300.32919   -1845.5211   0.98091901        0.939 
  123000    436.68465   -4031.4493    5.3818932   -3398.7663    289.60534    92.937042   0.99207898       0.9385 
  124000    440.32998   -4029.4055    5.9593347   -3366.2259    303.41805    565.54265    1.0143554        0.938 
  125000    444.00255   -4017.2804    5.3370285   -3376.2833    293.46439   -93.215681    0.9961602       0.9375 
  126000    447.71556   -3946.6579     8.196924   -3272.4364    307.48273    323.46243    1.0013476        0.937 
  127000    451.45859   -4018.4988    8.5094755   -3374.7792    293.25665   -829.70401   0.98382307       0.9365 
  128000    455.13508   -4013.7393    3.7687742   -3348.0086    305.60716    1075.4709     1.001035        0.936 
  129000    458.82574   -3987.6646     4.818315   -3339.8986    296.82883    366.76396    1.0078677       0.9355 
  130000    462.55383   -3992.1695    6.8180524   -3317.0852     308.5176    1435.8981    1.0429598        0.935 
  131000    466.22586   -4033.3881    5.3838207   -3398.4406    290.64985   -315.50272    1.0081175       0.9345 
  132000    469.85878   -3975.0472    7.9574338   -3298.1961     308.8073    900.93256    1.0089528        0.934 
  133000    473.57653   -4002.8757    4.7838852   -3341.8254    302.97765    185.89228    1.0194803       0.9335 
  134000    477.16955   -4018.9909    4.5817022   -3364.3993    300.08925   -230.09462   0.99894508        0.933 
  135000    480.88117   -4022.5034    6.7604684   -3349.1836    307.72959   -1181.8286   0.99015303       0.9325 
  136000    484.48898   -3945.5225    5.3673825   -3285.1658     302.3881   -117.11404   0.97961473        0.932 
  137000    488.06443    -3999.453    6.4974261   -3367.4038    288.79766    278.15677   0.99313905       0.9315 
  138000    491.71582   -4001.3796    6.0161675   -3325.9543    309.04526    501.70744    1.0099104        0.931 
  139000    495.19672   -3982.6861    4.6435437   -3321.9203    302.91116   -501.26783   0.98497413       0.9305 
  140000    497.75098   -4012.9548    6.8909636   -3381.3346    288.41791   -63.984419   0.98453196         0.93 
  141000    501.41659   -3974.6926     6.442552   -3315.3868    301.40656    -258.6274   0.99832552       0.9295 
  142000    505.12029   -3971.9967    6.8349515   -3330.8354    292.84865   -398.55139   0.99318304        0.929 
  143000    508.80435    -4015.323    4.9525317   -3332.7951    312.81535    380.11216    1.0185103       0.9285 
  144000    512.40822   -4011.2141    4.6970676   -3406.8381    276.85304    958.12021    1.0094431        0.928 
  145000    516.17583   -4000.1968    6.9403806   -3335.4794    303.67506     438.2007    1.0004575       0.9275 
  146000     519.7943    -3963.354    4.9237149    -3302.976    302.60273     6.368374   0.98781362        0.927 
  147000    523.42821   -4003.1088    4.9945253   -3367.2654    291.24322    545.64218   0.98209255       0.9265 
  148000    526.99261    -3937.021    7.0130061   -3294.0709    293.59227   -84.769349   0.98490378        0.926 
  149000    530.64076   -4012.5248    4.9366921   -3376.2405    291.47348   -189.52761   0.98230982       0.9255 
  150000    533.19807   -3980.9776    4.3157598   -3327.9009    299.51263    477.48925    1.0028517        0.925 
  151000    536.84638   -3997.3914     5.088565   -3322.9809    309.00499   -502.20823   0.97272397       0.9245 
  152000    539.65372   -3970.9957    5.4167787   -3309.1765    303.04048   -1191.1165   0.95202853        0.924 
  153000    542.60344   -4066.0567    4.7497344   -3427.2182    292.73895    852.85795   0.99868612       0.9235 
  154000    546.11784   -4066.1458     8.317059   -3375.7753    314.88278    917.11115    1.0153725        0.923 
  155000    549.95873   -4002.6795    6.3325323   -3346.8579    299.84875    52.514327   0.98772371       0.9225 
  156000    553.67375   -3985.4278    5.8063589   -3343.1441    293.84166   -558.71946   0.99573215        0.922 
  157000     557.4443   -4032.4239     3.906042   -3379.7449    299.51821   -718.51028   0.97427344       0.9215 
  158000    561.15382   -4063.6477    4.0628182   -3388.7576        309.7    -994.2303   0.98887104        0.921 
  159000    564.92665   -4035.9886    5.4108926   -3399.0643    291.55001   -468.57685   0.98325349       0.9205 
  160000     568.6473   -4030.5161    3.2269875    -3387.099    295.55572    642.22611    0.9817309         0.92 
  161000    572.37796   -4055.5145    4.6021981   -3425.5858    288.69373    718.02945    1.0074149       0.9195 
  162000    576.07864   -3957.8445    3.1098924   -3311.4752    296.97274   -328.90791   0.96658101        0.919 
  163000    579.92597   -4060.1573    6.1765448    -3381.234    310.58613     542.6289    1.0026447       0.9185 
  164000    583.82942   -3967.5616    4.5813837   -3326.3512    293.91171    789.91521   0.99022604        0.918 
  165000    587.61851   -3977.3975    4.1469939   -3336.4489    293.99137   -784.07092   0.97866663       0.9175 
  166000    591.39131   -4011.4535    3.7390191   -3355.3641    301.16981    1723.3526    1.0185165        0.917 
  167000      595.209   -4001.4814    3.0250823   -3345.6288    301.39007    337.34304     1.015497       0.9165 
  168000    598.98108   -4028.1236    5.6058709   -3356.6754    307.39858   -184.84474   0.99910641        0.916 
  169000    602.77403   -4043.8031     3.673406   -3402.7492    294.25862    30.248789    1.0042969       0.9155 
  170000    606.61958   -3989.9984    4.8025057   -3308.3893    312.46043    182.59583    1.0120067        0.915 
  171000    610.43458   -4035.4849    2.0260949   -3359.0925    311.33384   -1225.8828   0.98146002       0.9145 
  172000     614.1118   -3983.6842    2.8253067   -3331.3331    299.86575    1267.9966    1.0213967        0.914 
  173000    617.84877   -3974.9025    3.2239368   -3334.3096    294.25334    111.98893   0.97969389       0.9135 
  174000     621.6112   -4051.3118    2.4911423   -3414.9485    292.63895   -775.23755   0.98985386        0.913 
  175000    625.40624   -3994.5524    3.3427092   -3340.6964    300.32162    160.91865   0.97086594       0.9125 
  176000    629.14324   -4032.1261     3.220223   -3390.1173    294.90871    572.55081   0.99505367        0.912 
  177000    632.91633   -3981.0642    3.6053695   -3347.5006    290.83204    812.95321   0.99790627       0.9115 
  178000    636.58149    -3990.982    5.1434901   -3340.9744    297.71359    683.77304    1.0007127        0.911 
  179000     640.3396   -4001.5763    2.6440078   -3314.8083    315.83866    555.97736    1.0040043       0.9105 
  180000    644.12597   -4031.9652    3.8111187    -3397.462    291.17081   -473.16527   0.97992192         0.91 
  181000    647.88235   -4043.5487    3.8465642   -3368.3967    309.92073    387.13805   0.98429557       0.9095 
  182000    651.64715   -3957.9685    3.2931269   -3308.7171    298.21871   -980.08232   0.96965421        0.909 
  183000    655.31492   -3937.4233    4.2911586    -3277.677    302.60317   -308.18354   0.96005617       0.9085 
  184000    659.03355   -4007.2289    6.4367466   -3355.6378    297.84758   -491.82453   0.99797841        0.908 
  185000    662.79187    -3954.894     6.383049   -3289.8284     304.0931    622.19366    1.0049916       0.9075 
  186000    666.53153   -4009.9165    5.3976691   -3363.2295    296.06322    -591.0458   0.99808366        0.907 
  187000     670.3705   -4007.4764    4.2980999    -3409.182    274.22953   -826.62992   0.98630647       0.9065 
  188000    674.16683   -4036.3133    2.3578072   -3395.7255    294.65082   -37.350877   0.98807603        0.906 
  189000    677.99862   -3980.6955    5.3301153   -3329.7316    298.06893   -980.67321   0.98402781       0.9055 
  190000    681.81163   -3976.9309    4.2417175   -3295.6002    312.59078    120.17174    1.0095087        0.905 
  191000    685.60183   -4033.5462    5.8061881    -3361.573    307.54849   -331.35921   0.99917449       0.9045 
  192000    689.35703   -4025.5236    3.8824476   -3348.1024    310.95176     -1477.91   0.97158232        0.904 
  193000     693.0651   -4023.0094      4.54768   -3363.6979    302.28396   -342.20998   0.99407434       0.9035 
  194000    696.82885   -4027.6481    4.4847219   -3391.4428    291.64562     1201.859   0.99801227        0.903 
  195000    700.61457    -4043.197    6.1562964   -3353.1491    315.73134    366.64542    1.0061572       0.9025 
  196000     703.8205   -3970.3771    5.0361207   -3332.0528    292.36937    232.06019   0.98439973        0.902 
  197000    706.29457   -3972.8504    6.7107588   -3342.0995    288.09983    86.350303   0.97564809       0.9015 
  198000    710.07754   -3984.7754    5.9810251   -3315.9165    306.03002    607.47295    1.0043167        0.901 
  199000     713.9125   -4056.2435    7.2207229   -3418.7261    290.98825   -667.43074   0.99402542       0.9005 
  200000    717.60574   -4001.0153    4.1890107   -3347.2621    299.88348    80.972154    1.0018321          0.9 
  201000    721.00168   -4046.6475    4.7011757   -3408.4477     292.4665   -638.41941    0.9726137       0.8995 
  202000    724.37105   -4041.3731    6.0172822   -3372.5068    306.01669    1008.5163    1.0101529        0.899 
  203000    727.79487   -4049.2958    8.9827895   -3395.0592    297.89354    1703.2391    1.0175807       0.8985 
  204000    731.23674   -4059.8483    6.5794544   -3374.7267    313.26167    316.23604   0.97959482        0.898 
  205000    734.62896   -4011.5148    5.3522258   -3341.7876    306.72113      1350.24   0.98398156       0.8975 
  206000    738.05602   -4075.5669    4.2654555   -3427.6141    297.17031   -821.60252   0.97919704        0.897 
  207000    741.51809   -4045.9649     6.658399   -3401.8668    294.28601   -483.67137   0.98146352       0.8965 
  208000    744.98842   -4014.1163    6.1288919   -3353.9821     301.9338   -327.87732   0.98524894        0.896 
  209000    748.46018   -4015.0852    5.0079766   -3343.6889    307.65065    -1355.143   0.97562767       0.8955 
  210000    751.97474   -3996.8622    5.4380888   -3355.9511    293.37806    281.81089   0.98587835        0.895 
  211000    755.44531   -3981.1906    7.0581636   -3331.7803    296.55391    980.50442    1.0248987       0.8945 
  212000    758.43467     -3951.01    6.3449897   -3322.3295    287.31287   -508.71321    0.9922655        0.894 
  213000    761.80577    -3989.353    7.2333872   -3322.5101    304.52106   -277.12934   0.98399835       0.8935 
  214000    765.22219   -4018.1107    5.4465779   -3348.5177    306.61562   -245.10304   0.98673323        0.893 
  215000    768.68595   -3981.3214    9.6852664   -3338.1033    292.48231    635.46454   0.99051566       0.8925 
  216000    772.16057   -4030.5765    10.563113   -3372.9501     298.7289   -10.860782   0.97590289        0.892 
  217000    775.63552   -3991.7673    10.470155   -3321.2281    304.73323   -796.61047   0.97911596       0.8915 
  218000    779.12499    -4038.861    6.1143433   -3377.9658    302.29185    507.96774    1.0113451        0.891 
  219000    782.61346   -4002.3368    6.8561813   -3324.3732    309.82934    367.96029   0.99030635       0.8905 
  220000    785.98983   -3983.6115    5.6035355   -3304.5969    310.89286    750.93233    1.0085255         0.89 
  221000    789.78394    -3996.363    6.1889521   -3330.2702    304.65696    203.90949    1.0122424       0.8895 
  222000     793.7486   -3948.4861     6.946106    -3284.362    303.39856    1208.8999   0.99524479        0.889 
  223000      797.683   -4020.4558    4.8292051   -3357.7391    303.72611    412.58927    1.0046814       0.8885 
  224000    801.60189   -3983.9843    8.1414225   -3329.5664    298.36565   -521.50096   0.99385178        0.888 
  225000    805.44444   -4000.2752    5.5658622   -3313.8374    314.33726    1396.9726    1.0038174       0.8875 
  226000     809.3813   -4004.5411    4.8751989    -3388.414    282.19589    409.24093   0.99680082        0.887 
  227000    813.22188   -4017.5174    2.8970258   -3369.1945    297.97296    319.13346   0.98052205       0.8865 
  228000    816.98721    -3978.721    2.8006288   -3330.8338     297.8163   -350.86959    1.0013219        0.886 
  229000    820.79918    -4028.267    4.1074154   -3365.5883    304.04176   -491.86507   0.98762291       0.8855 
  230000    824.47102   -4032.5099    6.6473439   -3398.5163    289.62617   -1768.8921   0.98514033        0.885 
  231000    828.21721   -4015.3906    4.7441117   -3360.3306    300.23049   -908.04595   0.97477351       0.8845 
  232000    831.98067   -3989.2084    5.0261388   -3345.4903    294.86411   -1819.2534   0.97259982        0.884 
  233000    835.76027   -3990.6789    6.1952009   -3373.8766    281.89819   -126.75202   0.98889883       0.8835 
  234000    839.53184   -3955.8902    4.0294489   -3285.6539    307.56685   -276.02917    1.0089669        0.883 
  235000    843.31709   -4020.7632      5.19199   -3341.2267     311.3238    15.722744    1.0061162       0.8825 
  236000    847.12146   -4010.2128    5.9456767   -3377.8793    289.18366   -90.608666    1.0051791        0.882 
  237000    850.96395   -4027.6877    6.9806614   -3367.5209     301.5556   -544.45922   0.98344397       0.8815 
  238000    854.77977   -3979.4893    6.9466006   -3310.4167    305.68289    433.07864    1.0000493        0.881 
  239000    858.61743    -3938.469    5.5099896   -3272.2715    305.01878   -546.59274   0.98925489       0.8805 
  240000    862.35278   -3997.6736    8.1377372   -3365.6149     288.0448   -25.082387    0.9824638         0.88 
  241000    866.08538   -3984.8303    8.3907967   -3322.3733    301.96193   -526.67321   0.99264175       0.8795 
  242000     868.6833   -3985.7288    4.8776701   -3322.2954    304.03458   -1134.2174   0.98535876        0.879 
  243000    872.12231   -4029.9385     3.804604   -3384.1644    296.37724    -1757.019   0.98718882       0.8785 
  244000    875.21581    -4008.489    3.3846545   -3357.6673    298.90143   -687.29884    1.0027674        0.878 
  245000     878.9126    -3997.122    4.2583431   -3335.8529    303.32134    631.42615      1.01757       0.8775 
  246000    881.41103   -3989.5368    6.9227857   -3360.6013    287.16385    621.83323    1.0117163        0.877 
  247000    885.08367   -4023.3198    6.0792988   -3351.2504     307.4668   -46.962486     1.001949       0.8765 
  248000      888.611   -3993.7736    4.7548047   -3344.9525    297.34526    779.67116    0.9840631        0.876 
  249000    892.35669   -3991.3216    6.7291264   -3354.5902    290.85238    406.59635    1.0029244       0.8755 
  250000    896.13404   -4011.5009    5.4343583   -3340.2528    307.38542    381.01489   0.98909522        0.875 
  251000    899.87787   -4059.1896    3.3740806   -3415.2206    295.74266    679.85375    1.0064191       0.8745 
  252000     903.6961   -4050.3685     6.127289   -3387.7202    303.09522    647.28678    1.0158471        0.874 
  253000    907.49626    -4002.765    6.6696619   -3324.5748    310.02001   -678.46784   0.96721727       0.8735 
  254000    911.32583   -4007.9625    4.1451875   -3380.9504    287.55817    1029.0595    1.0091063        0.873 
  255000    914.91793   -4012.6399    6.0998582   -3345.1243    305.35497     74.41217   0.97899637       0.8725 
  256000    918.41112   -3949.0435    4.7054304   -3310.6653    292.54689   -369.99096   0.97045934        0.872 
  257000    922.05366   -4024.4616    5.8139396   -3371.1879    298.91191   -53.497672   0.97629856       0.8715 
  258000    925.56773    -4016.804    5.4414033   -3319.5749    319.37676   -462.82882   0.99123877        0.871 
  259000    928.78252   -4000.8314    4.1389721   -3346.5157    300.16626    867.93703   0.98335039       0.8705 
  260000    932.29359   -3962.5121    3.1684344   -3310.1735    299.70156   -652.79604   0.98397213         0.87 
  261000    935.17819   -4016.7037     9.565038   -3351.3802     302.7432    151.00095    1.0035263       0.8695 
  262000    937.46841   -4036.7066    7.1795575   -3359.7223     309.2279    853.51212    1.0273481        0.869 
  263000    941.04846   -4038.7525    6.5015734   -3358.6067    311.00046    986.01486      1.01402       0.8685 
  264000    944.66572   -4043.8236    6.9011332   -3372.3341    306.81967   -1301.7459   0.98189475        0.868 
  265000    948.27797   -3990.5974    6.3731406    -3341.116    296.90298   -140.67546   0.97292437       0.8675 
  266000    952.04828    -4006.157    4.9860293    -3384.229     284.8228   -653.84579    0.9876958        0.867 
  267000    955.76665   -4016.9635    2.5807213   -3337.5326    312.48057   -461.70243   0.97809554       0.8665 
  268000    959.40428   -4023.2079    3.3493305   -3353.5256     307.6251    391.20877    1.0049859        0.866 
  269000    963.12477    -4043.238    5.4727917   -3387.4304    300.23921   -338.21334    1.0186874       0.8655 
  270000    966.96268   -4029.4181    3.0694729   -3335.6408    318.87821    1548.8636    1.0042337        0.865 
  271000    970.92332   -4012.8588    4.7622875   -3355.8827    301.10669    529.00605    1.0045309       0.8645 
  272000    974.86235   -3971.6679    4.8082283   -3334.6482    291.87228   -163.71756   0.99227296        0.864 
  273000    978.63396   -3988.7438    5.1971727   -3362.6029     286.6703   -35.495977     0.981853       0.8635 
  274000    982.37259   -3988.0783    6.0938951    -3321.338    304.99977   -289.87179   0.99517894        0.863 
  275000    986.12535   -4014.3015     5.276743   -3355.0568    301.91655    993.95708    0.9976424       0.8625 
  276000    989.91631   -3956.3232    4.6269543   -3292.5578    304.30361    1324.3638    1.0039106        0.862 
  277000    993.78397   -4051.7676    5.7297235   -3382.1071    306.51606   -747.70425   0.99692681       0.8615 
  278000    997.23931   -3979.7807    3.3096623   -3315.1997    305.28829   -358.16137   0.97124043        0.861 
  279000    1000.5464   -3992.7381    4.8392579   -3347.2798    295.75376   -210.42004   0.96797613       0.8605 
  280000    1003.2278   -4040.6014    4.0701127   -3390.1994    298.39121   -603.68815   0.97162699         0.86 
  281000    1006.8347    -3964.673    5.5025441   -3335.9985    287.69902    -1196.409   0.96529498       0.8595 
  282000    1010.3823   -4035.3636    4.5018752   -3395.9707    293.10931    916.23375   0.99822165        0.859 
  283000     1013.918   -3935.6061    5.4319792    -3282.443    299.03722   -297.69733   0.98603894       0.8585 
  284000    1017.0433   -3955.6356    5.1978347   -3317.3626    292.27096   -1401.9001   0.99607535        0.858 
  285000    1020.6649   -3990.0616    8.2184699   -3367.3077    283.71181    752.41742   0.99008962       0.8575 
  286000    1024.2682   -3967.1387    13.192811   -3310.6535    296.98799    148.63705   0.98857873        0.857 
  287000    1027.8046   -4018.9477    9.2264174   -3341.9781    308.27615    254.14445   0.96893993       0.8565 
  288000    1031.3165   -4014.0502    7.4258804   -3359.2049     298.8933    322.14208   0.97593272        0.856 
  289000    1034.8614   -3953.8826    7.6679005   -3312.8769    292.39224    219.10727   0.98141773       0.8555 
  290000    1038.4132   -3972.4784    6.9449326   -3314.3996    300.60814   -75.604706   0.97936748        0.855 
  291000    1042.0614   -3962.3034    10.436566   -3285.8432    307.48231   -1057.6795   0.98670049       0.8545 
  292000    1045.7075   -3990.4629       10.918   -3346.9096    292.06794   -140.63787   0.99173463        0.854 
  293000    1049.3828    -3968.167    7.5183654   -3318.2559    296.57263    -401.5713   0.97346845       0.8535 
  294000    1052.4645   -4002.3007    5.8822353   -3355.7227    295.78923    616.66468    1.0042159        0.853 
  295000    1056.1191   -3992.6609    4.0084202   -3361.0332    289.75219    461.35477   0.97615936       0.8525 
  296000    1059.8236   -3978.1361    6.7194422   -3298.0056    310.89285    1752.6277   0.99914187        0.852 
  297000    1063.4949   -4034.8463    7.7726502   -3393.8781    292.32657   -911.37843   0.97252984       0.8515 
  298000    1067.2081   -4023.3269    6.1049224   -3344.1367    310.74246    743.10872    1.0003774        0.851 
  299000    1070.8897   -4004.3169    6.7619268   -3338.2153    304.39654    804.09546    1.0076474       0.8505 
  300000    1074.5078   -4010.8959    9.4772004   -3389.9675    282.28789    505.30616   0.98804655         0.85 
  301000     1077.887     -4004.66    5.3824259   -3363.5813    293.48111    916.19945    1.0062032       0.8495 
  302000    1081.3023    -3990.221    10.306774    -3314.236    307.32281    211.57683     1.003751        0.849 
  303000     1084.809   -4029.0737    11.058993   -3355.9976     305.6326   -1158.0816    1.0081986       0.8485 
  304000    1088.2281   -3996.3762    5.4011806    -3336.055     302.3561   -269.39467   0.98311773        0.848 
  305000      1091.57   -4004.3952    7.2495875   -3386.0183    282.13837   -283.42257   0.98236793       0.8475 
  306000    1094.9699   -3993.5024    5.5291314   -3361.1676    289.37655     171.8366    1.0079982        0.847 
  307000     1098.356   -3997.7061    6.3760295   -3318.3675    310.68574    683.94938   0.99815524       0.8465 
  308000    1101.7418   -3983.9368    7.0125938   -3318.0453    304.18375   -508.62351   0.98103136        0.846 
  309000    1104.9954   -3983.2787    8.0849569   -3340.6541    292.94708   -119.13927   0.98855155       0.8455 
  310000    1108.2817   -4007.3427     4.716774   -3332.4241    309.41124    315.49763     1.005818        0.845 
  311000    1111.6431   -4053.2596    4.9735905   -3390.8717    303.50762    698.52561   0.99122174       0.8445 
  312000    1114.9748   -3994.3846    5.3077174   -3331.7103     303.4856    1376.1518    1.0044256        0.844 
  313000     1118.282   -4035.7748    5.4473666   -3379.1649    300.62139   -389.89851   0.96676947       0.8435 
  314000    1121.6042   -4023.4431    5.4161476   -3350.9991    307.94593    706.53473    1.0020995        0.843 
  315000    1124.9837   -4000.7815    8.0103682   -3309.6161    315.39134   -671.43725   0.96155521       0.8425 
  316000    1128.4329   -3994.2726    3.9981655    -3373.187    284.88999   -227.31974    0.9709628        0.842 
  317000     1131.829   -3987.9455    6.3106556   -3316.3313    307.14982   -1648.5257   0.94984389       0.8415 
  318000    1135.2324   -4000.3956    5.3784302   -3351.8774    296.91749   -644.76716   0.98398226        0.841 
  319000    1138.7178   -3991.1857    6.3274066   -3356.4384    290.12182   -894.53317   0.96389439       0.8405 
  320000    1142.1817   -4018.3521    7.0307762   -3339.1677    310.31228   -42.528966   0.98956547         0.84 
  321000    1145.9405   -3991.7888    3.9968641   -3333.1066    302.24777    105.51498   0.99151566       0.8395 
  322000    1149.5887   -4023.4196    3.5484344     -3351.56    308.53836   -433.00996   0.98376711        0.839 
  323000     1153.269   -3989.5243    3.8671661   -3322.1449    306.32287   -811.08195   0.96608047       0.8385 
  324000    1156.8961   -4044.5087    4.8017681    -3370.989    308.72614      59.9968    0.9781598        0.838 
  325000    1160.6241   -4050.2849    5.7459379   -3433.3131    282.18387   -1129.7732   0.98241646       0.8375 
  326000    1164.4703   -4015.2103    6.8067037   -3347.6161    305.06491   -1147.5555   0.99044961        0.837 
  327000    1168.3759   -4003.4523    6.7205104   -3344.5776    301.07922    825.50614    1.0148364       0.8365 
  328000    1172.2076   -4063.0761    8.1402887   -3417.8696    294.11354    946.49606    1.0041109        0.836 
  329000    1176.0007    -4032.767    8.3738909   -3356.1431    308.51016   -57.860008   0.99053885       0.8355 
  330000    1179.7668   -4035.7301    6.8275106   -3372.7626    302.91932    184.08047   0.98943681        0.835 
  331000    1183.4638   -4029.0643    4.9997712     -3359.51    306.80405    1149.1419   0.99419403       0.8345 
  332000    1187.1148    -3962.524    7.8583889   -3309.6778    297.77067   -199.13477   0.98039986        0.834 
  333000    1190.7664   -3986.4717    6.6614278   -3330.3075    299.85513    539.17339   0.98318912       0.8335 
  334000     1194.492   -4014.0148    6.6332336   -3367.8097    295.27037    314.55336   0.98309584        0.833 
  335000    1198.2208   -4043.0974    5.8040809   -3381.4226    302.79498   -501.32643   0.98582814       0.8325 
  336000     1202.001   -4010.2492    9.3909564   -3295.5084    325.63796   -253.02169   0.99839702        0.832 
  337000    1205.7458   -4046.4324    9.2750999   -3414.1905    287.60431   -831.99812   0.99071748       0.8315 
  338000       1209.6   -3992.1944    4.6066725   -3366.8864    286.55837    1358.5974   0.98974283        0.831 
  339000    1213.3677   -3980.8093     4.950678    -3330.512    297.93637    829.35871    1.0064375       0.8305 
  340000     1217.214   -3988.5732    9.0401025   -3327.9971    300.79382    1465.6822    1.0033223         0.83 
  341000    1221.0522   -4022.6627    5.5239981   -3367.6805    299.83457    -234.7068    0.9973456       0.8295 
  342000    1224.8605   -3998.2665    5.5261395   -3321.9827    309.66781     758.9485    1.0019218        0.829 
  343000    1228.6965   -4018.9228    4.8275094   -3340.0932    311.16565   -450.56826    1.0021019       0.8285 
  344000    1232.4816   -3988.1206    4.7697904   -3313.7942    309.11334   -438.03453   0.98683596        0.828 
  345000    1236.3208   -3955.1069    5.7002194   -3312.7821    293.90967   -96.981484   0.99462047       0.8275 
  346000    1240.1202   -3973.7593    5.6971021   -3286.9579    314.44453   -1716.5759   0.97749084        0.827 
  347000    1244.0058   -4081.1957    6.6092861   -3418.1259    303.06728    48.348993    1.0031887       0.8265 
  348000    1247.8624   -4033.8901    5.7207255   -3364.4086    306.43761    498.97718    1.0031632        0.826 
  349000    1251.6659   -4017.3229    5.1474425   -3393.3922    285.67287    646.13152    1.0033036       0.8255 
  350000    1255.3544   -4028.8908    6.5984564   -3412.1491    281.68405   -350.31167   0.99687705        0.825 
  351000    1259.2141   -3963.3561    3.4691614   -3293.2101    307.78383    -487.2679   0.96102191       0.8245 
  352000    1262.9683   -4042.1927     5.274899    -3382.885    301.94649   -225.55002   0.99119244        0.824 
  353000    1266.8431   -4020.9029     7.774113   -3365.7779    298.86166    887.36251   0.99722511       0.8235 
  354000    1270.5678   -4021.3691    3.8718332   -3345.6585    310.16694    205.02043   0.99577813        0.823 
  355000    1274.3245   -4055.4114    5.8446421   -3421.8129    289.81432    41.769397   0.99453693       0.8225 
  356000    1278.0414   -4022.7818     4.523922   -3357.1854    305.19647    1434.7683   0.99441925        0.822 
  357000    1281.7697   -4007.8168    4.5330798    -3338.883    306.73305    243.94902   0.99483163       0.8215 
  358000    1285.5948    -4033.516    4.1192402   -3399.4677    290.81855     341.1039    0.9885821        0.821 
  359000    1289.3519   -3964.1381    5.4781392   -3302.3647    302.99099    364.98435   0.97530843       0.8205 
  360000     1293.104   -4023.3416    5.4024064   -3402.3465    284.19991    623.53194    1.0092789         0.82 
  361000     1296.856   -3976.0399    3.9736006   -3326.1143    298.21585   -82.176602    1.0007584       0.8195 
  362000    1300.6653    -3998.273    3.5706628   -3336.4849     303.8784   -175.73777   0.99610075        0.819 
  363000    1304.4828   -3982.3246    3.9135351   -3350.1608    290.04351   -455.52236   0.97761242       0.8185 
  364000    1308.2538   -3957.3469    4.5656089   -3315.9351    294.01198   -58.295763   0.96214863        0.818 
  365000     1311.969   -3993.2869    5.3849684   -3342.7583    297.84265   -457.59447   0.97463965       0.8175 
  366000    1315.7971   -4003.1883    5.7856123   -3335.9278    305.38227   -86.330689   0.98832696        0.817 
  367000    1319.6442   -4057.5002     4.066286   -3445.5927    280.62126   -430.35084    1.0029442       0.8165 
  368000    1323.6434   -4046.9654    4.0096466   -3381.8116     305.2296     510.4009   0.99595846        0.816 
  369000    1327.6338   -3986.9471     3.738746   -3341.5654     296.2265    985.15957    1.0025929       0.8155 
  370000    1331.5877   -3986.5475    2.9740428   -3344.7865    294.90798   -729.38531    1.0052683        0.815 
  371000    1335.3885   -4047.1351    3.5997487   -3353.6501    318.49846   -950.41376   0.99211918       0.8145 
  372000      1339.17   -4009.3917    4.1590616   -3360.8919    297.47196   -419.36061   0.99737327        0.814 
  373000    1342.9444   -4035.8362    4.1075884   -3369.6823    305.64608    640.75608    1.0095875       0.8135 
  374000    1346.6825   -3972.8328    4.0228678   -3288.4354    314.10767   -1030.3343   0.99467226        0.813 
  375000    1350.3918   -4045.9022    3.5406464   -3389.3357    301.48162   -560.35874    0.9908199       0.8125 
  376000    1354.0467   -4044.1567    4.9607118   -3369.0416    309.38934    400.73609   0.99004741        0.812 
  377000    1357.6432   -4047.4227    6.7387577   -3363.8792    312.45962    329.83668   0.99251644       0.8115 
  378000    1361.3594   -3980.8876    4.9039004   -3342.7857    292.32773   -951.06112   0.97212911        0.811 
  379000    1365.1386   -4008.4729    5.8147381   -3364.8109    294.47412    560.84248    1.0024901       0.8105 
  380000    1368.9387   -3960.1967     5.565558   -3298.5839    302.87647    452.64611   0.97413621         0.81 
  381000    1372.5626   -3996.9053     3.335434   -3361.1877    291.95107   -1006.7392   0.96235678       0.8095 
  382000    1374.9807   -4005.1637      5.42061   -3355.9121    297.23666   -197.17803   0.97058536        0.809 
  383000    1378.5088   -4021.6182    4.9732731   -3356.8202    304.62046    972.68824   0.99317347       0.8085 
  384000    1380.7851   -3996.1408    6.5921651   -3342.4454    298.74732   -2.5618135   0.99044105        0.808 
  385000    1384.1477   -4024.2503    5.0111749   -3368.4236    300.46116   -355.87083   0.98683399       0.8075 
  386000    1388.0038   -4001.3127    6.1712541   -3349.2116    298.20563    1361.4122     1.010818        0.807 
  387000    1391.7393   -4005.3843    7.6835595   -3360.0351    294.39032   -964.24884   0.98367001       0.8065 
  388000    1394.0983   -4048.1083    11.187524   -3386.2635    300.38814   -339.13444    1.0025049        0.806 
  389000    1396.4423   -4034.8974     5.730644   -3352.0976    312.58163   -192.74682   0.99888641       0.8055 
  390000    1399.2487   -4028.2902    5.8056668   -3386.4264    293.64816    281.40017     1.007878        0.805 
  391000     1402.689   -3950.7521    7.2056244   -3273.4663    309.35508    -123.4118   0.96490018       0.8045 
  392000    1406.3348   -3968.3142    8.1467139   -3347.6799    282.76637   -19.113813    1.0122197        0.804 
  393000     1409.958    -3991.005    4.7797355   -3333.6466    301.27516    32.917224   0.98314463       0.8035 
  394000    1412.4021    -4029.528    4.6231318   -3367.0303    303.72011   -281.85361   0.99874876        0.803 
  395000    1414.8624   -3923.5749    2.7745635   -3261.1954    304.51901   -129.73461   0.96729746       0.8025 
  396000     1418.254    -4006.736    7.9639461   -3345.1251    301.76834   -467.26987    1.0043457        0.802 
  397000    1421.0343   -3963.8561    6.1053306   -3317.7483    295.46911   -103.50441    0.9882348       0.8015 
  398000    1424.6089   -3951.5849    5.1642344   -3305.2943    295.98796   -348.75312   0.97780424        0.801 
  399000    1428.2582    -3992.645    6.6136325   -3310.2667    311.97944    -461.6558    0.9967985       0.8005 
  400000    1431.7826   -4026.3385    6.1478235   -3361.1478    304.25946    178.63459    1.0128927          0.8 
  401000    1434.3295   -4042.3728    4.5167982   -3388.7952    299.65111   -425.45175   0.97588445       0.7995 
  402000    1436.5882   -4052.3784    4.3866149   -3408.9831    295.01031   -1382.5407   0.99290076        0.799 
  403000    1440.0404    -4003.812    4.6898779   -3314.4059    316.11208    257.55017    1.0014282       0.7985 
  404000    1443.4579   -4057.4488    5.3610378   -3402.6456    299.82715   -384.07944    1.0056695        0.798 
  405000    1446.6988   -4001.7291    5.5372435   -3346.3139    300.02832    -38.27392   0.98227691       0.7975 
  406000    1449.1519   -3972.8079    4.9146386    -3300.735    308.00609    585.52161   0.97204078        0.797 
  407000    1452.4733   -3998.0921    5.3397045   -3310.0994    315.15957   -406.99246   0.97065025       0.7965 
  408000    1455.7396   -4007.5288    4.0545202   -3338.6657    306.92129    -130.5129   0.99722484        0.796 
  409000    1459.0867   -3958.7248    4.6755269   -3310.4522    297.12865   -557.62726   0.98179801       0.7955 
  410000    1462.5281   -4008.3087    6.6884127   -3334.6594    307.91498   -764.06133    1.0040172        0.795 
  411000    1465.9935   -4022.0312    3.3256602   -3371.3789    298.85048    805.41065   0.99882525       0.7945 
  412000    1469.4886   -3988.1044    4.8386264   -3276.9157    326.09973    1125.1287    1.0056969        0.794 
  413000    1473.0476   -3951.6051     4.830426   -3278.0595    308.72487   -297.50541   0.99384025       0.7935 
  414000    1476.5091   -3988.3536    5.3882503   -3327.5971    302.56303    193.07035   0.98067269        0.793 
  415000    1479.9151   -3977.8507    4.3967966   -3343.9073    290.64199    252.05361   0.99434192       0.7925 
  416000    1483.3939   -4008.3191    2.7408107   -3391.2851    283.59994   -831.16387    0.9805095        0.792 
  417000    1486.9966   -4016.6737    7.6194948   -3355.1751    301.87555   -160.57398    1.0194611       0.7915 
  418000    1490.4231   -4023.2991    6.6972404   -3324.2361     319.6436   -880.59493    0.9922667        0.791 
  419000    1493.9318   -3926.4316    5.5132387   -3263.3051    303.59949    890.55388     1.004488       0.7905 
  420000    1497.4814   -3964.7305    5.2917494   -3341.4222    285.31889   -439.97114   0.96960709         0.79 
  421000    1500.6988   -3969.6554    4.8392745   -3319.3313    298.00012   -169.23227   0.95962844       0.7895 
  422000    1504.0949   -3984.3128    6.8551844   -3326.9812    300.30462    867.08252   0.98816035        0.789 
  423000    1507.8491   -4043.6443    5.5803137   -3385.7532    301.15153    464.91415   0.99418585       0.7885 
  424000    1511.6163   -3997.3435    4.8614837   -3379.0944     283.1819   -301.66655   0.98311053        0.788 
  425000    1515.3931    -3980.438    4.7924535   -3297.8156     312.9329    498.87615   0.98566417       0.7875 
[...]
 1847000    6688.5218   -3986.0164    7.1020082   -3310.0942    308.77337   -146.82041   0.96688001       0.0765 
 1848000    6692.2485   -4038.4706    6.9217138   -3392.1516     295.1897   -30.438412   0.98374242        0.076 
 1849000    6695.9667   -4012.1991    5.2128432   -3384.5855      287.343    309.01575   0.99878073       0.0755 
 1850000    6699.6548   -4035.2726    6.0741799   -3357.6834    310.01745   -1159.3705   0.97794682        0.075 
 1851000    6703.3224   -3979.6053    2.9623449   -3301.1146    311.87031    877.95571   0.97476182       0.0745 
 1852000    6707.0642   -3976.2178    7.1446567   -3312.8605    302.95285   -468.31426   0.97891396        0.074 
 1853000    6710.8311   -4014.7435    4.4623506   -3365.4307     297.7073    469.97685   0.99637326       0.0735 
 1854000    6714.6839   -3999.4754    4.3015488   -3305.1304    318.57149   -217.90029   0.98815423        0.073 
 1855000    6718.5162   -4007.7021    2.9867701   -3371.2738    292.44017   -674.14244   0.98613933       0.0725 
 1856000    6722.2523   -3986.3272    4.6877214   -3329.8987    300.88833    156.17853   0.96528621        0.072 
 1857000    6725.9209   -3975.9705    3.7887884   -3322.7754    299.81057   -870.94727   0.98949936       0.0715 
 1858000    6729.7653   -3995.7952    5.0174771   -3324.7118    307.50178    118.73064    0.9993843        0.071 
 1859000    6733.6571    -3983.389    3.6638415   -3367.2249     282.7722   -517.56419   0.97865147       0.0705 
 1860000    6737.4183   -3999.5421    6.3847179   -3312.4518     314.2605   -704.40245   0.98177029         0.07 
 1861000     6741.276   -4009.0406    3.3169376   -3387.6115    285.36309   -1089.6099   0.98364045       0.0695 
 1862000    6745.0688   -4017.1299    4.4532354   -3348.1431    306.79438   -95.974367   0.98596414        0.069 
 1863000    6748.8594   -4017.0043     3.304873   -3331.6498    314.88095    62.539328   0.99868817       0.0685 
 1864000    6752.6345   -4004.9696    6.6900737   -3360.7917    294.30819    1474.1624   0.97291199        0.068 
 1865000    6756.4407   -4046.8401    7.2449469   -3360.1596    313.67414   -99.653292   0.98622804       0.0675 
 1866000    6760.1815   -4010.1482    4.4291007   -3312.4104    320.07897     1589.244   0.99526884        0.067 
 1867000    6763.9392   -3968.4677    4.4083802   -3310.0481    301.93655   -826.13042   0.97137872       0.0665 
 1868000    6767.7239   -4020.5333    3.7204333   -3368.0577    299.50997    1055.3933   0.99991599        0.066 
 1869000    6771.5875   -4029.4988    3.2063934   -3354.5317     310.1309    1080.5571     1.020233       0.0655 
 1870000    6775.4051   -3960.4581    6.8025624   -3309.3838    297.44015    650.05738   0.98762985        0.065 
 1871000    6779.0762   -4017.2632    4.6711673   -3379.2938      292.374   -1176.5286   0.97291713       0.0645 
 1872000    6782.8881   -3912.7037    7.6861003   -3239.8779    307.07417    999.48331   0.99651371        0.064 
 1873000     6786.762   -3956.0192    4.2623795   -3322.2797    290.60994   -1305.8426   0.97606654       0.0635 
 1874000    6790.5848   -4002.2403     2.462751   -3307.0553    319.80821   -44.014357   0.99772184        0.063 
 1875000    6794.3522    -4031.964    7.7043155   -3404.7829    285.99306    215.63668    1.0048505       0.0625 
 1876000     6798.116   -4050.4513    7.5049106   -3366.6508    312.22456    134.36473   0.99301288        0.062 
 1877000    6801.8494   -3950.2909    6.0047859   -3289.3827    302.34842   -172.17284   0.97460349       0.0615 
 1878000    6805.5965   -3999.8206    5.5872774   -3330.9721    306.20698   -600.23514   0.99462994        0.061 
 1879000    6809.3529   -4025.0266    4.4754771   -3365.8716    302.24503    1231.2338    1.0057785       0.0605 
 1880000    6813.0571   -4005.0233    4.0230108   -3356.2143    297.67753   -1426.5533   0.97959594         0.06 
 1881000    6816.2039   -4009.9278    5.2025141   -3380.9101    287.99599     157.1109   0.99485528       0.0595 
 1882000    6819.9706   -3956.6275    5.6998295   -3279.1332    310.14649    850.52067   0.99675813        0.059 
 1883000    6823.7292   -4038.0132    5.3135338   -3398.1154    292.96772    -988.8239    0.9883105       0.0585 
 1884000    6827.5142   -4054.7601    5.4039139   -3371.8842    312.76765    937.35188   0.98872325        0.058 
 1885000    6831.3649   -4057.1382    3.5065643   -3406.8463     298.6006   -531.51898   0.98014096       0.0575 
 1886000    6835.1306   -3994.6221    4.3571505   -3345.8773    297.49362   -1005.6268    0.9769788        0.057 
 1887000    6838.8613    -4047.183    3.4643668   -3368.2826    311.82771     334.1366   0.99447983       0.0565 
 1888000    6842.5802   -4034.4364    5.9367182    -3371.617    303.26222   -276.32298   0.97315784        0.056 
 1889000    6846.3394   -4104.6972    5.5730758   -3447.0509    301.04179   -350.74595   0.96318153       0.0555 
 1890000    6850.0987   -3972.7656    4.8954012   -3270.8758    321.78054   -5.1549873   0.96009361        0.055 
 1891000    6853.9384   -3978.7174    3.6614468    -3335.976    295.04321    243.75733   0.97434075       0.0545 
 1892000    6857.7908   -4012.5202    2.7411631    -3345.253    306.79089   -284.56575   0.99359811        0.054 
 1893000    6861.5906   -4025.9964    6.0101823   -3379.0766     295.8879    938.11771    1.0135156       0.0535 
 1894000    6865.4163    -3980.553    5.8535799   -3340.1279    292.96182   -642.38993    0.9594402        0.053 
 1895000    6869.1658   -3985.8126    5.0421919   -3338.7486    296.40138   -658.72235   0.96190282       0.0525 
 1896000    6872.9197    -3961.995    6.3213748    -3321.489    292.78323    663.12948     0.983581        0.052 
 1897000    6876.7459   -3978.5838    4.1712619   -3340.7985    292.51976   -180.04199   0.97923728       0.0515 
 1898000    6880.4836   -3961.5897    7.5098162   -3320.3703    292.56392   -253.03953   0.96205868        0.051 
 1899000    6884.2399    -4006.505    5.4801666   -3321.1256    313.88821    37.722011   0.97880853       0.0505 
 1900000    6888.1529   -3963.0244    6.3639219   -3294.7708    305.57379    749.38841    0.9867594         0.05 
 1901000    6891.7279   -3993.2147    4.4563869    -3337.317    300.75009   -784.25621   0.98837286       0.0495 
 1902000    6895.2367   -4014.3976    3.1333239   -3355.0359    302.96016   -262.36473   0.99039913        0.049 
 1903000    6898.7948   -4050.0264    6.2500091   -3396.8075     298.6853    1388.6904    1.0154027       0.0485 
 1904000    6902.3714    -3993.318    7.3699684   -3317.7289    308.49587   -305.13926   0.99948807        0.048 
 1905000    6905.8687   -4006.6189    3.7017514   -3362.5501    295.63741    328.14978    1.0070835       0.0475 
 1906000    6909.4483   -4031.1799    5.3776957   -3374.2298    300.81059   -523.77793    1.0115251        0.047 
 1907000    6913.0535   -4035.6487    5.8641929   -3372.3091    303.53583    637.62651    0.9839119       0.0465 
 1908000    6916.4998   -3979.2634    5.0652398   -3358.6554    284.17683    349.70353   0.99413157        0.046 
 1909000    6919.7309   -4000.1098    4.7923165   -3374.4661     286.6277   -16.322713    1.0144464       0.0455 
 1910000    6921.9746   -3986.3737    2.9654824   -3366.4038    284.85166   -445.68244   0.98868261        0.045 
 1911000    6924.3286   -3996.0186    4.8091395    -3316.063    311.69399   -234.17745    1.0001104       0.0445 
 1912000    6927.6509   -3991.9534    5.7785214   -3348.5791    294.35806    456.65147    1.0043286        0.044 
 1913000    6931.0528   -3939.1384     4.781916   -3270.8245    306.33195    461.31227     0.989649       0.0435 
 1914000    6934.5016   -4015.2636    3.9621301   -3379.7594    291.56325    173.35693   0.97237898        0.043 
 1915000    6937.9333   -3998.4034    5.3209699    -3360.995    291.81497   -586.08107   0.97496315       0.0425 
 1916000    6941.3632   -3986.2838    3.6252371   -3340.6007    296.41803   -926.17896    0.9584383        0.042 
 1917000    6944.7803   -3981.4276    4.4465945   -3309.7374    308.04548   -549.89479    0.9665563       0.0415 
 1918000    6948.1324   -4006.7017    4.1740035   -3366.9859    293.40974   -1558.8449   0.95416904        0.041 
 1919000    6951.5156   -4022.6235    4.3340034   -3369.0228    299.74615    452.81058   0.99318259       0.0405 
 1920000    6954.9544   -4068.6402    3.8988308    -3427.053    294.40075   -357.55833   0.97227659         0.04 
 1921000    6958.6529   -3970.1633    5.5370568   -3279.9305     316.1026    1388.1158   0.98175877       0.0395 
 1922000    6962.3667   -4000.4461    3.4238957   -3350.2139    298.61116    57.583659   0.98454389        0.039 
 1923000    6965.9578   -3998.6853    2.3928746   -3342.0123    302.06065     819.5646   0.99292664       0.0385 
 1924000    6969.6935   -3963.8611    6.4558365   -3278.2256    313.55602   -625.67612   0.96625338        0.038 
 1925000    6973.4865   -3998.6788    6.1640146   -3331.8792    304.99478   -466.85983   0.99649588       0.0375 
 1926000    6977.3023   -4021.2099    2.7271189   -3331.2914    317.25479   -147.34682    0.9911142        0.037 
 1927000    6981.0526   -4024.9944    3.5588019   -3373.4619    299.14919    122.24178    0.9828034       0.0365 
 1928000    6984.8232   -4027.3633    4.9397417   -3396.1834    289.11547   -938.08208   0.96383315        0.036 
 1929000    6988.6818   -4067.6513     5.380712   -3372.8737    318.27302    665.81512   0.98375619       0.0355 
 1930000    6992.4825   -4000.2552    3.5177129   -3342.7314    301.93418   -454.34095    1.0021395        0.035 
 1931000    6996.2603   -3984.8444    5.6521073   -3315.6559    306.33398   -156.19655   0.99108341       0.0345 
 1932000    7000.0853   -3960.7004    4.8028031   -3300.7961    302.43987   -198.48513     1.002952        0.034 
 1933000    7003.8315   -3994.7462    7.2556352   -3325.3097    305.70821     231.4356    1.0023762       0.0335 
 1934000    7007.6547   -3987.4167    7.1379703   -3287.7762    319.70678    773.52026    1.0032267        0.033 
 1935000    7011.2711   -3978.4044    6.7191491   -3332.2617    295.20184    269.18553   0.99321282       0.0325 
 1936000    7015.0329   -4011.2616     6.578663   -3336.7613    308.35854   -1009.5497    1.0033862        0.032 
 1937000    7018.8442   -4023.7894    6.3035835   -3367.2451    300.19579   -631.13725    0.9853381       0.0315 
 1938000    7022.5036   -3949.9768    6.4185161   -3283.6468     304.6605   -673.61792   0.96416615        0.031 
 1939000     7026.327   -3971.0955     5.604106   -3341.5614    288.04901   -24.833409   0.97176509       0.0305 
 1940000    7030.0795    -3975.149    5.1147466   -3313.0656    303.30184   -247.19178   0.97404449         0.03 
 1941000    7033.6121   -4027.0232    3.4928811   -3378.8101    297.64714    810.55653      1.00783       0.0295 
 1942000    7035.9429   -4020.0284    7.0029358   -3357.4387     302.6639    1025.7234    1.0048237        0.029 
 1943000    7038.8041   -4026.3823    4.6512921   -3373.8991    299.08373    20.593196   0.99063508       0.0285 
 1944000    7042.2895   -3992.1751    3.5879127   -3340.3366    299.27703    -431.6112   0.97143646        0.028 
 1945000    7045.9791   -4038.9962    4.2335242   -3371.3288    306.28668    241.77172    1.0087933       0.0275 
 1946000    7049.5518   -4000.2209    5.3736425   -3357.5098    294.23878    454.72451    0.9921628        0.027 
 1947000    7052.3993   -4042.7584      9.09387   -3390.4149    296.96821    400.68027    1.0047491       0.0265 
 1948000    7055.4649   -3952.3387    8.6613233   -3278.2238     307.2191   -216.14594    0.9887651        0.026 
 1949000    7059.1051   -4001.0475    8.3698718   -3343.4657    299.72083    618.08735   0.98775042       0.0255 
 1950000    7062.8569   -3997.4581    5.7311213   -3361.4088    290.99815   -79.382024    0.9800669        0.025 
 1951000    7066.6096   -3948.0236    7.9225598   -3282.5613    303.56552    271.91676    0.9756055       0.0245 
 1952000    7070.2233   -4031.5116    4.3216568   -3355.8922    309.91716    46.498309   0.97905087        0.024 
 1953000    7073.9226   -4026.2398    6.4679379   -3389.5887    290.93586   -19.152915   0.98743249       0.0235 
 1954000    7076.7636   -4012.8941    7.3774236   -3327.1439    313.18349   -92.261493   0.97825341        0.023 
 1955000    7079.0925   -3970.8452    4.1981202   -3336.1292    291.09039   -417.36315   0.98761352       0.0225 
 1956000    7081.4078   -4017.6734    5.5606153    -3341.918    309.40799   -821.97122   0.96999872        0.022 
 1957000    7083.9675   -3956.9463    4.9526205    -3255.475    321.56088   -602.93924   0.98332528       0.0215 
 1958000    7086.2988   -4002.8218    3.7960885   -3362.6811    293.78041    483.62406   0.99409005        0.021 
 1959000    7088.6116   -3990.8373    3.8727956    -3321.537    307.20706   -1663.1605     1.005567       0.0205 
 1960000    7091.9316   -4008.4361    3.6978635   -3381.0049     287.9582    200.24669    1.0211806         0.02 
 1961000    7095.7191   -4017.8427    4.9301725   -3375.3546    294.34054   -1523.1415   0.99301701       0.0195 
 1962000    7099.5321   -4030.7126    4.6171245   -3351.1742    311.59004    654.97881   0.99974465        0.019 
 1963000    7103.3211   -3960.0192    6.1651359    -3318.592    293.28066   -1870.7115   0.98710125       0.0185 
 1964000     7107.053   -3994.4537    3.8978746   -3325.3146    307.12107    733.55244    1.0033694        0.018 
 1965000    7110.8442   -4011.9922    5.1586272   -3371.9257     293.1171    1232.5618    1.0151579       0.0175 
 1966000    7114.6108    -4039.768     2.902595   -3376.2695    304.97647   -103.26753   0.99213867        0.017 
 1967000    7118.3782   -3994.8538    10.931461   -3346.9408    294.07449    448.50855   0.98854848       0.0165 
 1968000    7122.0616   -4022.1349    6.7532361   -3353.4562    305.59027   -290.93064    1.0024454        0.016 
 1969000    7125.7904   -3965.0694    4.9331129   -3303.3247    303.22938   -437.60359   0.98763478       0.0155 
 1970000    7129.4903   -4031.7985    3.7227897   -3389.3803    294.86573    1174.0309    1.0057574        0.015 
 1971000    7133.2395   -3971.6055    7.4958914   -3346.8091    284.98833    783.67769    1.0031938       0.0145 
 1972000     7137.024   -3998.9839    6.3339674    -3340.104    301.26005    141.76492    1.0067797        0.014 
 1973000     7140.744   -4026.8835    4.6814846   -3405.3339    284.78869   -286.03085   0.98484152       0.0135 
 1974000    7144.4712   -4010.2493     4.202446   -3337.3852    308.70015   -640.54428   0.98076964        0.013 
 1975000    7148.2725   -4012.0634     6.973561   -3357.0043     299.2008    1314.6211    1.0226074       0.0125 
 1976000    7152.0811   -4016.7277    5.2282066   -3337.5294    311.15094   -469.17172    0.9889535        0.012 
 1977000    7155.9609   -3986.3936     6.206858   -3321.1877    304.23925    260.39339   0.99632038       0.0115 
 1978000    7159.7329   -3970.1758    5.0332181   -3270.1684    320.84787    77.276922   0.99428281        0.011 
 1979000    7163.4617   -4022.3208    7.2301956   -3359.8293    302.51367    1084.4417    1.0077563       0.0105 
 1980000    7167.2351   -4034.1558    4.6985175   -3359.1777    309.44711   -196.66321    1.0036778         0.01 
 1981000    7170.5274   -4055.6448    7.3968622   -3409.8283    294.73839    1358.0675    1.0221104       0.0095 
 1982000    7172.8602   -3999.0441    6.4455169   -3335.3566    303.42805    448.29425   0.99095362        0.009 
 1983000    7176.4954   -4038.6436    5.9277595    -3400.676      291.793   -1402.0315   0.98025159       0.0085 
 1984000    7180.2903   -4054.0904    8.0853945   -3437.5216    280.91778   -1214.9633   0.98589835        0.008 
 1985000     7183.983   -4003.3987    5.9630175   -3344.4538     301.4613    155.49434   0.98020891       0.0075 
 1986000    7187.7402   -4041.4975    9.5056503   -3385.4137    298.50494    426.60378   0.99304251        0.007 
 1987000    7191.4561    -4016.229    7.3091553   -3354.9812    301.90303    -179.3926   0.98598695       0.0065 
 1988000    7195.1064   -3988.0399    4.7638465   -3318.8023    306.76674     125.7244    1.0012801        0.006 
 1989000    7198.9081   -4005.9768    6.2087747   -3360.9281    294.93239     1996.067    1.0027823       0.0055 
 1990000    7202.7878   -4011.0469    8.9835278   -3331.0508     309.7855   -972.18996   0.98991719        0.005 
 1991000    7206.5063   -3998.7203    4.6500638   -3352.2246     296.3201    9.4277522    0.9933778       0.0045 
 1992000    7210.2449   -4041.8832    6.6023085    -3409.058    289.10755    1218.4623    1.0001591        0.004 
 1993000    7213.9565   -4009.3898    7.3697024   -3327.6271    311.34618    267.47949   0.99672057       0.0035 
 1994000    7217.7446   -3955.4756    5.5263005   -3264.9614    316.23746    -86.19502   0.95596396        0.003 
 1995000    7221.4697   -3995.2363     5.124618   -3362.0621    289.95083    402.57979   0.97545872       0.0025 
 1996000    7224.5415   -3953.2279    6.6119006   -3301.9958    297.60099    405.73579   0.96939366        0.002 
 1997000     7228.231   -4013.2662    4.4536363   -3358.6664    300.15214    348.84824   0.97989257       0.0015 
 1998000     7232.026   -4012.6354    5.3316746   -3380.3827    289.42982   -939.14924   0.99583563        0.001 
 1999000    7235.8583   -3986.5517    6.6958236   -3332.7588    298.74448    120.77807     0.981749       0.0005 
 2000000    7239.6613   -4063.1928    3.3143919   -3404.9216    302.37304      198.559   0.99327378            0 
Loop time of 7239.66 on 12 procs for 2000000 steps with 1090 atoms

Performance: 23.869 ns/day, 1.006 hours/ns, 276.256 timesteps/s
93.3% CPU use with 12 MPI tasks x 1 OpenMP threads

MPI task timing breakdown:
Section |  min time  |  avg time  |  max time  |%varavg| %total
---------------------------------------------------------------
Pair    | 2736.2     | 2990.7     | 3218.1     | 240.2 | 41.31
Bond    | 3.5925     | 5.7826     | 8.1799     |  59.3 |  0.08
Kspace  | 1884.3     | 2117       | 2375       | 290.0 | 29.24
Neigh   | 216.88     | 217.4      | 217.79     |   2.2 |  3.00
Comm    | 567.48     | 635.12     | 734.17     | 262.4 |  8.77
Output  | 0.18475    | 0.18876    | 0.22699    |   2.7 |  0.00
Modify  | 761.29     | 1047.9     | 1211.4     | 573.2 | 14.47
Other   |            | 225.6      |            |       |  3.12

Nlocal:        90.8333 ave          98 max          78 min
Histogram: 1 0 0 0 1 3 2 0 3 2
Nghost:        3797.08 ave        3883 max        3731 min
Histogram: 3 1 0 2 0 2 1 1 1 1
Neighs:        32438.1 ave       35537 max       27061 min
Histogram: 1 0 0 0 2 1 2 4 0 2

Total # of neighbors = 389257
Ave neighs/atom = 357.11651
Ave special neighs/atom = 2.0587156
Neighbor list builds = 84242
Dangerous builds = 0

write_data data.*.lmp
System init for write_data ...
PPPM initialization ...
  using 12-bit tables for long-range coulomb (src/lammps/src/kspace.cpp:339)
  G vector (1/distance) = 0.30758646
  grid = 20 20 20
  stencil order = 5
  estimated absolute RMS force accuracy = 0.002595432
  estimated relative force accuracy = 7.8160663e-06
  using double precision FFTW3
  3d grid and FFT values/proc = 4046 800
Neighbor list info ...
  update every 1 steps, delay 10 steps, check yes
  max neighbors/atom: 2000, page size: 100000
  master list distance cutoff = 12
  ghost atom cutoff = 12
  binsize = 6, bins = 4 4 4
  3 neighbor lists, perpetual/occasional/extra = 3 0 0
  (1) pair lj/cut/coul/long, perpetual, skip from (3)
      attributes: half, newton on
      pair build: skip
      stencil: none
      bin: none
  (2) pair lj/cut/coul/long/soft, perpetual, skip from (3)
      attributes: half, newton on
      pair build: skip
      stencil: none
      bin: none
  (3) neighbor class addition, perpetual
      attributes: half, newton on
      pair build: half/bin/newton
      stencil: half/bin/3d/newton
      bin: standard
Total wall time: 2:13:48
