print           "This is replica: ${rep}"
This is replica: 2

read_data       ${rep}/lj.data
read_data       2/lj.data
  orthogonal box = (1.25535 1.25535 1.25535) to (23.7446 23.7446 23.7446)
  1 by 1 by 1 MPI processor grid
  reading atoms ...
  500 atoms
  reading velocities ...
  500 velocities
  0 = max # of 1-2 neighbors
  0 = max # of 1-3 neighbors
  0 = max # of 1-4 neighbors
  1 = max # of special neighbors

#dump            dump all xyz 1000 ${rep}/dump.xyz

thermo          100
thermo_style    custom step temp pe etotal press vol
timestep        1.0

fix             fxnpt all npt temp ${T0} ${T0} 1000.0 iso ${press} ${press} 10000.0
fix             fxnpt all npt temp 300 ${T0} 1000.0 iso ${press} ${press} 10000.0
fix             fxnpt all npt temp 300 300 1000.0 iso ${press} ${press} 10000.0
fix             fxnpt all npt temp 300 300 1000.0 iso 0 ${press} 10000.0
fix             fxnpt all npt temp 300 300 1000.0 iso 0 0 10000.0
fix             fxgREM all grem ${lambda} -.03 -30000 fxnpt
fix             fxgREM all grem 920 -.03 -30000 fxnpt
thermo_modify   press fxgREM_press

temper/grem     10000 100 ${lambda} fxgREM fxnpt 10294 98392 #${walker}
temper/grem     10000 100 920 fxgREM fxnpt 10294 98392 
Neighbor list info ...
  1 neighbor list requests
  update every 1 steps, delay 10 steps, check yes
  max neighbors/atom: 2000, page size: 100000
  master list distance cutoff = 7
  ghost atom cutoff = 7
  binsize = 3.5 -> bins = 7 7 7
Memory usage per processor = 5.3797 Mbytes
Step Temp PotEng TotEng Press Volume 
       0     303.5147   -3379.1918   -2927.7367    939.06157    11374.376 
     100    318.12855   -3389.1972   -2916.0051    732.24211    11375.313 
     200    300.55209   -3378.8051   -2931.7566    879.17024    11377.778 
     300    303.98225   -3382.1398   -2929.9893    688.68264    11381.592 
     400    315.07191   -3384.8092   -2916.1636    538.20119    11386.698 
     500    309.36576   -3382.7455   -2922.5874    478.65718    11393.035 
     600    310.56557   -3382.7619   -2920.8192    337.42905    11400.274 
     700    304.59438   -3382.4412   -2929.3802    343.41809    11408.201 
     800    307.37357    -3384.554   -2927.3591    165.57164    11416.925 
     900    316.86746   -3390.4013    -2919.085   -181.01119    11426.176 
    1000    299.18538   -3381.9504   -2936.9349   -39.701634     11435.48 
    1100    300.12698   -3382.5392   -2936.1231   -186.50374    11444.773 
    1200    296.14975   -3382.3095   -2941.8092   -328.47519    11453.747 
    1300    290.48513   -3379.3388   -2947.2642   -379.01155    11462.196 
    1400    307.12598   -3390.0083   -2933.1817   -784.07577     11469.94 
    1500    292.27399    -3382.948   -2948.2126   -757.50578     11476.37 
    1600     298.4373   -3386.9034   -2943.0005   -916.53485    11481.206 
    1700    284.99283   -3380.9051   -2956.9999   -761.53168    11484.379 
    1800    296.30929   -3387.9389   -2947.2013   -939.04947    11486.001 
    1900    274.95571   -3376.1525   -2967.1767   -557.57811     11485.93 
    2000     286.6494   -3387.2487   -2960.8795   -874.00502    11484.534 
    2100    301.45624   -3391.8264   -2943.4331   -1081.5931     11481.54 
    2200    294.31641   -3388.9801   -2951.2068   -874.50856    11476.941 
    2300    308.19066   -3397.6354   -2939.2252    -1180.813     11470.81 
    2400    294.64485   -3394.5337   -2956.2718   -968.71497    11462.705 
    2500    298.56162   -3398.2204   -2954.1326    -933.7456    11452.815 
    2600    294.06753   -3394.6475   -2957.2443   -699.18137    11441.168 
    2700    293.43299   -3392.0706   -2955.6113   -469.64296    11428.099 
    2800    294.09756   -3396.3977   -2958.9499    -245.0764     11414.04 
    2900    299.63675   -3400.8857   -2955.1988   -183.76834    11399.474 
    3000    289.06398   -3398.5529   -2968.5921    99.751425    11384.569 
    3100    307.44213   -3408.7747   -2951.4778   -8.3031637    11369.696 
    3200    302.98498   -3406.3856   -2955.7184    182.98744    11355.058 
    3300     291.9362   -3402.8973   -2968.6643    497.72457    11340.867 
    3400    295.54663   -3410.1026   -2970.4993    587.20344    11327.555 
    3500    304.27556   -3418.4127   -2965.8259    574.20245    11315.364 
    3600    303.72416    -3418.133   -2966.3663    573.08992    11304.186 
    3700    309.84914   -3426.5382   -2965.6611    418.30717    11294.016 
    3800    317.00037   -3430.4681   -2958.9541    467.30843    11284.802 
    3900    297.49383   -3424.0999   -2981.6004    779.41312    11276.818 
    4000    299.31354   -3421.8877   -2976.6815    903.93135    11270.237 
    4100    294.42695   -3423.8465   -2985.9087    1006.7998    11265.197 
    4200    300.01777   -3428.3819   -2982.1283    922.16275    11261.965 
    4300    292.77221   -3426.1312   -2990.6547    959.47941    11260.451 
    4400    300.87895   -3431.0308   -2983.4961    790.75992    11260.593 
    4500    290.78158   -3422.5048   -2989.9892    1001.9136    11262.315 
    4600    297.70252    -3430.615   -2987.8051    741.34784    11265.627 
    4700     303.5284   -3430.3888   -2978.9133    665.85341     11270.32 
    4800    291.67229   -3426.7342   -2992.8938    674.67006    11276.471 
    4900    297.00112   -3426.7467     -2984.98    532.96983    11283.928 
    5000    301.01123   -3430.4774    -2982.746    304.12386    11292.466 
    5100    302.29794   -3430.5071   -2980.8618      154.274    11301.776 
    5200    298.81333   -3428.9592    -2984.497    71.617996    11311.612 
    5300    287.74054   -3421.9947   -2994.0024    126.94546    11321.814 
    5400     299.8741   -3430.5222   -2984.4822   -283.50833    11332.317 
    5500    285.30311   -3421.1025   -2996.7357   -152.79946    11342.614 
    5600     293.4497   -3423.1142     -2986.63   -384.69324    11352.571 
    5700    292.90437   -3421.8788   -2986.2057   -385.78559    11361.964 
    5800    295.75086   -3421.8274   -2981.9204    -538.6221    11370.715 
    5900    285.54471   -3417.8008   -2993.0746    -584.6133    11378.554 
    6000    279.42138   -3415.0373   -2999.4192   -496.44729    11385.309 
    6100    292.98635   -3420.2915   -2984.4965    -807.7782    11390.881 
    6200    285.18497   -3413.9471   -2989.7561   -720.47221     11394.96 
    6300    296.76693   -3419.0502   -2977.6318   -883.05972    11397.626 
    6400    288.53322   -3415.8922   -2986.7209   -743.81572    11398.671 
    6500    301.89212   -3418.3134   -2969.2718   -760.06071    11398.197 
    6600    295.43874    -3414.401   -2974.9583   -595.49387    11396.453 
    6700    307.77134   -3414.4111   -2956.6245   -619.65168    11393.607 
    6800    307.77881    -3415.132   -2957.3343   -598.73379    11389.666 
    6900    299.95571   -3411.6113   -2965.4499   -414.64515    11384.775 
    7000    310.48581   -3418.9557   -2957.1316    -554.8734    11379.061 
    7100    297.78265   -3411.5928   -2968.6637   -204.17877    11372.511 
    7200    308.16321   -3414.8796   -2956.5102   -168.32518    11365.403 
    7300    305.49867   -3410.8638   -2956.4577   -63.088242    11357.993 
    7400    302.44796   -3410.8142   -2960.9458    62.696434    11350.522 
    7500    312.15684   -3419.0214   -2954.7118    27.395999    11343.127 
    7600    307.34561   -3414.5741   -2957.4208    257.94209    11335.847 
    7700    304.79016    -3411.896   -2958.5437    470.94979    11328.999 
    7800    311.79257   -3417.7252   -2953.9574    385.82094    11322.846 
    7900    316.24138   -3419.8749   -2949.4899    332.38484    11317.485 
    8000    315.73781   -3421.0721    -2951.436    300.24782    11312.939 
    8100    303.38025   -3416.1142   -2964.8591    623.97214    11309.099 
    8200    313.53945   -3418.4381    -2952.072    462.62665    11306.275 
    8300    312.90183   -3417.7579   -2952.3402    535.34718    11304.458 
    8400    302.89319   -3412.1607     -2961.63    754.08676    11303.725 
    8500    321.89652    -3422.325   -2943.5284    382.37676    11304.219 
    8600    308.02194   -3419.4464   -2961.2871    471.90335     11305.76 
    8700    310.12893   -3419.2625   -2957.9692    389.78683     11308.17 
    8800    306.85617   -3418.0084   -2961.5831    425.37989    11311.375 
    8900    287.92832   -3407.5424   -2979.2708    659.46236    11315.622 
    9000    278.06342   -3403.7402    -2990.142    757.54946    11321.103 
    9100    290.97422   -3412.7395   -2979.9374    406.79415    11327.735 
    9200    285.14294   -3408.7977   -2984.6692    329.51839    11335.252 
    9300    280.67249   -3406.8005   -2989.3214    234.83036     11343.32 
    9400    289.42707   -3416.0941   -2985.5933   -28.179186    11351.699 
    9500    285.62232   -3407.4208   -2982.5793    10.204022    11360.293 
    9600    285.51121   -3409.1935   -2984.5173   -102.42078    11368.884 
    9700    280.01648    -3404.052   -2987.5487   -91.259523    11377.233 
    9800    289.42587   -3410.2875   -2979.7884   -383.72706    11385.424 
    9900    291.01583   -3408.3435   -2975.4795   -514.96551    11393.129 
   10000    290.66211   -3409.5137   -2977.1759   -667.48493    11399.792 
Loop time of 3.25989 on 1 procs for 10000 steps with 500 atoms

Performance: 265.040 ns/day, 0.091 hours/ns, 3067.591 timesteps/s
99.9% CPU use with 1 MPI tasks x no OpenMP threads

MPI task timing breakdown:
Section |  min time  |  avg time  |  max time  |%varavg| %total
---------------------------------------------------------------
Pair    | 2.5437     | 2.5437     | 2.5437     |   0.0 | 78.03
Bond    | 0.00067735 | 0.00067735 | 0.00067735 |   0.0 |  0.02
Neigh   | 0.017251   | 0.017251   | 0.017251   |   0.0 |  0.53
Comm    | 0.08847    | 0.08847    | 0.08847    |   0.0 |  2.71
Output  | 0.0010381  | 0.0010381  | 0.0010381  |   0.0 |  0.03
Modify  | 0.33628    | 0.33628    | 0.33628    |   0.0 | 10.32
Other   |            | 0.2725     |            |       |  8.36

Nlocal:    500 ave 500 max 500 min
Histogram: 1 0 0 0 0 0 0 0 0 0
Nghost:    1633 ave 1633 max 1633 min
Histogram: 1 0 0 0 0 0 0 0 0 0
Neighs:    14978 ave 14978 max 14978 min
Histogram: 1 0 0 0 0 0 0 0 0 0

Total # of neighbors = 14978
Ave neighs/atom = 29.956
Ave special neighs/atom = 0
Neighbor list builds = 18
Dangerous builds = 0

#write_data      ${rep}/lj-out.data
Total wall time: 0:00:03
