LAMMPS data file from VASP file VASP/POSCAR_bcc_222

18 atoms
1 atom types
0.0 8.95312087837 xlo xhi
0.0 3.87681506191 ylo yhi
0.0 45.5341592449 zlo zhi
2.23828021959 0.0 0.0 xy xz yz

Atoms

1 1 0.0000000000000000 0.0000000000000000 15.0000000000000000
2 1 6.7148406587778462 1.2922716873036106 15.9137740732277653
3 1 4.4765604391852314 2.5845433746072226 16.8275481464555305
4 1 11.1914010979630767 3.8768150619108330 17.7413222196832976
5 1 6.7148406587778471 1.2922716873036111 18.6550962929110611
6 1 4.4765604391852305 2.5845433746072222 19.5688703661388281
7 1 2.2382802195926152 3.8768150619108330 20.4826444393665916
8 1 6.7148406587778453 1.2922716873036111 21.3964185125943587
9 1 4.4765604391852305 2.5845433746072222 22.3101925858221222
10 1 2.2382802195926148 3.8768150619108321 23.2239666590498928
11 1 6.7148406587778453 1.2922716873036102 24.1377407322776563
12 1 4.4765604391852305 2.5845433746072195 25.0515148055054233
13 1 2.2382802195926148 3.8768150619108321 25.9652888787331833
14 1 6.7148406587778444 1.2922716873036084 26.8790629519609539
15 1 4.4765604391852314 2.5845433746072204 27.7928370251887173
16 1 2.2382802195926139 3.8768150619108304 28.7066110984164808
17 1 6.7148406587778453 1.2922716873036102 29.6203851716442479
18 1 4.4765604391852269 2.5845433746072204 30.5341592448720149
