LAMMPS data file from VASP file VASP/POSCAR_fcc_001

18 atoms
1 atom types
0.0 2.23828021959 xlo xhi
0.0 2.23828021959 ylo yhi
0.0 56.905953065 zlo zhi

Atoms

1 1 0.0000000000000000 0.0000000000000000 15.0000000000000000
2 1 1.1191401097963076 1.1191401097963076 16.5827031214696525
3 1 0.0000000000000000 0.0000000000000000 18.1654062429393051
4 1 1.1191401097963076 1.1191401097963076 19.7481093644089611
5 1 0.0000000000000000 0.0000000000000000 21.3308124858786137
6 1 1.1191401097963076 1.1191401097963076 22.9135156073482662
7 1 0.0000000000000000 0.0000000000000000 24.4962187288179187
8 1 1.1191401097963076 1.1191401097963076 26.0789218502875713
9 1 0.0000000000000000 0.0000000000000000 27.6616249717572273
10 1 1.1191401097963076 1.1191401097963076 29.2443280932268763
11 1 0.0000000000000000 0.0000000000000000 30.8270312146965324
12 1 1.1191401097963076 1.1191401097963076 32.4097343361661814
13 1 0.0000000000000000 0.0000000000000000 33.9924374576358375
14 1 1.1191401097963076 1.1191401097963076 35.5751405791054935
15 1 0.0000000000000000 0.0000000000000000 37.1578437005751425
16 1 1.1191401097963076 1.1191401097963076 38.7405468220447986
17 1 0.0000000000000000 0.0000000000000000 40.3232499435144547
18 1 1.1191401097963076 1.1191401097963076 41.9059530649841037
