LAMMPS data file from VASP file VASP/POSCAR_diamond

4 atoms
1 atom types
0.0 2.82005636423 xlo xhi
0.0 2.82005636423 ylo yhi
0.0 3.98816195695 zlo zhi

Atoms

1 1 0.0000000000000000 0.0000000000000000 0.0000000000000000
2 1 1.4100281821140275 0.0000000000000000 0.9970404892369691
3 1 1.4100281821140275 1.4100281821140275 1.9940809784739382
4 1 0.0000000000000000 1.4100281821140275 2.9911214677109070
