LAMMPS data file from VASP file VASP/POSCAR_sc_001

9 atoms
1 atom types
0.0 2.51238459997 xlo xhi
0.0 2.51238459997 ylo yhi
0.0 50.0990767998 zlo zhi

Atoms

1 1 0.0000000000000000 0.0000000000000000 15.0000000000000018
2 1 0.0000000000000000 0.0000000000000000 17.5123845999742827
3 1 0.0000000000000000 0.0000000000000000 20.0247691999485617
4 1 0.0000000000000000 0.0000000000000000 22.5371537999228408
5 1 0.0000000000000000 0.0000000000000000 25.0495383998971235
6 1 0.0000000000000000 0.0000000000000000 27.5619229998714061
7 1 0.0000000000000000 0.0000000000000000 30.0743075998456817
8 1 0.0000000000000000 0.0000000000000000 32.5866921998199643
9 1 0.0000000000000000 0.0000000000000000 35.0990767997942470
