LAMMPS data file: two oppositely charged ions confined between two walls epsilon1=2 | epsilon2=10 | epsilon1=2

4002 atoms
3 atom types

0.0000000000000000e+00 4.0000006274935302e+01 xlo xhi
0.0000000000000000e+00 4.3301276792816687e+01 ylo yhi
0.0000000000000000e+00 4.0000000000000000e+01 zlo zhi

Masses

1 1
2 1
3 1

Atoms # dielectric : id mol type q x y z normx normy normz area_per_patch ed em epsilon curvature

1 0 1 0 0 0 9.99798  0 0 1 0.866 8 6 6 0
2 0 1 0 0.500101 0.866201 9.99798  0 0 1 0.866 8 6 6 0
3 0 1 0 1.0002 0 9.99798  0 0 1 0.866 8 6 6 0
4 0 1 0 1.5003 0.866201 9.99798  0 0 1 0.866 8 6 6 0
5 0 1 0 2.0004 0 9.99798  0 0 1 0.866 8 6 6 0
6 0 1 0 2.50051 0.866201 9.99798  0 0 1 0.866 8 6 6 0
7 0 1 0 3.00061 0 9.99798  0 0 1 0.866 8 6 6 0
8 0 1 0 3.50071 0.866201 9.99798  0 0 1 0.866 8 6 6 0
9 0 1 0 4.00081 0 9.99798  0 0 1 0.866 8 6 6 0
10 0 1 0 4.50091 0.866201 9.99798  0 0 1 0.866 8 6 6 0
11 0 1 0 5.00101 0 9.99798  0 0 1 0.866 8 6 6 0
12 0 1 0 5.50111 0.866201 9.99798  0 0 1 0.866 8 6 6 0
13 0 1 0 6.00121 0 9.99798  0 0 1 0.866 8 6 6 0
14 0 1 0 6.50132 0.866201 9.99798  0 0 1 0.866 8 6 6 0
15 0 1 0 7.00142 0 9.99798  0 0 1 0.866 8 6 6 0
16 0 1 0 7.50152 0.866201 9.99798  0 0 1 0.866 8 6 6 0
17 0 1 0 8.00162 0 9.99798  0 0 1 0.866 8 6 6 0
18 0 1 0 8.50172 0.866201 9.99798  0 0 1 0.866 8 6 6 0
19 0 1 0 9.00182 0 9.99798  0 0 1 0.866 8 6 6 0
20 0 1 0 9.50192 0.866201 9.99798  0 0 1 0.866 8 6 6 0
21 0 1 0 10.002 0 9.99798  0 0 1 0.866 8 6 6 0
22 0 1 0 10.5021 0.866201 9.99798  0 0 1 0.866 8 6 6 0
23 0 1 0 11.0022 0 9.99798  0 0 1 0.866 8 6 6 0
24 0 1 0 11.5023 0.866201 9.99798  0 0 1 0.866 8 6 6 0
25 0 1 0 12.0024 0 9.99798  0 0 1 0.866 8 6 6 0
26 0 1 0 12.5025 0.866201 9.99798  0 0 1 0.866 8 6 6 0
27 0 1 0 13.0026 0 9.99798  0 0 1 0.866 8 6 6 0
28 0 1 0 13.5027 0.866201 9.99798  0 0 1 0.866 8 6 6 0
29 0 1 0 14.0028 0 9.99798  0 0 1 0.866 8 6 6 0
30 0 1 0 14.5029 0.866201 9.99798  0 0 1 0.866 8 6 6 0
31 0 1 0 15.003 0 9.99798  0 0 1 0.866 8 6 6 0
32 0 1 0 15.5031 0.866201 9.99798  0 0 1 0.866 8 6 6 0
33 0 1 0 16.0032 0 9.99798  0 0 1 0.866 8 6 6 0
34 0 1 0 16.5033 0.866201 9.99798  0 0 1 0.866 8 6 6 0
35 0 1 0 17.0034 0 9.99798  0 0 1 0.866 8 6 6 0
36 0 1 0 17.5035 0.866201 9.99798  0 0 1 0.866 8 6 6 0
37 0 1 0 18.0036 0 9.99798  0 0 1 0.866 8 6 6 0
38 0 1 0 18.5037 0.866201 9.99798  0 0 1 0.866 8 6 6 0
39 0 1 0 19.0038 0 9.99798  0 0 1 0.866 8 6 6 0
40 0 1 0 19.5039 0.866201 9.99798  0 0 1 0.866 8 6 6 0
41 0 1 0 20.004 0 9.99798  0 0 1 0.866 8 6 6 0
42 0 1 0 20.5041 0.866201 9.99798  0 0 1 0.866 8 6 6 0
43 0 1 0 21.0042 0 9.99798  0 0 1 0.866 8 6 6 0
44 0 1 0 21.5043 0.866201 9.99798  0 0 1 0.866 8 6 6 0
45 0 1 0 22.0045 0 9.99798  0 0 1 0.866 8 6 6 0
46 0 1 0 22.5046 0.866201 9.99798  0 0 1 0.866 8 6 6 0
47 0 1 0 23.0047 0 9.99798  0 0 1 0.866 8 6 6 0
48 0 1 0 23.5048 0.866201 9.99798  0 0 1 0.866 8 6 6 0
49 0 1 0 24.0049 0 9.99798  0 0 1 0.866 8 6 6 0
50 0 1 0 24.505 0.866201 9.99798  0 0 1 0.866 8 6 6 0
51 0 1 0 25.0051 0 9.99798  0 0 1 0.866 8 6 6 0
52 0 1 0 25.5052 0.866201 9.99798  0 0 1 0.866 8 6 6 0
53 0 1 0 26.0053 0 9.99798  0 0 1 0.866 8 6 6 0
54 0 1 0 26.5054 0.866201 9.99798  0 0 1 0.866 8 6 6 0
55 0 1 0 27.0055 0 9.99798  0 0 1 0.866 8 6 6 0
56 0 1 0 27.5056 0.866201 9.99798  0 0 1 0.866 8 6 6 0
57 0 1 0 28.0057 0 9.99798  0 0 1 0.866 8 6 6 0
58 0 1 0 28.5058 0.866201 9.99798  0 0 1 0.866 8 6 6 0
59 0 1 0 29.0059 0 9.99798  0 0 1 0.866 8 6 6 0
60 0 1 0 29.506 0.866201 9.99798  0 0 1 0.866 8 6 6 0
61 0 1 0 30.0061 0 9.99798  0 0 1 0.866 8 6 6 0
62 0 1 0 30.5062 0.866201 9.99798  0 0 1 0.866 8 6 6 0
63 0 1 0 31.0063 0 9.99798  0 0 1 0.866 8 6 6 0
64 0 1 0 31.5064 0.866201 9.99798  0 0 1 0.866 8 6 6 0
65 0 1 0 32.0065 0 9.99798  0 0 1 0.866 8 6 6 0
66 0 1 0 32.5066 0.866201 9.99798  0 0 1 0.866 8 6 6 0
67 0 1 0 33.0067 0 9.99798  0 0 1 0.866 8 6 6 0
68 0 1 0 33.5068 0.866201 9.99798  0 0 1 0.866 8 6 6 0
69 0 1 0 34.0069 0 9.99798  0 0 1 0.866 8 6 6 0
70 0 1 0 34.507 0.866201 9.99798  0 0 1 0.866 8 6 6 0
71 0 1 0 35.0071 0 9.99798  0 0 1 0.866 8 6 6 0
72 0 1 0 35.5072 0.866201 9.99798  0 0 1 0.866 8 6 6 0
73 0 1 0 36.0073 0 9.99798  0 0 1 0.866 8 6 6 0
74 0 1 0 36.5074 0.866201 9.99798  0 0 1 0.866 8 6 6 0
75 0 1 0 37.0075 0 9.99798  0 0 1 0.866 8 6 6 0
76 0 1 0 37.5076 0.866201 9.99798  0 0 1 0.866 8 6 6 0
77 0 1 0 38.0077 0 9.99798  0 0 1 0.866 8 6 6 0
78 0 1 0 38.5078 0.866201 9.99798  0 0 1 0.866 8 6 6 0
79 0 1 0 39.0079 0 9.99798  0 0 1 0.866 8 6 6 0
80 0 1 0 39.508 0.866201 9.99798  0 0 1 0.866 8 6 6 0
81 0 1 0 0 1.7324 9.99798  0 0 1 0.866 8 6 6 0
82 0 1 0 0.500101 2.5986 9.99798  0 0 1 0.866 8 6 6 0
83 0 1 0 1.0002 1.7324 9.99798  0 0 1 0.866 8 6 6 0
84 0 1 0 1.5003 2.5986 9.99798  0 0 1 0.866 8 6 6 0
85 0 1 0 2.0004 1.7324 9.99798  0 0 1 0.866 8 6 6 0
86 0 1 0 2.50051 2.5986 9.99798  0 0 1 0.866 8 6 6 0
87 0 1 0 3.00061 1.7324 9.99798  0 0 1 0.866 8 6 6 0
88 0 1 0 3.50071 2.5986 9.99798  0 0 1 0.866 8 6 6 0
89 0 1 0 4.00081 1.7324 9.99798  0 0 1 0.866 8 6 6 0
90 0 1 0 4.50091 2.5986 9.99798  0 0 1 0.866 8 6 6 0
91 0 1 0 5.00101 1.7324 9.99798  0 0 1 0.866 8 6 6 0
92 0 1 0 5.50111 2.5986 9.99798  0 0 1 0.866 8 6 6 0
93 0 1 0 6.00121 1.7324 9.99798  0 0 1 0.866 8 6 6 0
94 0 1 0 6.50132 2.5986 9.99798  0 0 1 0.866 8 6 6 0
95 0 1 0 7.00142 1.7324 9.99798  0 0 1 0.866 8 6 6 0
96 0 1 0 7.50152 2.5986 9.99798  0 0 1 0.866 8 6 6 0
97 0 1 0 8.00162 1.7324 9.99798  0 0 1 0.866 8 6 6 0
98 0 1 0 8.50172 2.5986 9.99798  0 0 1 0.866 8 6 6 0
99 0 1 0 9.00182 1.7324 9.99798  0 0 1 0.866 8 6 6 0
100 0 1 0 9.50192 2.5986 9.99798  0 0 1 0.866 8 6 6 0
101 0 1 0 10.002 1.7324 9.99798  0 0 1 0.866 8 6 6 0
102 0 1 0 10.5021 2.5986 9.99798  0 0 1 0.866 8 6 6 0
103 0 1 0 11.0022 1.7324 9.99798  0 0 1 0.866 8 6 6 0
104 0 1 0 11.5023 2.5986 9.99798  0 0 1 0.866 8 6 6 0
105 0 1 0 12.0024 1.7324 9.99798  0 0 1 0.866 8 6 6 0
106 0 1 0 12.5025 2.5986 9.99798  0 0 1 0.866 8 6 6 0
107 0 1 0 13.0026 1.7324 9.99798  0 0 1 0.866 8 6 6 0
108 0 1 0 13.5027 2.5986 9.99798  0 0 1 0.866 8 6 6 0
109 0 1 0 14.0028 1.7324 9.99798  0 0 1 0.866 8 6 6 0
110 0 1 0 14.5029 2.5986 9.99798  0 0 1 0.866 8 6 6 0
111 0 1 0 15.003 1.7324 9.99798  0 0 1 0.866 8 6 6 0
112 0 1 0 15.5031 2.5986 9.99798  0 0 1 0.866 8 6 6 0
113 0 1 0 16.0032 1.7324 9.99798  0 0 1 0.866 8 6 6 0
114 0 1 0 16.5033 2.5986 9.99798  0 0 1 0.866 8 6 6 0
115 0 1 0 17.0034 1.7324 9.99798  0 0 1 0.866 8 6 6 0
116 0 1 0 17.5035 2.5986 9.99798  0 0 1 0.866 8 6 6 0
117 0 1 0 18.0036 1.7324 9.99798  0 0 1 0.866 8 6 6 0
118 0 1 0 18.5037 2.5986 9.99798  0 0 1 0.866 8 6 6 0
119 0 1 0 19.0038 1.7324 9.99798  0 0 1 0.866 8 6 6 0
120 0 1 0 19.5039 2.5986 9.99798  0 0 1 0.866 8 6 6 0
121 0 1 0 20.004 1.7324 9.99798  0 0 1 0.866 8 6 6 0
122 0 1 0 20.5041 2.5986 9.99798  0 0 1 0.866 8 6 6 0
123 0 1 0 21.0042 1.7324 9.99798  0 0 1 0.866 8 6 6 0
124 0 1 0 21.5043 2.5986 9.99798  0 0 1 0.866 8 6 6 0
125 0 1 0 22.0045 1.7324 9.99798  0 0 1 0.866 8 6 6 0
126 0 1 0 22.5046 2.5986 9.99798  0 0 1 0.866 8 6 6 0
127 0 1 0 23.0047 1.7324 9.99798  0 0 1 0.866 8 6 6 0
128 0 1 0 23.5048 2.5986 9.99798  0 0 1 0.866 8 6 6 0
129 0 1 0 24.0049 1.7324 9.99798  0 0 1 0.866 8 6 6 0
130 0 1 0 24.505 2.5986 9.99798  0 0 1 0.866 8 6 6 0
131 0 1 0 25.0051 1.7324 9.99798  0 0 1 0.866 8 6 6 0
132 0 1 0 25.5052 2.5986 9.99798  0 0 1 0.866 8 6 6 0
133 0 1 0 26.0053 1.7324 9.99798  0 0 1 0.866 8 6 6 0
134 0 1 0 26.5054 2.5986 9.99798  0 0 1 0.866 8 6 6 0
135 0 1 0 27.0055 1.7324 9.99798  0 0 1 0.866 8 6 6 0
136 0 1 0 27.5056 2.5986 9.99798  0 0 1 0.866 8 6 6 0
137 0 1 0 28.0057 1.7324 9.99798  0 0 1 0.866 8 6 6 0
138 0 1 0 28.5058 2.5986 9.99798  0 0 1 0.866 8 6 6 0
139 0 1 0 29.0059 1.7324 9.99798  0 0 1 0.866 8 6 6 0
140 0 1 0 29.506 2.5986 9.99798  0 0 1 0.866 8 6 6 0
141 0 1 0 30.0061 1.7324 9.99798  0 0 1 0.866 8 6 6 0
142 0 1 0 30.5062 2.5986 9.99798  0 0 1 0.866 8 6 6 0
143 0 1 0 31.0063 1.7324 9.99798  0 0 1 0.866 8 6 6 0
144 0 1 0 31.5064 2.5986 9.99798  0 0 1 0.866 8 6 6 0
145 0 1 0 32.0065 1.7324 9.99798  0 0 1 0.866 8 6 6 0
146 0 1 0 32.5066 2.5986 9.99798  0 0 1 0.866 8 6 6 0
147 0 1 0 33.0067 1.7324 9.99798  0 0 1 0.866 8 6 6 0
148 0 1 0 33.5068 2.5986 9.99798  0 0 1 0.866 8 6 6 0
149 0 1 0 34.0069 1.7324 9.99798  0 0 1 0.866 8 6 6 0
150 0 1 0 34.507 2.5986 9.99798  0 0 1 0.866 8 6 6 0
151 0 1 0 35.0071 1.7324 9.99798  0 0 1 0.866 8 6 6 0
152 0 1 0 35.5072 2.5986 9.99798  0 0 1 0.866 8 6 6 0
153 0 1 0 36.0073 1.7324 9.99798  0 0 1 0.866 8 6 6 0
154 0 1 0 36.5074 2.5986 9.99798  0 0 1 0.866 8 6 6 0
155 0 1 0 37.0075 1.7324 9.99798  0 0 1 0.866 8 6 6 0
156 0 1 0 37.5076 2.5986 9.99798  0 0 1 0.866 8 6 6 0
157 0 1 0 38.0077 1.7324 9.99798  0 0 1 0.866 8 6 6 0
158 0 1 0 38.5078 2.5986 9.99798  0 0 1 0.866 8 6 6 0
159 0 1 0 39.0079 1.7324 9.99798  0 0 1 0.866 8 6 6 0
160 0 1 0 39.508 2.5986 9.99798  0 0 1 0.866 8 6 6 0
161 0 1 0 0 3.4648 9.99798  0 0 1 0.866 8 6 6 0
162 0 1 0 0.500101 4.331 9.99798  0 0 1 0.866 8 6 6 0
163 0 1 0 1.0002 3.4648 9.99798  0 0 1 0.866 8 6 6 0
164 0 1 0 1.5003 4.331 9.99798  0 0 1 0.866 8 6 6 0
165 0 1 0 2.0004 3.4648 9.99798  0 0 1 0.866 8 6 6 0
166 0 1 0 2.50051 4.331 9.99798  0 0 1 0.866 8 6 6 0
167 0 1 0 3.00061 3.4648 9.99798  0 0 1 0.866 8 6 6 0
168 0 1 0 3.50071 4.331 9.99798  0 0 1 0.866 8 6 6 0
169 0 1 0 4.00081 3.4648 9.99798  0 0 1 0.866 8 6 6 0
170 0 1 0 4.50091 4.331 9.99798  0 0 1 0.866 8 6 6 0
171 0 1 0 5.00101 3.4648 9.99798  0 0 1 0.866 8 6 6 0
172 0 1 0 5.50111 4.331 9.99798  0 0 1 0.866 8 6 6 0
173 0 1 0 6.00121 3.4648 9.99798  0 0 1 0.866 8 6 6 0
174 0 1 0 6.50132 4.331 9.99798  0 0 1 0.866 8 6 6 0
175 0 1 0 7.00142 3.4648 9.99798  0 0 1 0.866 8 6 6 0
176 0 1 0 7.50152 4.331 9.99798  0 0 1 0.866 8 6 6 0
177 0 1 0 8.00162 3.4648 9.99798  0 0 1 0.866 8 6 6 0
178 0 1 0 8.50172 4.331 9.99798  0 0 1 0.866 8 6 6 0
179 0 1 0 9.00182 3.4648 9.99798  0 0 1 0.866 8 6 6 0
180 0 1 0 9.50192 4.331 9.99798  0 0 1 0.866 8 6 6 0
181 0 1 0 10.002 3.4648 9.99798  0 0 1 0.866 8 6 6 0
182 0 1 0 10.5021 4.331 9.99798  0 0 1 0.866 8 6 6 0
183 0 1 0 11.0022 3.4648 9.99798  0 0 1 0.866 8 6 6 0
184 0 1 0 11.5023 4.331 9.99798  0 0 1 0.866 8 6 6 0
185 0 1 0 12.0024 3.4648 9.99798  0 0 1 0.866 8 6 6 0
186 0 1 0 12.5025 4.331 9.99798  0 0 1 0.866 8 6 6 0
187 0 1 0 13.0026 3.4648 9.99798  0 0 1 0.866 8 6 6 0
188 0 1 0 13.5027 4.331 9.99798  0 0 1 0.866 8 6 6 0
189 0 1 0 14.0028 3.4648 9.99798  0 0 1 0.866 8 6 6 0
190 0 1 0 14.5029 4.331 9.99798  0 0 1 0.866 8 6 6 0
191 0 1 0 15.003 3.4648 9.99798  0 0 1 0.866 8 6 6 0
192 0 1 0 15.5031 4.331 9.99798  0 0 1 0.866 8 6 6 0
193 0 1 0 16.0032 3.4648 9.99798  0 0 1 0.866 8 6 6 0
194 0 1 0 16.5033 4.331 9.99798  0 0 1 0.866 8 6 6 0
195 0 1 0 17.0034 3.4648 9.99798  0 0 1 0.866 8 6 6 0
196 0 1 0 17.5035 4.331 9.99798  0 0 1 0.866 8 6 6 0
197 0 1 0 18.0036 3.4648 9.99798  0 0 1 0.866 8 6 6 0
198 0 1 0 18.5037 4.331 9.99798  0 0 1 0.866 8 6 6 0
199 0 1 0 19.0038 3.4648 9.99798  0 0 1 0.866 8 6 6 0
200 0 1 0 19.5039 4.331 9.99798  0 0 1 0.866 8 6 6 0
201 0 1 0 20.004 3.4648 9.99798  0 0 1 0.866 8 6 6 0
202 0 1 0 20.5041 4.331 9.99798  0 0 1 0.866 8 6 6 0
203 0 1 0 21.0042 3.4648 9.99798  0 0 1 0.866 8 6 6 0
204 0 1 0 21.5043 4.331 9.99798  0 0 1 0.866 8 6 6 0
205 0 1 0 22.0045 3.4648 9.99798  0 0 1 0.866 8 6 6 0
206 0 1 0 22.5046 4.331 9.99798  0 0 1 0.866 8 6 6 0
207 0 1 0 23.0047 3.4648 9.99798  0 0 1 0.866 8 6 6 0
208 0 1 0 23.5048 4.331 9.99798  0 0 1 0.866 8 6 6 0
209 0 1 0 24.0049 3.4648 9.99798  0 0 1 0.866 8 6 6 0
210 0 1 0 24.505 4.331 9.99798  0 0 1 0.866 8 6 6 0
211 0 1 0 25.0051 3.4648 9.99798  0 0 1 0.866 8 6 6 0
212 0 1 0 25.5052 4.331 9.99798  0 0 1 0.866 8 6 6 0
213 0 1 0 26.0053 3.4648 9.99798  0 0 1 0.866 8 6 6 0
214 0 1 0 26.5054 4.331 9.99798  0 0 1 0.866 8 6 6 0
215 0 1 0 27.0055 3.4648 9.99798  0 0 1 0.866 8 6 6 0
216 0 1 0 27.5056 4.331 9.99798  0 0 1 0.866 8 6 6 0
217 0 1 0 28.0057 3.4648 9.99798  0 0 1 0.866 8 6 6 0
218 0 1 0 28.5058 4.331 9.99798  0 0 1 0.866 8 6 6 0
219 0 1 0 29.0059 3.4648 9.99798  0 0 1 0.866 8 6 6 0
220 0 1 0 29.506 4.331 9.99798  0 0 1 0.866 8 6 6 0
221 0 1 0 30.0061 3.4648 9.99798  0 0 1 0.866 8 6 6 0
222 0 1 0 30.5062 4.331 9.99798  0 0 1 0.866 8 6 6 0
223 0 1 0 31.0063 3.4648 9.99798  0 0 1 0.866 8 6 6 0
224 0 1 0 31.5064 4.331 9.99798  0 0 1 0.866 8 6 6 0
225 0 1 0 32.0065 3.4648 9.99798  0 0 1 0.866 8 6 6 0
226 0 1 0 32.5066 4.331 9.99798  0 0 1 0.866 8 6 6 0
227 0 1 0 33.0067 3.4648 9.99798  0 0 1 0.866 8 6 6 0
228 0 1 0 33.5068 4.331 9.99798  0 0 1 0.866 8 6 6 0
229 0 1 0 34.0069 3.4648 9.99798  0 0 1 0.866 8 6 6 0
230 0 1 0 34.507 4.331 9.99798  0 0 1 0.866 8 6 6 0
231 0 1 0 35.0071 3.4648 9.99798  0 0 1 0.866 8 6 6 0
232 0 1 0 35.5072 4.331 9.99798  0 0 1 0.866 8 6 6 0
233 0 1 0 36.0073 3.4648 9.99798  0 0 1 0.866 8 6 6 0
234 0 1 0 36.5074 4.331 9.99798  0 0 1 0.866 8 6 6 0
235 0 1 0 37.0075 3.4648 9.99798  0 0 1 0.866 8 6 6 0
236 0 1 0 37.5076 4.331 9.99798  0 0 1 0.866 8 6 6 0
237 0 1 0 38.0077 3.4648 9.99798  0 0 1 0.866 8 6 6 0
238 0 1 0 38.5078 4.331 9.99798  0 0 1 0.866 8 6 6 0
239 0 1 0 39.0079 3.4648 9.99798  0 0 1 0.866 8 6 6 0
240 0 1 0 39.508 4.331 9.99798  0 0 1 0.866 8 6 6 0
241 0 1 0 0 5.1972 9.99798  0 0 1 0.866 8 6 6 0
242 0 1 0 0.500101 6.0634 9.99798  0 0 1 0.866 8 6 6 0
243 0 1 0 1.0002 5.1972 9.99798  0 0 1 0.866 8 6 6 0
244 0 1 0 1.5003 6.0634 9.99798  0 0 1 0.866 8 6 6 0
245 0 1 0 2.0004 5.1972 9.99798  0 0 1 0.866 8 6 6 0
246 0 1 0 2.50051 6.0634 9.99798  0 0 1 0.866 8 6 6 0
247 0 1 0 3.00061 5.1972 9.99798  0 0 1 0.866 8 6 6 0
248 0 1 0 3.50071 6.0634 9.99798  0 0 1 0.866 8 6 6 0
249 0 1 0 4.00081 5.1972 9.99798  0 0 1 0.866 8 6 6 0
250 0 1 0 4.50091 6.0634 9.99798  0 0 1 0.866 8 6 6 0
251 0 1 0 5.00101 5.1972 9.99798  0 0 1 0.866 8 6 6 0
252 0 1 0 5.50111 6.0634 9.99798  0 0 1 0.866 8 6 6 0
253 0 1 0 6.00121 5.1972 9.99798  0 0 1 0.866 8 6 6 0
254 0 1 0 6.50132 6.0634 9.99798  0 0 1 0.866 8 6 6 0
255 0 1 0 7.00142 5.1972 9.99798  0 0 1 0.866 8 6 6 0
256 0 1 0 7.50152 6.0634 9.99798  0 0 1 0.866 8 6 6 0
257 0 1 0 8.00162 5.1972 9.99798  0 0 1 0.866 8 6 6 0
258 0 1 0 8.50172 6.0634 9.99798  0 0 1 0.866 8 6 6 0
259 0 1 0 9.00182 5.1972 9.99798  0 0 1 0.866 8 6 6 0
260 0 1 0 9.50192 6.0634 9.99798  0 0 1 0.866 8 6 6 0
261 0 1 0 10.002 5.1972 9.99798  0 0 1 0.866 8 6 6 0
262 0 1 0 10.5021 6.0634 9.99798  0 0 1 0.866 8 6 6 0
263 0 1 0 11.0022 5.1972 9.99798  0 0 1 0.866 8 6 6 0
264 0 1 0 11.5023 6.0634 9.99798  0 0 1 0.866 8 6 6 0
265 0 1 0 12.0024 5.1972 9.99798  0 0 1 0.866 8 6 6 0
266 0 1 0 12.5025 6.0634 9.99798  0 0 1 0.866 8 6 6 0
267 0 1 0 13.0026 5.1972 9.99798  0 0 1 0.866 8 6 6 0
268 0 1 0 13.5027 6.0634 9.99798  0 0 1 0.866 8 6 6 0
269 0 1 0 14.0028 5.1972 9.99798  0 0 1 0.866 8 6 6 0
270 0 1 0 14.5029 6.0634 9.99798  0 0 1 0.866 8 6 6 0
271 0 1 0 15.003 5.1972 9.99798  0 0 1 0.866 8 6 6 0
272 0 1 0 15.5031 6.0634 9.99798  0 0 1 0.866 8 6 6 0
273 0 1 0 16.0032 5.1972 9.99798  0 0 1 0.866 8 6 6 0
274 0 1 0 16.5033 6.0634 9.99798  0 0 1 0.866 8 6 6 0
275 0 1 0 17.0034 5.1972 9.99798  0 0 1 0.866 8 6 6 0
276 0 1 0 17.5035 6.0634 9.99798  0 0 1 0.866 8 6 6 0
277 0 1 0 18.0036 5.1972 9.99798  0 0 1 0.866 8 6 6 0
278 0 1 0 18.5037 6.0634 9.99798  0 0 1 0.866 8 6 6 0
279 0 1 0 19.0038 5.1972 9.99798  0 0 1 0.866 8 6 6 0
280 0 1 0 19.5039 6.0634 9.99798  0 0 1 0.866 8 6 6 0
281 0 1 0 20.004 5.1972 9.99798  0 0 1 0.866 8 6 6 0
282 0 1 0 20.5041 6.0634 9.99798  0 0 1 0.866 8 6 6 0
283 0 1 0 21.0042 5.1972 9.99798  0 0 1 0.866 8 6 6 0
284 0 1 0 21.5043 6.0634 9.99798  0 0 1 0.866 8 6 6 0
285 0 1 0 22.0045 5.1972 9.99798  0 0 1 0.866 8 6 6 0
286 0 1 0 22.5046 6.0634 9.99798  0 0 1 0.866 8 6 6 0
287 0 1 0 23.0047 5.1972 9.99798  0 0 1 0.866 8 6 6 0
288 0 1 0 23.5048 6.0634 9.99798  0 0 1 0.866 8 6 6 0
289 0 1 0 24.0049 5.1972 9.99798  0 0 1 0.866 8 6 6 0
290 0 1 0 24.505 6.0634 9.99798  0 0 1 0.866 8 6 6 0
291 0 1 0 25.0051 5.1972 9.99798  0 0 1 0.866 8 6 6 0
292 0 1 0 25.5052 6.0634 9.99798  0 0 1 0.866 8 6 6 0
293 0 1 0 26.0053 5.1972 9.99798  0 0 1 0.866 8 6 6 0
294 0 1 0 26.5054 6.0634 9.99798  0 0 1 0.866 8 6 6 0
295 0 1 0 27.0055 5.1972 9.99798  0 0 1 0.866 8 6 6 0
296 0 1 0 27.5056 6.0634 9.99798  0 0 1 0.866 8 6 6 0
297 0 1 0 28.0057 5.1972 9.99798  0 0 1 0.866 8 6 6 0
298 0 1 0 28.5058 6.0634 9.99798  0 0 1 0.866 8 6 6 0
299 0 1 0 29.0059 5.1972 9.99798  0 0 1 0.866 8 6 6 0
300 0 1 0 29.506 6.0634 9.99798  0 0 1 0.866 8 6 6 0
301 0 1 0 30.0061 5.1972 9.99798  0 0 1 0.866 8 6 6 0
302 0 1 0 30.5062 6.0634 9.99798  0 0 1 0.866 8 6 6 0
303 0 1 0 31.0063 5.1972 9.99798  0 0 1 0.866 8 6 6 0
304 0 1 0 31.5064 6.0634 9.99798  0 0 1 0.866 8 6 6 0
305 0 1 0 32.0065 5.1972 9.99798  0 0 1 0.866 8 6 6 0
306 0 1 0 32.5066 6.0634 9.99798  0 0 1 0.866 8 6 6 0
307 0 1 0 33.0067 5.1972 9.99798  0 0 1 0.866 8 6 6 0
308 0 1 0 33.5068 6.0634 9.99798  0 0 1 0.866 8 6 6 0
309 0 1 0 34.0069 5.1972 9.99798  0 0 1 0.866 8 6 6 0
310 0 1 0 34.507 6.0634 9.99798  0 0 1 0.866 8 6 6 0
311 0 1 0 35.0071 5.1972 9.99798  0 0 1 0.866 8 6 6 0
312 0 1 0 35.5072 6.0634 9.99798  0 0 1 0.866 8 6 6 0
313 0 1 0 36.0073 5.1972 9.99798  0 0 1 0.866 8 6 6 0
314 0 1 0 36.5074 6.0634 9.99798  0 0 1 0.866 8 6 6 0
315 0 1 0 37.0075 5.1972 9.99798  0 0 1 0.866 8 6 6 0
316 0 1 0 37.5076 6.0634 9.99798  0 0 1 0.866 8 6 6 0
317 0 1 0 38.0077 5.1972 9.99798  0 0 1 0.866 8 6 6 0
318 0 1 0 38.5078 6.0634 9.99798  0 0 1 0.866 8 6 6 0
319 0 1 0 39.0079 5.1972 9.99798  0 0 1 0.866 8 6 6 0
320 0 1 0 39.508 6.0634 9.99798  0 0 1 0.866 8 6 6 0
321 0 1 0 0 6.9296 9.99798  0 0 1 0.866 8 6 6 0
322 0 1 0 0.500101 7.79581 9.99798  0 0 1 0.866 8 6 6 0
323 0 1 0 1.0002 6.9296 9.99798  0 0 1 0.866 8 6 6 0
324 0 1 0 1.5003 7.79581 9.99798  0 0 1 0.866 8 6 6 0
325 0 1 0 2.0004 6.9296 9.99798  0 0 1 0.866 8 6 6 0
326 0 1 0 2.50051 7.79581 9.99798  0 0 1 0.866 8 6 6 0
327 0 1 0 3.00061 6.9296 9.99798  0 0 1 0.866 8 6 6 0
328 0 1 0 3.50071 7.79581 9.99798  0 0 1 0.866 8 6 6 0
329 0 1 0 4.00081 6.9296 9.99798  0 0 1 0.866 8 6 6 0
330 0 1 0 4.50091 7.79581 9.99798  0 0 1 0.866 8 6 6 0
331 0 1 0 5.00101 6.9296 9.99798  0 0 1 0.866 8 6 6 0
332 0 1 0 5.50111 7.79581 9.99798  0 0 1 0.866 8 6 6 0
333 0 1 0 6.00121 6.9296 9.99798  0 0 1 0.866 8 6 6 0
334 0 1 0 6.50132 7.79581 9.99798  0 0 1 0.866 8 6 6 0
335 0 1 0 7.00142 6.9296 9.99798  0 0 1 0.866 8 6 6 0
336 0 1 0 7.50152 7.79581 9.99798  0 0 1 0.866 8 6 6 0
337 0 1 0 8.00162 6.9296 9.99798  0 0 1 0.866 8 6 6 0
338 0 1 0 8.50172 7.79581 9.99798  0 0 1 0.866 8 6 6 0
339 0 1 0 9.00182 6.9296 9.99798  0 0 1 0.866 8 6 6 0
340 0 1 0 9.50192 7.79581 9.99798  0 0 1 0.866 8 6 6 0
341 0 1 0 10.002 6.9296 9.99798  0 0 1 0.866 8 6 6 0
342 0 1 0 10.5021 7.79581 9.99798  0 0 1 0.866 8 6 6 0
343 0 1 0 11.0022 6.9296 9.99798  0 0 1 0.866 8 6 6 0
344 0 1 0 11.5023 7.79581 9.99798  0 0 1 0.866 8 6 6 0
345 0 1 0 12.0024 6.9296 9.99798  0 0 1 0.866 8 6 6 0
346 0 1 0 12.5025 7.79581 9.99798  0 0 1 0.866 8 6 6 0
347 0 1 0 13.0026 6.9296 9.99798  0 0 1 0.866 8 6 6 0
348 0 1 0 13.5027 7.79581 9.99798  0 0 1 0.866 8 6 6 0
349 0 1 0 14.0028 6.9296 9.99798  0 0 1 0.866 8 6 6 0
350 0 1 0 14.5029 7.79581 9.99798  0 0 1 0.866 8 6 6 0
351 0 1 0 15.003 6.9296 9.99798  0 0 1 0.866 8 6 6 0
352 0 1 0 15.5031 7.79581 9.99798  0 0 1 0.866 8 6 6 0
353 0 1 0 16.0032 6.9296 9.99798  0 0 1 0.866 8 6 6 0
354 0 1 0 16.5033 7.79581 9.99798  0 0 1 0.866 8 6 6 0
355 0 1 0 17.0034 6.9296 9.99798  0 0 1 0.866 8 6 6 0
356 0 1 0 17.5035 7.79581 9.99798  0 0 1 0.866 8 6 6 0
357 0 1 0 18.0036 6.9296 9.99798  0 0 1 0.866 8 6 6 0
358 0 1 0 18.5037 7.79581 9.99798  0 0 1 0.866 8 6 6 0
359 0 1 0 19.0038 6.9296 9.99798  0 0 1 0.866 8 6 6 0
360 0 1 0 19.5039 7.79581 9.99798  0 0 1 0.866 8 6 6 0
361 0 1 0 20.004 6.9296 9.99798  0 0 1 0.866 8 6 6 0
362 0 1 0 20.5041 7.79581 9.99798  0 0 1 0.866 8 6 6 0
363 0 1 0 21.0042 6.9296 9.99798  0 0 1 0.866 8 6 6 0
364 0 1 0 21.5043 7.79581 9.99798  0 0 1 0.866 8 6 6 0
365 0 1 0 22.0045 6.9296 9.99798  0 0 1 0.866 8 6 6 0
366 0 1 0 22.5046 7.79581 9.99798  0 0 1 0.866 8 6 6 0
367 0 1 0 23.0047 6.9296 9.99798  0 0 1 0.866 8 6 6 0
368 0 1 0 23.5048 7.79581 9.99798  0 0 1 0.866 8 6 6 0
369 0 1 0 24.0049 6.9296 9.99798  0 0 1 0.866 8 6 6 0
370 0 1 0 24.505 7.79581 9.99798  0 0 1 0.866 8 6 6 0
371 0 1 0 25.0051 6.9296 9.99798  0 0 1 0.866 8 6 6 0
372 0 1 0 25.5052 7.79581 9.99798  0 0 1 0.866 8 6 6 0
373 0 1 0 26.0053 6.9296 9.99798  0 0 1 0.866 8 6 6 0
374 0 1 0 26.5054 7.79581 9.99798  0 0 1 0.866 8 6 6 0
375 0 1 0 27.0055 6.9296 9.99798  0 0 1 0.866 8 6 6 0
376 0 1 0 27.5056 7.79581 9.99798  0 0 1 0.866 8 6 6 0
377 0 1 0 28.0057 6.9296 9.99798  0 0 1 0.866 8 6 6 0
378 0 1 0 28.5058 7.79581 9.99798  0 0 1 0.866 8 6 6 0
379 0 1 0 29.0059 6.9296 9.99798  0 0 1 0.866 8 6 6 0
380 0 1 0 29.506 7.79581 9.99798  0 0 1 0.866 8 6 6 0
381 0 1 0 30.0061 6.9296 9.99798  0 0 1 0.866 8 6 6 0
382 0 1 0 30.5062 7.79581 9.99798  0 0 1 0.866 8 6 6 0
383 0 1 0 31.0063 6.9296 9.99798  0 0 1 0.866 8 6 6 0
384 0 1 0 31.5064 7.79581 9.99798  0 0 1 0.866 8 6 6 0
385 0 1 0 32.0065 6.9296 9.99798  0 0 1 0.866 8 6 6 0
386 0 1 0 32.5066 7.79581 9.99798  0 0 1 0.866 8 6 6 0
387 0 1 0 33.0067 6.9296 9.99798  0 0 1 0.866 8 6 6 0
388 0 1 0 33.5068 7.79581 9.99798  0 0 1 0.866 8 6 6 0
389 0 1 0 34.0069 6.9296 9.99798  0 0 1 0.866 8 6 6 0
390 0 1 0 34.507 7.79581 9.99798  0 0 1 0.866 8 6 6 0
391 0 1 0 35.0071 6.9296 9.99798  0 0 1 0.866 8 6 6 0
392 0 1 0 35.5072 7.79581 9.99798  0 0 1 0.866 8 6 6 0
393 0 1 0 36.0073 6.9296 9.99798  0 0 1 0.866 8 6 6 0
394 0 1 0 36.5074 7.79581 9.99798  0 0 1 0.866 8 6 6 0
395 0 1 0 37.0075 6.9296 9.99798  0 0 1 0.866 8 6 6 0
396 0 1 0 37.5076 7.79581 9.99798  0 0 1 0.866 8 6 6 0
397 0 1 0 38.0077 6.9296 9.99798  0 0 1 0.866 8 6 6 0
398 0 1 0 38.5078 7.79581 9.99798  0 0 1 0.866 8 6 6 0
399 0 1 0 39.0079 6.9296 9.99798  0 0 1 0.866 8 6 6 0
400 0 1 0 39.508 7.79581 9.99798  0 0 1 0.866 8 6 6 0
401 0 1 0 0 8.66201 9.99798  0 0 1 0.866 8 6 6 0
402 0 1 0 0.500101 9.52821 9.99798  0 0 1 0.866 8 6 6 0
403 0 1 0 1.0002 8.66201 9.99798  0 0 1 0.866 8 6 6 0
404 0 1 0 1.5003 9.52821 9.99798  0 0 1 0.866 8 6 6 0
405 0 1 0 2.0004 8.66201 9.99798  0 0 1 0.866 8 6 6 0
406 0 1 0 2.50051 9.52821 9.99798  0 0 1 0.866 8 6 6 0
407 0 1 0 3.00061 8.66201 9.99798  0 0 1 0.866 8 6 6 0
408 0 1 0 3.50071 9.52821 9.99798  0 0 1 0.866 8 6 6 0
409 0 1 0 4.00081 8.66201 9.99798  0 0 1 0.866 8 6 6 0
410 0 1 0 4.50091 9.52821 9.99798  0 0 1 0.866 8 6 6 0
411 0 1 0 5.00101 8.66201 9.99798  0 0 1 0.866 8 6 6 0
412 0 1 0 5.50111 9.52821 9.99798  0 0 1 0.866 8 6 6 0
413 0 1 0 6.00121 8.66201 9.99798  0 0 1 0.866 8 6 6 0
414 0 1 0 6.50132 9.52821 9.99798  0 0 1 0.866 8 6 6 0
415 0 1 0 7.00142 8.66201 9.99798  0 0 1 0.866 8 6 6 0
416 0 1 0 7.50152 9.52821 9.99798  0 0 1 0.866 8 6 6 0
417 0 1 0 8.00162 8.66201 9.99798  0 0 1 0.866 8 6 6 0
418 0 1 0 8.50172 9.52821 9.99798  0 0 1 0.866 8 6 6 0
419 0 1 0 9.00182 8.66201 9.99798  0 0 1 0.866 8 6 6 0
420 0 1 0 9.50192 9.52821 9.99798  0 0 1 0.866 8 6 6 0
421 0 1 0 10.002 8.66201 9.99798  0 0 1 0.866 8 6 6 0
422 0 1 0 10.5021 9.52821 9.99798  0 0 1 0.866 8 6 6 0
423 0 1 0 11.0022 8.66201 9.99798  0 0 1 0.866 8 6 6 0
424 0 1 0 11.5023 9.52821 9.99798  0 0 1 0.866 8 6 6 0
425 0 1 0 12.0024 8.66201 9.99798  0 0 1 0.866 8 6 6 0
426 0 1 0 12.5025 9.52821 9.99798  0 0 1 0.866 8 6 6 0
427 0 1 0 13.0026 8.66201 9.99798  0 0 1 0.866 8 6 6 0
428 0 1 0 13.5027 9.52821 9.99798  0 0 1 0.866 8 6 6 0
429 0 1 0 14.0028 8.66201 9.99798  0 0 1 0.866 8 6 6 0
430 0 1 0 14.5029 9.52821 9.99798  0 0 1 0.866 8 6 6 0
431 0 1 0 15.003 8.66201 9.99798  0 0 1 0.866 8 6 6 0
432 0 1 0 15.5031 9.52821 9.99798  0 0 1 0.866 8 6 6 0
433 0 1 0 16.0032 8.66201 9.99798  0 0 1 0.866 8 6 6 0
434 0 1 0 16.5033 9.52821 9.99798  0 0 1 0.866 8 6 6 0
435 0 1 0 17.0034 8.66201 9.99798  0 0 1 0.866 8 6 6 0
436 0 1 0 17.5035 9.52821 9.99798  0 0 1 0.866 8 6 6 0
437 0 1 0 18.0036 8.66201 9.99798  0 0 1 0.866 8 6 6 0
438 0 1 0 18.5037 9.52821 9.99798  0 0 1 0.866 8 6 6 0
439 0 1 0 19.0038 8.66201 9.99798  0 0 1 0.866 8 6 6 0
440 0 1 0 19.5039 9.52821 9.99798  0 0 1 0.866 8 6 6 0
441 0 1 0 20.004 8.66201 9.99798  0 0 1 0.866 8 6 6 0
442 0 1 0 20.5041 9.52821 9.99798  0 0 1 0.866 8 6 6 0
443 0 1 0 21.0042 8.66201 9.99798  0 0 1 0.866 8 6 6 0
444 0 1 0 21.5043 9.52821 9.99798  0 0 1 0.866 8 6 6 0
445 0 1 0 22.0045 8.66201 9.99798  0 0 1 0.866 8 6 6 0
446 0 1 0 22.5046 9.52821 9.99798  0 0 1 0.866 8 6 6 0
447 0 1 0 23.0047 8.66201 9.99798  0 0 1 0.866 8 6 6 0
448 0 1 0 23.5048 9.52821 9.99798  0 0 1 0.866 8 6 6 0
449 0 1 0 24.0049 8.66201 9.99798  0 0 1 0.866 8 6 6 0
450 0 1 0 24.505 9.52821 9.99798  0 0 1 0.866 8 6 6 0
451 0 1 0 25.0051 8.66201 9.99798  0 0 1 0.866 8 6 6 0
452 0 1 0 25.5052 9.52821 9.99798  0 0 1 0.866 8 6 6 0
453 0 1 0 26.0053 8.66201 9.99798  0 0 1 0.866 8 6 6 0
454 0 1 0 26.5054 9.52821 9.99798  0 0 1 0.866 8 6 6 0
455 0 1 0 27.0055 8.66201 9.99798  0 0 1 0.866 8 6 6 0
456 0 1 0 27.5056 9.52821 9.99798  0 0 1 0.866 8 6 6 0
457 0 1 0 28.0057 8.66201 9.99798  0 0 1 0.866 8 6 6 0
458 0 1 0 28.5058 9.52821 9.99798  0 0 1 0.866 8 6 6 0
459 0 1 0 29.0059 8.66201 9.99798  0 0 1 0.866 8 6 6 0
460 0 1 0 29.506 9.52821 9.99798  0 0 1 0.866 8 6 6 0
461 0 1 0 30.0061 8.66201 9.99798  0 0 1 0.866 8 6 6 0
462 0 1 0 30.5062 9.52821 9.99798  0 0 1 0.866 8 6 6 0
463 0 1 0 31.0063 8.66201 9.99798  0 0 1 0.866 8 6 6 0
464 0 1 0 31.5064 9.52821 9.99798  0 0 1 0.866 8 6 6 0
465 0 1 0 32.0065 8.66201 9.99798  0 0 1 0.866 8 6 6 0
466 0 1 0 32.5066 9.52821 9.99798  0 0 1 0.866 8 6 6 0
467 0 1 0 33.0067 8.66201 9.99798  0 0 1 0.866 8 6 6 0
468 0 1 0 33.5068 9.52821 9.99798  0 0 1 0.866 8 6 6 0
469 0 1 0 34.0069 8.66201 9.99798  0 0 1 0.866 8 6 6 0
470 0 1 0 34.507 9.52821 9.99798  0 0 1 0.866 8 6 6 0
471 0 1 0 35.0071 8.66201 9.99798  0 0 1 0.866 8 6 6 0
472 0 1 0 35.5072 9.52821 9.99798  0 0 1 0.866 8 6 6 0
473 0 1 0 36.0073 8.66201 9.99798  0 0 1 0.866 8 6 6 0
474 0 1 0 36.5074 9.52821 9.99798  0 0 1 0.866 8 6 6 0
475 0 1 0 37.0075 8.66201 9.99798  0 0 1 0.866 8 6 6 0
476 0 1 0 37.5076 9.52821 9.99798  0 0 1 0.866 8 6 6 0
477 0 1 0 38.0077 8.66201 9.99798  0 0 1 0.866 8 6 6 0
478 0 1 0 38.5078 9.52821 9.99798  0 0 1 0.866 8 6 6 0
479 0 1 0 39.0079 8.66201 9.99798  0 0 1 0.866 8 6 6 0
480 0 1 0 39.508 9.52821 9.99798  0 0 1 0.866 8 6 6 0
481 0 1 0 0 10.3944 9.99798  0 0 1 0.866 8 6 6 0
482 0 1 0 0.500101 11.2606 9.99798  0 0 1 0.866 8 6 6 0
483 0 1 0 1.0002 10.3944 9.99798  0 0 1 0.866 8 6 6 0
484 0 1 0 1.5003 11.2606 9.99798  0 0 1 0.866 8 6 6 0
485 0 1 0 2.0004 10.3944 9.99798  0 0 1 0.866 8 6 6 0
486 0 1 0 2.50051 11.2606 9.99798  0 0 1 0.866 8 6 6 0
487 0 1 0 3.00061 10.3944 9.99798  0 0 1 0.866 8 6 6 0
488 0 1 0 3.50071 11.2606 9.99798  0 0 1 0.866 8 6 6 0
489 0 1 0 4.00081 10.3944 9.99798  0 0 1 0.866 8 6 6 0
490 0 1 0 4.50091 11.2606 9.99798  0 0 1 0.866 8 6 6 0
491 0 1 0 5.00101 10.3944 9.99798  0 0 1 0.866 8 6 6 0
492 0 1 0 5.50111 11.2606 9.99798  0 0 1 0.866 8 6 6 0
493 0 1 0 6.00121 10.3944 9.99798  0 0 1 0.866 8 6 6 0
494 0 1 0 6.50132 11.2606 9.99798  0 0 1 0.866 8 6 6 0
495 0 1 0 7.00142 10.3944 9.99798  0 0 1 0.866 8 6 6 0
496 0 1 0 7.50152 11.2606 9.99798  0 0 1 0.866 8 6 6 0
497 0 1 0 8.00162 10.3944 9.99798  0 0 1 0.866 8 6 6 0
498 0 1 0 8.50172 11.2606 9.99798  0 0 1 0.866 8 6 6 0
499 0 1 0 9.00182 10.3944 9.99798  0 0 1 0.866 8 6 6 0
500 0 1 0 9.50192 11.2606 9.99798  0 0 1 0.866 8 6 6 0
501 0 1 0 10.002 10.3944 9.99798  0 0 1 0.866 8 6 6 0
502 0 1 0 10.5021 11.2606 9.99798  0 0 1 0.866 8 6 6 0
503 0 1 0 11.0022 10.3944 9.99798  0 0 1 0.866 8 6 6 0
504 0 1 0 11.5023 11.2606 9.99798  0 0 1 0.866 8 6 6 0
505 0 1 0 12.0024 10.3944 9.99798  0 0 1 0.866 8 6 6 0
506 0 1 0 12.5025 11.2606 9.99798  0 0 1 0.866 8 6 6 0
507 0 1 0 13.0026 10.3944 9.99798  0 0 1 0.866 8 6 6 0
508 0 1 0 13.5027 11.2606 9.99798  0 0 1 0.866 8 6 6 0
509 0 1 0 14.0028 10.3944 9.99798  0 0 1 0.866 8 6 6 0
510 0 1 0 14.5029 11.2606 9.99798  0 0 1 0.866 8 6 6 0
511 0 1 0 15.003 10.3944 9.99798  0 0 1 0.866 8 6 6 0
512 0 1 0 15.5031 11.2606 9.99798  0 0 1 0.866 8 6 6 0
513 0 1 0 16.0032 10.3944 9.99798  0 0 1 0.866 8 6 6 0
514 0 1 0 16.5033 11.2606 9.99798  0 0 1 0.866 8 6 6 0
515 0 1 0 17.0034 10.3944 9.99798  0 0 1 0.866 8 6 6 0
516 0 1 0 17.5035 11.2606 9.99798  0 0 1 0.866 8 6 6 0
517 0 1 0 18.0036 10.3944 9.99798  0 0 1 0.866 8 6 6 0
518 0 1 0 18.5037 11.2606 9.99798  0 0 1 0.866 8 6 6 0
519 0 1 0 19.0038 10.3944 9.99798  0 0 1 0.866 8 6 6 0
520 0 1 0 19.5039 11.2606 9.99798  0 0 1 0.866 8 6 6 0
521 0 1 0 20.004 10.3944 9.99798  0 0 1 0.866 8 6 6 0
522 0 1 0 20.5041 11.2606 9.99798  0 0 1 0.866 8 6 6 0
523 0 1 0 21.0042 10.3944 9.99798  0 0 1 0.866 8 6 6 0
524 0 1 0 21.5043 11.2606 9.99798  0 0 1 0.866 8 6 6 0
525 0 1 0 22.0045 10.3944 9.99798  0 0 1 0.866 8 6 6 0
526 0 1 0 22.5046 11.2606 9.99798  0 0 1 0.866 8 6 6 0
527 0 1 0 23.0047 10.3944 9.99798  0 0 1 0.866 8 6 6 0
528 0 1 0 23.5048 11.2606 9.99798  0 0 1 0.866 8 6 6 0
529 0 1 0 24.0049 10.3944 9.99798  0 0 1 0.866 8 6 6 0
530 0 1 0 24.505 11.2606 9.99798  0 0 1 0.866 8 6 6 0
531 0 1 0 25.0051 10.3944 9.99798  0 0 1 0.866 8 6 6 0
532 0 1 0 25.5052 11.2606 9.99798  0 0 1 0.866 8 6 6 0
533 0 1 0 26.0053 10.3944 9.99798  0 0 1 0.866 8 6 6 0
534 0 1 0 26.5054 11.2606 9.99798  0 0 1 0.866 8 6 6 0
535 0 1 0 27.0055 10.3944 9.99798  0 0 1 0.866 8 6 6 0
536 0 1 0 27.5056 11.2606 9.99798  0 0 1 0.866 8 6 6 0
537 0 1 0 28.0057 10.3944 9.99798  0 0 1 0.866 8 6 6 0
538 0 1 0 28.5058 11.2606 9.99798  0 0 1 0.866 8 6 6 0
539 0 1 0 29.0059 10.3944 9.99798  0 0 1 0.866 8 6 6 0
540 0 1 0 29.506 11.2606 9.99798  0 0 1 0.866 8 6 6 0
541 0 1 0 30.0061 10.3944 9.99798  0 0 1 0.866 8 6 6 0
542 0 1 0 30.5062 11.2606 9.99798  0 0 1 0.866 8 6 6 0
543 0 1 0 31.0063 10.3944 9.99798  0 0 1 0.866 8 6 6 0
544 0 1 0 31.5064 11.2606 9.99798  0 0 1 0.866 8 6 6 0
545 0 1 0 32.0065 10.3944 9.99798  0 0 1 0.866 8 6 6 0
546 0 1 0 32.5066 11.2606 9.99798  0 0 1 0.866 8 6 6 0
547 0 1 0 33.0067 10.3944 9.99798  0 0 1 0.866 8 6 6 0
548 0 1 0 33.5068 11.2606 9.99798  0 0 1 0.866 8 6 6 0
549 0 1 0 34.0069 10.3944 9.99798  0 0 1 0.866 8 6 6 0
550 0 1 0 34.507 11.2606 9.99798  0 0 1 0.866 8 6 6 0
551 0 1 0 35.0071 10.3944 9.99798  0 0 1 0.866 8 6 6 0