LAMMPS data file from restart file: timestep = 2000, procs = 1

1288 atoms

2 atom types

-3.7835000000000001e+01 3.7835000000000001e+01 xlo xhi
-1.6215000000000000e+01 1.6215000000000000e+01 ylo yhi
-1.6215000000000000e+01 1.6215000000000000e+01 zlo zhi

Masses

1 39.95
2 39.95

Pair Coeffs

1 0.238 3.405
2 0.238 3.405

Atoms

1 1 -3.6483750000000001e+01 -1.4863750000000000e+01 -1.4863750000000000e+01 0 0 0
2 1 -3.3781250000000000e+01 -1.2161250000000001e+01 -1.4863750000000000e+01 0 0 0
3 1 -3.3781250000000000e+01 -1.4863750000000000e+01 -1.2161250000000001e+01 0 0 0
4 1 -3.6483750000000001e+01 -1.2161250000000001e+01 -1.2161250000000001e+01 0 0 0
9 1 -3.6483750000000001e+01 -9.4587500000000002e+00 -1.4863750000000000e+01 0 0 0
10 1 -3.3781250000000000e+01 -6.7562499999999996e+00 -1.4863750000000000e+01 0 0 0
11 1 -3.3781250000000000e+01 -9.4587500000000002e+00 -1.2161250000000001e+01 0 0 0
12 1 -3.6483750000000001e+01 -6.7562499999999996e+00 -1.2161250000000001e+01 0 0 0
49 1 -3.6483750000000001e+01 -1.4863750000000000e+01 -9.4587500000000002e+00 0 0 0
50 1 -3.3781250000000000e+01 -1.2161250000000001e+01 -9.4587500000000002e+00 0 0 0
51 1 -3.3781250000000000e+01 -1.4863750000000000e+01 -6.7562499999999996e+00 0 0 0
52 1 -3.6483750000000001e+01 -1.2161250000000001e+01 -6.7562499999999996e+00 0 0 0
57 1 -3.6483750000000001e+01 -9.4587500000000002e+00 -9.4587500000000002e+00 0 0 0
58 1 -3.3781250000000000e+01 -6.7562499999999996e+00 -9.4587500000000002e+00 0 0 0
59 1 -3.3781250000000000e+01 -9.4587500000000002e+00 -6.7562499999999996e+00 0 0 0
60 1 -3.6483750000000001e+01 -6.7562499999999996e+00 -6.7562499999999996e+00 0 0 0
289 2 -3.0392886623348939e+01 -1.3308928769711402e+01 -1.3146438992152529e+01 0 0 0
390 2 -3.0722238436145243e+01 -1.2577554511290730e+01 -7.4039300820425202e+00 0 0 0
409 2 -3.0719077484097944e+01 -9.3423842824012340e+00 -1.4901092406716407e+01 0 0 0
412 2 -3.0854311149284825e+01 -9.1240079086461616e+00 -9.5874248616960376e+00 0 0 0
449 2 -3.1219329440796315e+01 -6.4934870609848998e+00 -1.2555298182776234e+01 0 0 0
453 2 -2.9392442484339604e+01 -6.1920314843002311e+00 -1.5842340034570523e+01 0 0 0
530 2 -3.0251238020242358e+01 -1.5850353497448886e+01 -6.1187083912775675e+00 0 1 0
290 2 -2.0540914929613983e+01 -1.3662668225285120e+01 -1.5924814132705730e+01 0 0 0
301 2 -2.0258736582958484e+01 -1.2853959274283701e+01 -1.2643068980327902e+01 0 0 0
302 2 -2.2156458132480441e+01 -8.1803720669955258e+00 -1.3860425617915173e+01 0 0 0
389 2 -2.7285630486290678e+01 -1.3639550753949431e+01 -1.5016798255773573e+01 0 0 0
392 2 -2.4159175761594447e+01 -1.3745011775175129e+01 -1.1776211931715412e+01 0 0 0
410 2 -2.8231907448376553e+01 -1.1086741662463977e+01 -1.1158273921689702e+01 0 0 0
411 2 -2.7102703082663698e+01 -1.3073291710209174e+01 -6.2477639573480444e+00 0 0 0
413 2 -2.5174944163693546e+01 -1.0602101756234440e+01 -1.4110062184018405e+01 0 0 0
414 2 -2.0362749212859100e+01 -9.6681030019322023e+00 -9.7887846923846435e+00 0 0 0
415 2 -2.2683190354944124e+01 -1.2374600508505676e+01 -8.4455839269986477e+00 0 0 0
416 2 -2.4854410882474930e+01 -9.9991917037828326e+00 -1.0364117825293748e+01 0 0 0
394 2 -1.9031625621429953e+01 -1.3605372862050698e+01 -8.9548887987035766e+00 0 0 0
570 2 -2.7796925572263994e+01 -1.4899519973594133e+01 -9.3873838892220913e+00 0 1 0
455 2 -1.9184870566032615e+01 -5.6413108350952017e+00 -9.5986452106297335e+00 0 0 0
571 2 -2.4720004509864065e+01 -1.5691949641609545e+01 -7.2853569953622817e+00 0 1 0
771 2 -2.1423747820695336e+01 -1.5111833377363148e+01 -5.7463249320877630e+00 0 1 0
613 2 -2.4337569905386740e+01 -9.9950950602697990e+00 -5.7604165851391649e+00 0 0 0
616 2 -2.3885600898629995e+01 -5.8064260946589155e+00 -5.6641628222061984e+00 0 0 0
1203 2 -1.8493218468617521e+01 -9.5230474282111519e+00 -1.4959396644035312e+01 0 0 1
291 2 -1.6458489673963541e+01 -1.3854012822384007e+01 -1.2371729502899282e+01 0 0 0
303 2 -1.3304702253800230e+01 -1.1287756769411802e+01 -1.2583892773953224e+01 0 0 0
304 2 -1.6800966783254765e+01 -7.6130124161405668e+00 -1.2044464578594095e+01 0 0 0
393 2 -1.0781238988508118e+01 -1.3906322551753519e+01 -1.0350412370657416e+01 0 0 0
417 2 -1.5077092800591934e+01 -1.0933256216159409e+01 -9.6756285393170920e+00 0 0 0
418 2 -1.3566180669264085e+01 -5.8055549630860757e+00 -1.2525021933442208e+01 0 0 0
419 2 -1.6424873158153208e+01 -1.2537188995303165e+01 -6.0819240602283466e+00 0 0 0
420 2 -1.5759427516880617e+01 -5.7980155290062863e+00 -8.2510759800930717e+00 0 0 0
421 2 -1.2361785338823113e+01 -1.4021333139044623e+01 -1.4630849997319872e+01 0 0 0
424 2 -1.1864126980158090e+01 -8.3985811496368150e+00 -1.0421340727592925e+01 0 0 0
305 2 -9.6233975083072139e+00 -1.1330657745933200e+01 -1.2478699455086545e+01 0 0 0
614 2 -1.7634617511200158e+01 -9.1449801162023725e+00 -7.4899050073485132e+00 0 0 0
621 2 -1.0894230982540231e+01 -1.1165137847936544e+01 -7.9862698473889902e+00 0 0 0
661 2 -1.0541036319771399e+01 -5.4627808038507739e+00 -8.5015899964536850e+00 0 0 0
572 2 -1.4699337886849714e+01 -1.4649121734207212e+01 -8.4328827506175319e+00 0 1 0
775 2 -9.5727534742452551e+00 -1.4612851517864820e+01 -7.2408220366867244e+00 0 1 0
593 2 -1.3116668168112325e+01 -1.5101314509398216e+01 -5.4170300476545528e+00 0 0 0
618 2 -1.4001944079610416e+01 -9.0246885615286825e+00 -6.6307386312565644e+00 0 0 0
292 2 -9.7849303953057483e+00 -1.0639540540150296e+01 -1.6059646092133601e+01 0 0 0
306 2 -9.1132652175182418e+00 -7.0420317655657243e+00 -1.2953362718190233e+01 0 0 0
396 2 -8.7285401859647891e+00 -1.5003236980595961e+01 -1.3388346901620132e+01 0 0 0
293 2 -6.1479078594761418e+00 -1.2497022183918924e+01 -1.2159252289382533e+01 0 0 0
308 2 -5.2466677882518464e+00 -7.7584628575229155e+00 -1.3758690183451103e+01 0 0 0
395 2 -7.8189791951635348e+00 -9.6384809174996366e+00 -9.6725864321162796e+00 0 0 0
398 2 -6.3432930756502994e+00 -1.3690617226204211e+01 -8.6512562401499089e+00 0 0 0
422 2 -7.3112468973991493e+00 -6.6382663593398394e+00 -7.4193168801666891e+00 0 0 0
426 2 -4.0148301123678216e+00 -8.7237121478858910e+00 -1.0391212194452976e+01 0 0 0
427 2 -3.1814801182254806e+00 -1.3733135795270931e+01 -1.0591060918244841e+01 0 0 0
310 2 -2.5665569829154711e+00 -1.1515283328013206e+01 -1.3356988948634026e+01 0 0 0
400 2 -1.8870454136699001e-02 -1.5323873241094667e+01 -8.5031627106241459e+00 0 0 0
327 2 -1.7901133979090078e+00 -7.5535917587318089e+00 -1.3198064116334843e+01 0 0 0
597 2 -2.9956921222566981e+00 -1.3802650557348207e+01 -6.9468533316776186e+00 0 0 0
625 2 -3.5798987060965812e+00 -7.3501078346190871e+00 -5.4670712303955717e+00 0 0 0
626 2 -7.9494273063437715e-01 -8.7770128766956201e+00 -9.0459607110209799e+00 0 0 0
307 2 -3.1351378881994291e-01 -1.5775259021900139e+01 -1.1837496885540252e+01 0 0 0
468 2 -1.4532593749574438e+00 -5.6140237330863023e+00 -7.7065074576867350e+00 0 0 0
632 2 -2.3031932121618430e+00 -1.0364488018471787e+01 -5.9826030441597817e+00 0 0 0
294 2 3.1723052594400682e+00 -1.5673176903405748e+01 -1.5233736268866624e+01 0 0 0
295 2 6.6323571497608311e+00 -1.2909995359338129e+01 -1.3414518511813693e+01 0 0 0
309 2 4.4032681389608603e+00 -1.0281330714667499e+01 -1.1859609859401639e+01 0 0 0
312 2 7.1490849689082170e+00 -8.6130748861143633e+00 -1.3743403103969074e+01 0 0 0
429 2 9.0594789059323233e-01 -1.1639663247823179e+01 -1.0473026527436160e+01 0 0 0
430 2 4.4607928639277592e+00 -5.8323419781091967e+00 -9.9268188666429609e+00 0 0 0
431 2 4.0941386606509989e+00 -1.4317101256318299e+01 -1.0560396038885953e+01 0 0 0
433 2 7.5278272141638185e+00 -1.2197248419154384e+01 -8.1364908273909187e+00 0 0 0
469 2 3.4335545180988922e+00 -7.5196839726764244e+00 -1.3517416023081722e+01 0 0 0
630 2 4.2076983537727575e+00 -9.4252335208030598e+00 -7.9248700984582685e+00 0 0 0
401 2 8.1008645380352782e+00 -1.5012616888012021e+01 -1.0539192006355545e+01 0 0 0
467 2 6.1923182997825932e-01 -6.0330677180211483e+00 -1.1239914593478282e+01 0 0 0
432 2 2.2817924708257205e+00 -5.5218663310662022e+00 -7.0118240145666961e+00 0 0 0
1209 2 4.2169873201793201e-01 -1.3480580110855255e+01 -1.6106795158209675e+01 0 0 1
1229 2 4.4986507561718281e-01 -9.9220110401354074e+00 -1.4658272462677340e+01 0 0 1
473 2 1.0211451137997487e+01 -1.0895580190467685e+01 -5.6981791959275068e+00 0 0 0
311 2 1.0934367949336014e+01 -1.3061366657487605e+01 -1.1613315798824283e+01 0 0 0
314 2 1.2037456959423700e+01 -7.7650549063014660e+00 -1.4957642615459390e+01 0 0 0
403 2 1.7500672246802935e+01 -1.3661433498121211e+01 -1.1991706024347769e+01 0 0 0
434 2 1.2518180437165364e+01 -1.0437582618650914e+01 -8.9710213070025997e+00 0 0 0
437 2 1.3386527203551102e+01 -1.3276325145737152e+01 -1.4299863281583431e+01 0 0 0
438 2 1.4473534705628030e+01 -1.0481847244221697e+01 -1.2254900050948576e+01 0 0 0
439 2 1.3927377725420099e+01 -1.4145197566747647e+01 -9.8969248416781532e+00 0 0 0
440 2 1.2873252605307433e+01 -6.1922002232244049e+00 -9.2168358503540606e+00 0 0 0
297 2 1.7849844457342339e+01 -1.1861442984439394e+01 -1.5360987093227264e+01 0 0 0
316 2 1.7425256074292388e+01 -7.4366231051077412e+00 -1.5741542610334408e+01 0 0 0
406 2 1.6706139524903985e+01 -1.1645345509892893e+01 -9.0155966800358218e+00 0 0 0
441 2 1.8312444589092685e+01 -9.8415887401136963e+00 -1.2282484462402953e+01 0 0 0
477 2 1.6546257058035906e+01 -5.6425275628530320e+00 -1.2072286215170807e+01 0 0 0
634 2 1.1530141507895788e+01 -1.4089900616009951e+01 -7.4443243813682987e+00 0 0 0
637 2 1.4551557651918845e+01 -1.0105758579148993e+01 -6.0973615523122504e+00 0 0 0
1195 2 9.5486842955645024e+00 -1.5403845617372218e+01 -1.4324720252249564e+01 0 0 1
444 2 1.8104978058169490e+01 -8.5955087713052318e+00 -8.9118062739157384e+00 0 0 0
484 2 1.6935723349301892e+01 -6.4195995971564015e+00 -6.2059336147287310e+00 0 0 0
586 2 1.7003133544340443e+01 -1.5306776791144717e+01 -7.8739810699205828e+00 0 1 0
601 2 1.4891623757478941e+01 -1.3426281967877694e+01 -5.7263393149065820e+00 0 0 0
1211 2 9.7747556579797656e+00 -1.1184476255724952e+01 -1.4708876720621967e+01 0 0 1
1197 2 1.7168421908944168e+01 -1.5757851218804010e+01 -1.5272866297317041e+01 0 0 1
318 2 2.6747434015389519e+01 -1.2108188538060357e+01 -1.6116122741903389e+01 0 0 0
405 2 2.4665022198542616e+01 -1.4569202139155633e+01 -1.4024056268427719e+01 0 0 0
442 2 2.4472661319936773e+01 -7.3932969276315994e+00 -1.1869590510671502e+01 0 0 0
443 2 2.0873788410150848e+01 -1.1259749279620307e+01 -9.2164548811165972e+00 0 0 0
445 2 2.0747143115502578e+01 -1.2841567836795839e+01 -1.3631425498699050e+01 0 0 0
448 2 2.4554258420145711e+01 -7.2638757362807738e+00 -8.0905433342041260e+00 0 0 0
335 2 2.1507917601264921e+01 -7.6838255101196555e+00 -1.4771435913414148e+01 0 0 0
483 2 2.1428209183485972e+01 -7.8180672000841724e+00 -6.5299264122686314e+00 0 0 0
485 2 2.7524323675244180e+01 -5.9529927743504318e+00 -5.8027742171497527e+00 0 0 0
337 2 2.5069971089062133e+01 -8.9464451225012684e+00 -1.5432907268472688e+01 0 0 0
787 2 2.0482534793194763e+01 -1.6175730194917801e+01 -7.9762332664530611e+00 0 1 0
605 2 2.1079353633166768e+01 -1.3036046453625897e+01 -5.4051807134847918e+00 0 0 0
5 1 3.3781250000000000e+01 -1.4863750000000000e+01 -1.4863750000000000e+01 0 0 0
6 1 3.6483750000000001e+01 -1.2161250000000001e+01 -1.4863750000000000e+01 0 0 0
7 1 3.6483750000000001e+01 -1.4863750000000000e+01 -1.2161250000000001e+01 0 0 0
8 1 3.3781250000000000e+01 -1.2161250000000001e+01 -1.2161250000000001e+01 0 0 0
13 1 3.3781250000000000e+01 -9.4587500000000002e+00 -1.4863750000000000e+01 0 0 0
14 1 3.6483750000000001e+01 -6.7562499999999996e+00 -1.4863750000000000e+01 0 0 0
15 1 3.6483750000000001e+01 -9.4587500000000002e+00 -1.2161250000000001e+01 0 0 0
16 1 3.3781250000000000e+01 -6.7562499999999996e+00 -1.2161250000000001e+01 0 0 0
53 1 3.3781250000000000e+01 -1.4863750000000000e+01 -9.4587500000000002e+00 0 0 0
54 1 3.6483750000000001e+01 -1.2161250000000001e+01 -9.4587500000000002e+00 0 0 0
55 1 3.6483750000000001e+01 -1.4863750000000000e+01 -6.7562499999999996e+00 0 0 0
56 1 3.3781250000000000e+01 -1.2161250000000001e+01 -6.7562499999999996e+00 0 0 0
61 1 3.3781250000000000e+01 -9.4587500000000002e+00 -9.4587500000000002e+00 0 0 0
62 1 3.6483750000000001e+01 -6.7562499999999996e+00 -9.4587500000000002e+00 0 0 0
63 1 3.6483750000000001e+01 -9.4587500000000002e+00 -6.7562499999999996e+00 0 0 0
64 1 3.3781250000000000e+01 -6.7562499999999996e+00 -6.7562499999999996e+00 0 0 0
317 2 3.0578450441062966e+01 -1.2892369190629436e+01 -1.4108292963338826e+01 0 0 0
446 2 3.0936790034455839e+01 -9.2089431504058350e+00 -1.3111182885535971e+01 0 0 0
447 2 3.0823590142598501e+01 -1.2230794453640442e+01 -9.4368783315474936e+00 0 0 0
407 2 3.0446412024560544e+01 -1.5480364561010157e+01 -1.1513304460618940e+01 0 0 0
610 2 -2.8423414433561270e+01 -4.8234939087952071e+00 -7.4187557420086039e+00 0 0 0
17 1 -3.6483750000000001e+01 -4.0537500000000000e+00 -1.4863750000000000e+01 0 0 0
18 1 -3.3781250000000000e+01 -1.3512500000000001e+00 -1.4863750000000000e+01 0 0 0
19 1 -3.3781250000000000e+01 -4.0537500000000000e+00 -1.2161250000000001e+01 0 0 0
20 1 -3.6483750000000001e+01 -1.3512500000000001e+00 -1.2161250000000001e+01 0 0 0
25 1 -3.6483750000000001e+01 1.3512500000000001e+00 -1.4863750000000000e+01 0 0 0
26 1 -3.3781250000000000e+01 4.0537500000000000e+00 -1.4863750000000000e+01 0 0 0
27 1 -3.3781250000000000e+01 1.3512500000000001e+00 -1.2161250000000001e+01 0 0 0
28 1 -3.6483750000000001e+01 4.0537500000000000e+00 -1.2161250000000001e+01 0 0 0
65 1 -3.6483750000000001e+01 -4.0537500000000000e+00 -9.4587500000000002e+00 0 0 0
66 1 -3.3781250000000000e+01 -1.3512500000000001e+00 -9.4587500000000002e+00 0 0 0
67 1 -3.3781250000000000e+01 -4.0537500000000000e+00 -6.7562499999999996e+00 0 0 0
68 1 -3.6483750000000001e+01 -1.3512500000000001e+00 -6.7562499999999996e+00 0 0 0
73 1 -3.6483750000000001e+01 1.3512500000000001e+00 -9.4587500000000002e+00 0 0 0
74 1 -3.3781250000000000e+01 4.0537500000000000e+00 -9.4587500000000002e+00 0 0 0
75 1 -3.3781250000000000e+01 1.3512500000000001e+00 -6.7562499999999996e+00 0 0 0
76 1 -3.6483750000000001e+01 4.0537500000000000e+00 -6.7562499999999996e+00 0 0 0
492 2 -3.0290694753356309e+01 4.3211319639507950e+00 -1.1998828496418591e+01 0 0 0
451 2 -3.0410951648932002e+01 -1.7087862020700768e+00 -9.7993745501003779e+00 0 0 0
729 2 -2.9777514434171440e+01 3.7014737155896560e+00 -8.1147063320530677e+00 0 0 0
649 2 -3.0912427859875500e+01 -1.0824826586936964e+00 -6.0697954537863730e+00 0 0 0
322 2 -2.9015794188353958e+01 -1.6150617129511897e+00 -1.5117611925483281e+01 0 0 0
320 2 -2.7159819477597807e+01 -9.6892666751146508e-02 -1.1816634096155335e+01 0 0 0
452 2 -2.7591719826466207e+01 1.3962973451939525e-01 -7.8322711464033823e+00 0 0 0
489 2 -2.6202963909178873e+01 3.1641662797345611e+00 -1.1480032004927837e+01 0 0 0
321 2 -2.0874576156912369e+01 -4.1897530970179186e+00 -1.2266592603134146e+01 0 0 0
339 2 -2.3152145089646559e+01 7.6820042629211249e-01 -1.3900997523392741e+01 0 0 0
450 2 -2.4243269478636982e+01 -2.5134290707755365e+00 -1.2267460040304794e+01 0 0 0
454 2 -2.0764213464930737e+01 -9.6878229389701934e-02 -1.1199790315476930e+01 0 0 0
456 2 -2.3834268868856611e+01 9.5282461201748347e-01 -9.6226346426698939e+00 0 0 0
491 2 -2.3776627872221578e+01 3.0547361233438122e+00 -5.8775771359684192e+00 0 0 0
493 2 -2.3238195846246725e+01 4.3511018814167182e+00 -9.4002520380178840e+00 0 0 0
494 2 -2.1270375221903546e+01 3.9343912733453235e+00 -1.2557019006061163e+01 0 0 0
495 2 -2.0082563594009770e+01 1.4604654290381491e+00 -7.7096203811028694e+00 0 0 0
324 2 -1.9944576572606532e+01 -1.6596340300094725e+00 -1.4897271382455447e+01 0 0 0
654 2 -2.1843162592123413e+01 -2.0809195845914630e+00 -7.6158489376430376e+00 0 0 0
651 2 -2.5134596047442155e+01 -3.4952274031891561e+00 -8.8611094786696309e+00 0 0 0
1241 2 -2.7664019692571340e+01 4.1773787140874177e+00 -1.4625626945309818e+01 0 0 1
461 2 -1.0047657118290825e+01 -2.9128171481973775e+00 -1.2252901509513791e+01 0 0 0
323 2 -1.4756887343257343e+01 -3.9667929284195682e+00 -1.6172106243453840e+01 0 0 0
326 2 -1.1890139532583246e+01 6.2487425829154375e-01 -1.4947587522660552e+01 0 0 0
343 2 -1.8188221747465739e+01 1.8504181841945282e+00 -1.4737519427751245e+01 0 0 0
457 2 -1.7231683427931937e+01 -3.6615361364913537e+00 -1.3448136075296350e+01 0 0 0
458 2 -1.4464635760765589e+01 -1.0906605086698862e+00 -1.1423635524836762e+01 0 0 0
459 2 -1.2978806092638425e+01 -2.5775832763986508e+00 -8.0805813241250490e+00 0 0 0
460 2 -1.6920474397724792e+01 -2.2600569339259393e+00 -7.2550988709248392e+00 0 0 0
464 2 -1.0881753532664286e+01 1.6659964707493591e+00 -6.4353472849972260e+00 0 0 0
497 2 -1.7676004181023046e+01 1.6381741049055452e+00 -1.1053348725362394e+01 0 0 0
498 2 -1.2772198568183626e+01 3.0565202178745641e+00 -9.5142000161557565e+00 0 0 0
499 2 -1.5494228868599116e+01 1.0840870732513497e+00 -7.1695856732563721e+00 0 0 0
500 2 -1.8603447370930922e+01 5.3761667686794814e+00 -9.8394091611268113e+00 0 0 0
697 2 -1.3981499679271455e+01 4.6301622528860342e+00 -6.5271652995313794e+00 0 0 0
1244 2 -1.2630793740315093e+01 3.6288239118655290e+00 -1.3391178472820762e+01 0 0 1
501 2 -1.0234380462785419e+01 7.9176931746022616e-01 -1.1371013449864325e+01 0 0 0
428 2 -4.9865110662575054e+00 -4.4328933882577175e+00 -6.7466996799338927e+00 0 0 0
325 2 -4.2056298307349360e+00 -3.2806112930499958e+00 -1.5894476251919524e+01 0 0 0
701 2 -7.7865642971993498e+00 1.4737095730349956e+00 -8.3204285201872938e+00 0 0 0
328 2 -3.5695453162533526e+00 7.9863694521757767e-01 -1.4916485445664678e+01 0 0 0
345 2 -7.1698660126580318e+00 -7.7937714801857549e-01 -1.4896136104053598e+01 0 0 0
462 2 -6.7693709533627864e+00 -4.3717177734097836e+00 -1.3692578258914427e+01 0 0 0
463 2 -7.9874173345194972e+00 -2.7249887221744853e+00 -8.4182858488595507e+00 0 0 0
465 2 -4.1551987228701392e+00 -5.1517032310928936e+00 -1.1011564822700507e+01 0 0 0
466 2 -1.9065263363297899e-01 2.1047320915423409e-01 -1.3257902168118926e+01 0 0 0
502 2 -8.5260077885227954e+00 2.6560752430092571e+00 -1.4214895610250950e+01 0 0 0
503 2 -6.0876325548388470e+00 2.1305877612614235e+00 -1.1720821534685054e+01 0 0 0
505 2 -4.8261617359247317e+00 -1.7654587558713244e+00 -1.1875474251672946e+01 0 0 0
507 2 -2.6668024700780864e+00 -1.7915174114106451e+00 -8.3747874751466043e+00 0 0 0
702 2 -8.5131493285269286e+00 5.2306503383748186e+00 -1.0234997334181113e+01 0 0 0
506 2 -4.2895758497422420e+00 3.8592700523054786e+00 -9.0533316125483196e+00 0 0 0
1068 2 -3.6481412836571021e+00 4.2446187874310528e+00 -1.4042099156358033e+01 0 0 1
1210 2 1.9746987305976853e+00 -5.1174123492390970e+00 -1.5582621628968676e+01 0 0 1
329 2 4.9233349712732331e+00 -4.4560710151703775e+00 -1.2965893773227531e+01 0 0 0
349 2 7.7922663395507072e+00 8.9879731813045316e-01 -1.5371790551700391e+01 0 0 0
350 2 5.2108167203416302e+00 4.6571099569363303e+00 -1.4986219486161541e+01 0 0 0
470 2 7.0706031720850309e+00 -2.7338005022685902e-01 -1.0594127414562660e+01 0 0 0
471 2 7.8474800149330939e+00 -4.5467314463395150e+00 -9.5031643929377694e+00 0 0 0
476 2 6.6410505918186473e+00 1.7073777584426848e+00 -7.3827565405423874e+00 0 0 0
509 2 4.3586037309130106e+00 -3.3535211854803770e-01 -1.4087574377738672e+01 0 0 0
511 2 3.7089643714453349e+00 -8.1099135040731407e-01 -8.4143608363507116e+00 0 0 0
516 2 5.5032121278690562e+00 2.7831256751624389e+00 -1.0594812297318544e+01 0 0 0
666 2 1.1018672743440738e+00 -2.3764518089295121e+00 -1.0517696108197615e+01 0 0 0
709 2 6.0078375845755450e-01 1.5007078621984333e+00 -8.6951666088922384e+00 0 0 0
713 2 2.8301433119901094e+00 4.2788685557894901e+00 -8.0078558852459363e+00 0 0 0
331 2 8.6790214649965964e+00 -4.7963106236879964e+00 -1.5627672820122932e+01 0 0 0
474 2 9.2852276075878279e+00 -6.2356901711678758e-01 -7.7259623855487574e+00 0 0 0
514 2 8.2673579398579733e+00 4.2488371142966530e+00 -1.2520373570270618e+01 0 0 0
553 2 7.8879410261865610e+00 5.0047237993065945e+00 -8.5617369189078083e+00 0 0 0
705 2 3.7818584048373166e-01 -2.5375381660468541e+00 -6.0135968340569956e+00 0 0 0
753 2 6.0791976270906849e+00 4.7636253270393825e+00 -5.5244218507036518e+00 0 0 0
332 2 1.0805157029123141e+01 -1.4248227647603477e+00 -1.2898909134628813e+01 0 0 0
513 2 9.8151078675452865e+00 2.5033680744005307e+00 -9.8310530924400901e+00 0 0 0
334 2 1.3995696771024569e+01 -4.7344133684897285e+00 -1.5713982280641526e+01 0 0 0
351 2 1.2203557593097322e+01 4.1890119358965681e+00 -1.4736781444937860e+01 0 0 0
353 2 1.4629867243533873e+01 4.4857015986813498e-01 -1.3461590000498925e+01 0 0 0
354 2 1.6046181466547630e+01 4.0863341380629024e+00 -1.5061004882926344e+01 0 0 0
478 2 1.7721128297915108e+01 -2.1538877421959501e+00 -1.2900732105292715e+01 0 0 0
479 2 1.5728657675154833e+01 -3.3002505058247760e+00 -9.4214712316931983e+00 0 0 0
480 2 1.2912731798134839e+01 -3.9610905500548359e+00 -1.2289885432003402e+01 0 0 0
517 2 1.2314303254262763e+01 -1.5025616869854579e+00 -9.6431381053350282e+00 0 0 0
519 2 1.6496122609318356e+01 1.3789777518489077e+00 -1.0371768425600544e+01 0 0 0
520 2 1.3972175111022329e+01 3.9487573361847743e+00 -1.0992038640606106e+01 0 0 0
674 2 1.2080692274029701e+01 -3.7533078565976834e+00 -6.5713118977714453e+00 0 0 0
714 2 1.3183342220854032e+01 3.2015862056472928e+00 -6.2534721937234243e+00 0 0 0
718 2 1.5854056008793966e+01 4.9776784659744822e+00 -7.3992156075958375e+00 0 0 0
1232 2 1.2441943721404485e+01 -3.1116515145314139e-01 -1.6023034180804760e+01 0 0 1
482 2 1.8912806635288028e+01 -1.4910306345954452e+00 -9.5624391486804008e+00 0 0 0
721 2 1.7319229653699765e+01 -1.7253975327676248e+00 -5.9167762740350733e+00 0 0 0
481 2 2.0058544732538316e+01 -4.4387398554696533e+00 -1.1170316030981192e+01 0 0 0
518 2 1.9050896178085839e+01 1.7941867328008239e+00 -1.3480843020597506e+01 0 0 0
336 2 2.2505698481986546e+01 -4.0326992573642713e+00 -1.4488734590189841e+01 0 0 0
338 2 2.3061888880449906e+01 -3.9778315367169039e+00 -8.6988923147488819e+00 0 0 0
355 2 2.2886525345183276e+01 1.1907609504143077e+00 -1.5829449385918517e+01 0 0 0
356 2 2.0974189988826616e+01 5.0171543599643540e+00 -1.5438885552230637e+01 0 0 0
358 2 2.7598924716940083e+01 2.9639642919159237e+00 -1.4106133816752934e+01 0 0 0
488 2 2.6191297420418053e+01 -1.0159448073654274e+00 -6.8935897742041261e+00 0 0 0
521 2 2.1725013659147464e+01 -1.0921508874374997e+00 -1.2781783743277336e+01 0 0 0
522 2 2.2304751797883249e+01 2.5455559379299264e+00 -1.2105709067971569e+01 0 0 0
523 2 2.2525242707169966e+01 -1.2350186058694344e-01 -9.3597739849508326e+00 0 0 0
524 2 1.9730803877821213e+01 1.3917959271989271e+00 -7.3653157068252311e+00 0 0 0
525 2 2.6043700036883539e+01 -1.8390383025920301e-01 -1.0876146240104942e+01 0 0 0
357 2 2.6068364674451185e+01 -3.4355106058063409e+00 -1.3761304100293581e+01 0 0 0
726 2 2.7808694525341867e+01 2.6159849956841752e+00 -6.7017196254403411e+00 0 0 0
528 2 2.5417582487091085e+01 4.9806850568283618e+00 -7.5577260040959935e+00 0 0 0
561 2 1.9657120163574000e+01 5.0217991010563772e+00 -1.1648858190749527e+01 0 0 0
21 1 3.3781250000000000e+01 -4.0537500000000000e+00 -1.4863750000000000e+01 0 0 0
22 1 3.6483750000000001e+01 -1.3512500000000001e+00 -1.4863750000000000e+01 0 0 0
23 1 3.6483750000000001e+01 -4.0537500000000000e+00 -1.2161250000000001e+01 0 0 0
24 1 3.3781250000000000e+01 -1.3512500000000001e+00 -1.2161250000000001e+01 0 0 0
29 1 3.3781250000000000e+01 1.3512500000000001e+00 -1.4863750000000000e+01 0 0 0
30 1 3.6483750000000001e+01 4.0537500000000000e+00 -1.4863750000000000e+01 0 0 0
31 1 3.6483750000000001e+01 1.3512500000000001e+00 -1.2161250000000001e+01 0 0 0
32 1 3.3781250000000000e+01 4.0537500000000000e+00 -1.2161250000000001e+01 0 0 0
69 1 3.3781250000000000e+01 -4.0537500000000000e+00 -9.4587500000000002e+00 0 0 0
70 1 3.6483750000000001e+01 -1.3512500000000001e+00 -9.4587500000000002e+00 0 0 0
71 1 3.6483750000000001e+01 -4.0537500000000000e+00 -6.7562499999999996e+00 0 0 0
72 1 3.3781250000000000e+01 -1.3512500000000001e+00 -6.7562499999999996e+00 0 0 0
77 1 3.3781250000000000e+01 1.3512500000000001e+00 -9.4587500000000002e+00 0 0 0
78 1 3.6483750000000001e+01 4.0537500000000000e+00 -9.4587500000000002e+00 0 0 0
79 1 3.6483750000000001e+01 1.3512500000000001e+00 -6.7562499999999996e+00 0 0 0
80 1 3.3781250000000000e+01 4.0537500000000000e+00 -6.7562499999999996e+00 0 0 0
486 2 3.0585116642920944e+01 -1.8155492083904182e-01 -1.3033831826565361e+01 0 0 0
487 2 3.0632929369073807e+01 -4.2599295052231421e+00 -7.0019503201844273e+00 0 0 0
527 2 3.0578888451718626e+01 -8.0847787034873342e-01 -9.3684595300155813e+00 0 0 0
33 1 -3.6483750000000001e+01 6.7562500000000005e+00 -1.4863750000000000e+01 0 0 0
34 1 -3.3781250000000000e+01 9.4587500000000002e+00 -1.4863750000000000e+01 0 0 0
35 1 -3.3781250000000000e+01 6.7562500000000005e+00 -1.2161250000000001e+01 0 0 0
36 1 -3.6483750000000001e+01 9.4587500000000002e+00 -1.2161250000000001e+01 0 0 0
41 1 -3.6483750000000001e+01 1.2161250000000001e+01 -1.4863750000000000e+01 0 0 0
42 1 -3.3781250000000000e+01 1.4863750000000001e+01 -1.4863750000000000e+01 0 0 0
43 1 -3.3781250000000000e+01 1.2161250000000001e+01 -1.2161250000000001e+01 0 0 0
44 1 -3.6483750000000001e+01 1.4863750000000001e+01 -1.2161250000000001e+01 0 0 0
81 1 -3.6483750000000001e+01 6.7562500000000005e+00 -9.4587500000000002e+00 0 0 0
82 1 -3.3781250000000000e+01 9.4587500000000002e+00 -9.4587500000000002e+00 0 0 0
83 1 -3.3781250000000000e+01 6.7562500000000005e+00 -6.7562499999999996e+00 0 0 0
84 1 -3.6483750000000001e+01 9.4587500000000002e+00 -6.7562499999999996e+00 0 0 0
89 1 -3.6483750000000001e+01 1.2161250000000001e+01 -9.4587500000000002e+00 0 0 0
90 1 -3.3781250000000000e+01 1.4863750000000001e+01 -9.4587500000000002e+00 0 0 0
91 1 -3.3781250000000000e+01 1.2161250000000001e+01 -6.7562499999999996e+00 0 0 0
92 1 -3.6483750000000001e+01 1.4863750000000001e+01 -6.7562499999999996e+00 0 0 0
360 2 -3.0225923442232926e+01 1.3049463370222218e+01 -1.3857674006930266e+01 0 0 0
529 2 -3.0285414626938863e+01 9.5875892564313006e+00 -1.1572591005358197e+01 0 0 0
569 2 -3.0160369839598424e+01 1.4248979442848142e+01 -9.7991219999893264e+00 0 0 0
340 2 -3.0576411163899930e+01 5.9179470307996827e+00 -1.5152320843069214e+01 0 0 0
531 2 -2.4435626192773153e+01 6.8886604454630529e+00 -7.3647732371353438e+00 0 0 0
391 2 -2.0995250962790298e+01 1.4349367002467410e+01 -9.2308521794864422e+00 0 -1 0
342 2 -2.8009829009775220e+01 9.6118285416690608e+00 -1.4767058835437986e+01 0 0 0
490 2 -2.7808757803627405e+01 6.6275049554709762e+00 -1.0069184240567111e+01 0 0 0
359 2 -2.6832984712365398e+01 1.2489849094439442e+01 -7.6684128855592855e+00 0 0 0
361 2 -2.3610140177980000e+01 1.0817026446372592e+01 -8.7459846248163924e+00 0 0 0
362 2 -2.7288364999080908e+01 1.1253200433732783e+01 -1.1169491091920731e+01 0 0 0
379 2 -2.7178250684359387e+01 1.5158736622375805e+01 -1.3874758047360757e+01 0 0 0
380 2 -2.1128142828021833e+01 9.6773936298146968e+00 -1.1561480354281249e+01 0 0 0
533 2 -2.0793015798538949e+01 7.8740478602138007e+00 -8.3397542292436295e+00 0 0 0
536 2 -2.1407916142937790e+01 1.0651705440960548e+01 -5.9843082336742572e+00 0 0 0
1242 2 -2.5015631312634035e+01 6.6825444733113697e+00 -1.2366892026733087e+01 0 0 1
1261 2 -2.2396435637146684e+01 8.3944770307360450e+00 -1.4736501078067326e+01 0 0 1
1280 2 -2.3907930935660843e+01 1.2075651138048347e+01 -1.2478824137972811e+01 0 0 1
992 2 -2.3401678959568372e+01 1.4374814857861141e+01 -1.6166737437481451e+01 0 -1 1
534 2 -1.8645655085715514e+01 1.1092566780566914e+01 -8.6000179292003782e+00 0 0 0
535 2 -1.7700560726727257e+01 1.4740578106080738e+01 -7.2419771035067013e+00 0 0 0
733 2 -1.8227142202302524e+01 6.0306142666810381e+00 -6.2251184865304712e+00 0 0 0
344 2 -1.2778669897584336e+01 6.7096909614246565e+00 -9.8974681438964236e+00 0 0 0
364 2 -1.7015528896528714e+01 1.0706544434001030e+01 -1.2058668512159835e+01 0 0 0
366 2 -9.4967841324831195e+00 6.4970485212952003e+00 -1.3711123909608942e+01 0 0 0
381 2 -1.1500515016356040e+01 1.4993804704765823e+01 -1.5331305301471781e+01 0 0 0
537 2 -1.4790966398759879e+01 8.8012067595610759e+00 -8.2709080864157674e+00 0 0 0
538 2 -1.2747119105107872e+01 8.1487679732039826e+00 -1.3591923598523747e+01 0 0 0
539 2 -1.1886606805403046e+01 8.9449075286801243e+00 -5.6819216553743814e+00 0 0 0
540 2 -1.5256484986396968e+01 1.2512406621422340e+01 -9.3770374275324482e+00 0 0 0
541 2 -1.0690484183612176e+01 9.8468943672721458e+00 -8.7962551124197876e+00 0 0 0
544 2 -1.1093677298258989e+01 1.4549632870940021e+01 -8.4783316307511143e+00 0 0 0
573 2 -1.7872348763685132e+01 1.4602270062673560e+01 -1.0665881877986864e+01 0 0 0
574 2 -1.3844883276477391e+01 1.5002001192998966e+01 -1.1727445125150064e+01 0 0 0
575 2 -1.0557410540422028e+01 1.2940421307498065e+01 -1.2180417189993204e+01 0 0 0
1263 2 -1.5711807317553019e+01 5.8688716871600901e+00 -1.4078479504209573e+01 0 0 1
1262 2 -1.4536663523808539e+01 1.2949239678986167e+01 -1.4318181313881693e+01 0 0 1
1282 2 -1.0836477856538810e+01 1.1149920934580077e+01 -1.6192864474516682e+01 0 0 1
347 2 -3.4585524426038899e-01 6.2083726174747094e+00 -1.4357484743042299e+01 0 0 0
508 2 -3.1185564597541764e+00 5.7186393528636339e+00 -6.2377237153643765e+00 0 0 0
472 2 -1.6563951956612037e+00 5.7038989462986436e+00 -1.0879582156077621e+01 0 0 0
397 2 -4.5808730384640475e+00 1.5390331146092384e+01 -1.1687823335977798e+01 0 -1 0
365 2 -7.1153634473566978e+00 8.4657212678653160e+00 -1.5822811893186978e+01 0 0 0
367 2 -3.1978262937789252e+00 7.3213681603462959e+00 -1.5797035390578019e+01 0 0 0
368 2 -4.1414218095688433e+00 9.8505762055644155e+00 -1.2200073688199213e+01 0 0 0
542 2 -8.1129169713686338e+00 9.8476764228839730e+00 -1.2512146587033435e+01 0 0 0
543 2 -7.1496541339852762e+00 8.9749183930728442e+00 -8.3942092958034316e+00 0 0 0
545 2 -5.6660840494896689e+00 6.6341732655583945e+00 -1.2814904441571597e+01 0 0 0
547 2 -3.1468053809642580e+00 8.8840149070705845e+00 -8.2571953134584142e+00 0 0 0