LAMMPS data file from restart file: timestep = 0, procs = 1

192 atoms

1 atom types

0.0000000000000000e+00 6.8628300383999999e+01 xlo xhi
0.0000000000000000e+00 2.2876100128000001e+01 ylo yhi
0.0000000000000000e+00 2.2876100128000001e+01 zlo zhi

Masses

1 39.948

Pair Coeffs

1 0.2381 3.405

Atoms

1 0 1 1.0000000000000001e-01 0.0000000000000000e+00 0.0000000000000000e+00 0.0000000000000000e+00 0 0 0
2 0 1 1.0000000000000001e-01 5.7190250320000002e+00 0.0000000000000000e+00 0.0000000000000000e+00 0 0 0
3 0 1 1.0000000000000001e-01 1.1438050064000000e+01 0.0000000000000000e+00 0.0000000000000000e+00 0 0 0
4 0 1 1.0000000000000001e-01 1.7157075096000000e+01 0.0000000000000000e+00 0.0000000000000000e+00 0 0 0
5 0 1 1.0000000000000001e-01 2.2876100128000001e+01 0.0000000000000000e+00 0.0000000000000000e+00 0 0 0
6 0 1 1.0000000000000001e-01 2.8595125160000002e+01 0.0000000000000000e+00 0.0000000000000000e+00 0 0 0
7 0 1 1.0000000000000001e-01 3.4314150192000000e+01 0.0000000000000000e+00 0.0000000000000000e+00 0 0 0
8 0 1 1.0000000000000001e-01 4.0033175224000004e+01 0.0000000000000000e+00 0.0000000000000000e+00 0 0 0
9 0 1 1.0000000000000001e-01 4.5752200256000002e+01 0.0000000000000000e+00 0.0000000000000000e+00 0 0 0
10 0 1 1.0000000000000001e-01 5.1471225287999999e+01 0.0000000000000000e+00 0.0000000000000000e+00 0 0 0
11 0 1 1.0000000000000001e-01 5.7190250320000004e+01 0.0000000000000000e+00 0.0000000000000000e+00 0 0 0
12 0 1 1.0000000000000001e-01 6.2909275352000002e+01 0.0000000000000000e+00 0.0000000000000000e+00 0 0 0
13 0 1 1.0000000000000001e-01 0.0000000000000000e+00 5.7190250320000002e+00 0.0000000000000000e+00 0 0 0
14 0 1 1.0000000000000001e-01 5.7190250320000002e+00 5.7190250320000002e+00 0.0000000000000000e+00 0 0 0
15 0 1 1.0000000000000001e-01 1.1438050064000000e+01 5.7190250320000002e+00 0.0000000000000000e+00 0 0 0
16 0 1 1.0000000000000001e-01 1.7157075096000000e+01 5.7190250320000002e+00 0.0000000000000000e+00 0 0 0
17 0 1 1.0000000000000001e-01 2.2876100128000001e+01 5.7190250320000002e+00 0.0000000000000000e+00 0 0 0
18 0 1 1.0000000000000001e-01 2.8595125160000002e+01 5.7190250320000002e+00 0.0000000000000000e+00 0 0 0
19 0 1 1.0000000000000001e-01 3.4314150192000000e+01 5.7190250320000002e+00 0.0000000000000000e+00 0 0 0
20 0 1 1.0000000000000001e-01 4.0033175224000004e+01 5.7190250320000002e+00 0.0000000000000000e+00 0 0 0
21 0 1 1.0000000000000001e-01 4.5752200256000002e+01 5.7190250320000002e+00 0.0000000000000000e+00 0 0 0
22 0 1 1.0000000000000001e-01 5.1471225287999999e+01 5.7190250320000002e+00 0.0000000000000000e+00 0 0 0
23 0 1 1.0000000000000001e-01 5.7190250320000004e+01 5.7190250320000002e+00 0.0000000000000000e+00 0 0 0
24 0 1 1.0000000000000001e-01 6.2909275352000002e+01 5.7190250320000002e+00 0.0000000000000000e+00 0 0 0
25 0 1 1.0000000000000001e-01 0.0000000000000000e+00 1.1438050064000000e+01 0.0000000000000000e+00 0 0 0
26 0 1 1.0000000000000001e-01 5.7190250320000002e+00 1.1438050064000000e+01 0.0000000000000000e+00 0 0 0
27 0 1 1.0000000000000001e-01 1.1438050064000000e+01 1.1438050064000000e+01 0.0000000000000000e+00 0 0 0
28 0 1 1.0000000000000001e-01 1.7157075096000000e+01 1.1438050064000000e+01 0.0000000000000000e+00 0 0 0
29 0 1 1.0000000000000001e-01 2.2876100128000001e+01 1.1438050064000000e+01 0.0000000000000000e+00 0 0 0
30 0 1 1.0000000000000001e-01 2.8595125160000002e+01 1.1438050064000000e+01 0.0000000000000000e+00 0 0 0
31 0 1 1.0000000000000001e-01 3.4314150192000000e+01 1.1438050064000000e+01 0.0000000000000000e+00 0 0 0
32 0 1 1.0000000000000001e-01 4.0033175224000004e+01 1.1438050064000000e+01 0.0000000000000000e+00 0 0 0
33 0 1 1.0000000000000001e-01 4.5752200256000002e+01 1.1438050064000000e+01 0.0000000000000000e+00 0 0 0
34 0 1 1.0000000000000001e-01 5.1471225287999999e+01 1.1438050064000000e+01 0.0000000000000000e+00 0 0 0
35 0 1 1.0000000000000001e-01 5.7190250320000004e+01 1.1438050064000000e+01 0.0000000000000000e+00 0 0 0
36 0 1 1.0000000000000001e-01 6.2909275352000002e+01 1.1438050064000000e+01 0.0000000000000000e+00 0 0 0
37 0 1 1.0000000000000001e-01 0.0000000000000000e+00 1.7157075096000000e+01 0.0000000000000000e+00 0 0 0
38 0 1 1.0000000000000001e-01 5.7190250320000002e+00 1.7157075096000000e+01 0.0000000000000000e+00 0 0 0
39 0 1 1.0000000000000001e-01 1.1438050064000000e+01 1.7157075096000000e+01 0.0000000000000000e+00 0 0 0
40 0 1 1.0000000000000001e-01 1.7157075096000000e+01 1.7157075096000000e+01 0.0000000000000000e+00 0 0 0
41 0 1 1.0000000000000001e-01 2.2876100128000001e+01 1.7157075096000000e+01 0.0000000000000000e+00 0 0 0
42 0 1 1.0000000000000001e-01 2.8595125160000002e+01 1.7157075096000000e+01 0.0000000000000000e+00 0 0 0
43 0 1 1.0000000000000001e-01 3.4314150192000000e+01 1.7157075096000000e+01 0.0000000000000000e+00 0 0 0
44 0 1 1.0000000000000001e-01 4.0033175224000004e+01 1.7157075096000000e+01 0.0000000000000000e+00 0 0 0
45 0 1 1.0000000000000001e-01 4.5752200256000002e+01 1.7157075096000000e+01 0.0000000000000000e+00 0 0 0
46 0 1 1.0000000000000001e-01 5.1471225287999999e+01 1.7157075096000000e+01 0.0000000000000000e+00 0 0 0
47 0 1 1.0000000000000001e-01 5.7190250320000004e+01 1.7157075096000000e+01 0.0000000000000000e+00 0 0 0
48 0 1 1.0000000000000001e-01 6.2909275352000002e+01 1.7157075096000000e+01 0.0000000000000000e+00 0 0 0
49 0 1 1.0000000000000001e-01 0.0000000000000000e+00 0.0000000000000000e+00 5.7190250320000002e+00 0 0 0
50 0 1 1.0000000000000001e-01 5.7190250320000002e+00 0.0000000000000000e+00 5.7190250320000002e+00 0 0 0
51 0 1 1.0000000000000001e-01 1.1438050064000000e+01 0.0000000000000000e+00 5.7190250320000002e+00 0 0 0
52 0 1 1.0000000000000001e-01 1.7157075096000000e+01 0.0000000000000000e+00 5.7190250320000002e+00 0 0 0
53 0 1 1.0000000000000001e-01 2.2876100128000001e+01 0.0000000000000000e+00 5.7190250320000002e+00 0 0 0
54 0 1 1.0000000000000001e-01 2.8595125160000002e+01 0.0000000000000000e+00 5.7190250320000002e+00 0 0 0
55 0 1 1.0000000000000001e-01 3.4314150192000000e+01 0.0000000000000000e+00 5.7190250320000002e+00 0 0 0
56 0 1 1.0000000000000001e-01 4.0033175224000004e+01 0.0000000000000000e+00 5.7190250320000002e+00 0 0 0
57 0 1 1.0000000000000001e-01 4.5752200256000002e+01 0.0000000000000000e+00 5.7190250320000002e+00 0 0 0
58 0 1 1.0000000000000001e-01 5.1471225287999999e+01 0.0000000000000000e+00 5.7190250320000002e+00 0 0 0
59 0 1 1.0000000000000001e-01 5.7190250320000004e+01 0.0000000000000000e+00 5.7190250320000002e+00 0 0 0
60 0 1 1.0000000000000001e-01 6.2909275352000002e+01 0.0000000000000000e+00 5.7190250320000002e+00 0 0 0
61 0 1 1.0000000000000001e-01 0.0000000000000000e+00 5.7190250320000002e+00 5.7190250320000002e+00 0 0 0
62 0 1 1.0000000000000001e-01 5.7190250320000002e+00 5.7190250320000002e+00 5.7190250320000002e+00 0 0 0
63 0 1 1.0000000000000001e-01 1.1438050064000000e+01 5.7190250320000002e+00 5.7190250320000002e+00 0 0 0
64 0 1 1.0000000000000001e-01 1.7157075096000000e+01 5.7190250320000002e+00 5.7190250320000002e+00 0 0 0
65 0 1 1.0000000000000001e-01 2.2876100128000001e+01 5.7190250320000002e+00 5.7190250320000002e+00 0 0 0
66 0 1 1.0000000000000001e-01 2.8595125160000002e+01 5.7190250320000002e+00 5.7190250320000002e+00 0 0 0
67 0 1 1.0000000000000001e-01 3.4314150192000000e+01 5.7190250320000002e+00 5.7190250320000002e+00 0 0 0
68 0 1 1.0000000000000001e-01 4.0033175224000004e+01 5.7190250320000002e+00 5.7190250320000002e+00 0 0 0
69 0 1 1.0000000000000001e-01 4.5752200256000002e+01 5.7190250320000002e+00 5.7190250320000002e+00 0 0 0
70 0 1 1.0000000000000001e-01 5.1471225287999999e+01 5.7190250320000002e+00 5.7190250320000002e+00 0 0 0
71 0 1 1.0000000000000001e-01 5.7190250320000004e+01 5.7190250320000002e+00 5.7190250320000002e+00 0 0 0
72 0 1 1.0000000000000001e-01 6.2909275352000002e+01 5.7190250320000002e+00 5.7190250320000002e+00 0 0 0
73 0 1 1.0000000000000001e-01 0.0000000000000000e+00 1.1438050064000000e+01 5.7190250320000002e+00 0 0 0
74 0 1 1.0000000000000001e-01 5.7190250320000002e+00 1.1438050064000000e+01 5.7190250320000002e+00 0 0 0
75 0 1 1.0000000000000001e-01 1.1438050064000000e+01 1.1438050064000000e+01 5.7190250320000002e+00 0 0 0
76 0 1 1.0000000000000001e-01 1.7157075096000000e+01 1.1438050064000000e+01 5.7190250320000002e+00 0 0 0
77 0 1 1.0000000000000001e-01 2.2876100128000001e+01 1.1438050064000000e+01 5.7190250320000002e+00 0 0 0
78 0 1 1.0000000000000001e-01 2.8595125160000002e+01 1.1438050064000000e+01 5.7190250320000002e+00 0 0 0
79 0 1 1.0000000000000001e-01 3.4314150192000000e+01 1.1438050064000000e+01 5.7190250320000002e+00 0 0 0
80 0 1 1.0000000000000001e-01 4.0033175224000004e+01 1.1438050064000000e+01 5.7190250320000002e+00 0 0 0
81 0 1 1.0000000000000001e-01 4.5752200256000002e+01 1.1438050064000000e+01 5.7190250320000002e+00 0 0 0
82 0 1 1.0000000000000001e-01 5.1471225287999999e+01 1.1438050064000000e+01 5.7190250320000002e+00 0 0 0
83 0 1 1.0000000000000001e-01 5.7190250320000004e+01 1.1438050064000000e+01 5.7190250320000002e+00 0 0 0
84 0 1 1.0000000000000001e-01 6.2909275352000002e+01 1.1438050064000000e+01 5.7190250320000002e+00 0 0 0
85 0 1 1.0000000000000001e-01 0.0000000000000000e+00 1.7157075096000000e+01 5.7190250320000002e+00 0 0 0
86 0 1 1.0000000000000001e-01 5.7190250320000002e+00 1.7157075096000000e+01 5.7190250320000002e+00 0 0 0
87 0 1 1.0000000000000001e-01 1.1438050064000000e+01 1.7157075096000000e+01 5.7190250320000002e+00 0 0 0
88 0 1 1.0000000000000001e-01 1.7157075096000000e+01 1.7157075096000000e+01 5.7190250320000002e+00 0 0 0
89 0 1 1.0000000000000001e-01 2.2876100128000001e+01 1.7157075096000000e+01 5.7190250320000002e+00 0 0 0
90 0 1 1.0000000000000001e-01 2.8595125160000002e+01 1.7157075096000000e+01 5.7190250320000002e+00 0 0 0
91 0 1 1.0000000000000001e-01 3.4314150192000000e+01 1.7157075096000000e+01 5.7190250320000002e+00 0 0 0
92 0 1 1.0000000000000001e-01 4.0033175224000004e+01 1.7157075096000000e+01 5.7190250320000002e+00 0 0 0
93 0 1 1.0000000000000001e-01 4.5752200256000002e+01 1.7157075096000000e+01 5.7190250320000002e+00 0 0 0
94 0 1 1.0000000000000001e-01 5.1471225287999999e+01 1.7157075096000000e+01 5.7190250320000002e+00 0 0 0
95 0 1 1.0000000000000001e-01 5.7190250320000004e+01 1.7157075096000000e+01 5.7190250320000002e+00 0 0 0
96 0 1 1.0000000000000001e-01 6.2909275352000002e+01 1.7157075096000000e+01 5.7190250320000002e+00 0 0 0
97 0 1 1.0000000000000001e-01 0.0000000000000000e+00 0.0000000000000000e+00 1.1438050064000000e+01 0 0 0
98 0 1 1.0000000000000001e-01 5.7190250320000002e+00 0.0000000000000000e+00 1.1438050064000000e+01 0 0 0
99 0 1 1.0000000000000001e-01 1.1438050064000000e+01 0.0000000000000000e+00 1.1438050064000000e+01 0 0 0
100 0 1 1.0000000000000001e-01 1.7157075096000000e+01 0.0000000000000000e+00 1.1438050064000000e+01 0 0 0
101 0 1 1.0000000000000001e-01 2.2876100128000001e+01 0.0000000000000000e+00 1.1438050064000000e+01 0 0 0
102 0 1 1.0000000000000001e-01 2.8595125160000002e+01 0.0000000000000000e+00 1.1438050064000000e+01 0 0 0
103 0 1 1.0000000000000001e-01 3.4314150192000000e+01 0.0000000000000000e+00 1.1438050064000000e+01 0 0 0
104 0 1 1.0000000000000001e-01 4.0033175224000004e+01 0.0000000000000000e+00 1.1438050064000000e+01 0 0 0
105 0 1 1.0000000000000001e-01 4.5752200256000002e+01 0.0000000000000000e+00 1.1438050064000000e+01 0 0 0
106 0 1 1.0000000000000001e-01 5.1471225287999999e+01 0.0000000000000000e+00 1.1438050064000000e+01 0 0 0
107 0 1 1.0000000000000001e-01 5.7190250320000004e+01 0.0000000000000000e+00 1.1438050064000000e+01 0 0 0
108 0 1 1.0000000000000001e-01 6.2909275352000002e+01 0.0000000000000000e+00 1.1438050064000000e+01 0 0 0
109 0 1 1.0000000000000001e-01 0.0000000000000000e+00 5.7190250320000002e+00 1.1438050064000000e+01 0 0 0
110 0 1 1.0000000000000001e-01 5.7190250320000002e+00 5.7190250320000002e+00 1.1438050064000000e+01 0 0 0
111 0 1 1.0000000000000001e-01 1.1438050064000000e+01 5.7190250320000002e+00 1.1438050064000000e+01 0 0 0
112 0 1 1.0000000000000001e-01 1.7157075096000000e+01 5.7190250320000002e+00 1.1438050064000000e+01 0 0 0
113 0 1 1.0000000000000001e-01 2.2876100128000001e+01 5.7190250320000002e+00 1.1438050064000000e+01 0 0 0
114 0 1 1.0000000000000001e-01 2.8595125160000002e+01 5.7190250320000002e+00 1.1438050064000000e+01 0 0 0
115 0 1 1.0000000000000001e-01 3.4314150192000000e+01 5.7190250320000002e+00 1.1438050064000000e+01 0 0 0
116 0 1 1.0000000000000001e-01 4.0033175224000004e+01 5.7190250320000002e+00 1.1438050064000000e+01 0 0 0
117 0 1 1.0000000000000001e-01 4.5752200256000002e+01 5.7190250320000002e+00 1.1438050064000000e+01 0 0 0
118 0 1 1.0000000000000001e-01 5.1471225287999999e+01 5.7190250320000002e+00 1.1438050064000000e+01 0 0 0
119 0 1 1.0000000000000001e-01 5.7190250320000004e+01 5.7190250320000002e+00 1.1438050064000000e+01 0 0 0
120 0 1 1.0000000000000001e-01 6.2909275352000002e+01 5.7190250320000002e+00 1.1438050064000000e+01 0 0 0
121 0 1 1.0000000000000001e-01 0.0000000000000000e+00 1.1438050064000000e+01 1.1438050064000000e+01 0 0 0
122 0 1 1.0000000000000001e-01 5.7190250320000002e+00 1.1438050064000000e+01 1.1438050064000000e+01 0 0 0
123 0 1 1.0000000000000001e-01 1.1438050064000000e+01 1.1438050064000000e+01 1.1438050064000000e+01 0 0 0
124 0 1 1.0000000000000001e-01 1.7157075096000000e+01 1.1438050064000000e+01 1.1438050064000000e+01 0 0 0
125 0 1 1.0000000000000001e-01 2.2876100128000001e+01 1.1438050064000000e+01 1.1438050064000000e+01 0 0 0
126 0 1 1.0000000000000001e-01 2.8595125160000002e+01 1.1438050064000000e+01 1.1438050064000000e+01 0 0 0
127 0 1 1.0000000000000001e-01 3.4314150192000000e+01 1.1438050064000000e+01 1.1438050064000000e+01 0 0 0
128 0 1 1.0000000000000001e-01 4.0033175224000004e+01 1.1438050064000000e+01 1.1438050064000000e+01 0 0 0
129 0 1 1.0000000000000001e-01 4.5752200256000002e+01 1.1438050064000000e+01 1.1438050064000000e+01 0 0 0
130 0 1 1.0000000000000001e-01 5.1471225287999999e+01 1.1438050064000000e+01 1.1438050064000000e+01 0 0 0
131 0 1 1.0000000000000001e-01 5.7190250320000004e+01 1.1438050064000000e+01 1.1438050064000000e+01 0 0 0
132 0 1 1.0000000000000001e-01 6.2909275352000002e+01 1.1438050064000000e+01 1.1438050064000000e+01 0 0 0
133 0 1 1.0000000000000001e-01 0.0000000000000000e+00 1.7157075096000000e+01 1.1438050064000000e+01 0 0 0
134 0 1 1.0000000000000001e-01 5.7190250320000002e+00 1.7157075096000000e+01 1.1438050064000000e+01 0 0 0
135 0 1 1.0000000000000001e-01 1.1438050064000000e+01 1.7157075096000000e+01 1.1438050064000000e+01 0 0 0
136 0 1 1.0000000000000001e-01 1.7157075096000000e+01 1.7157075096000000e+01 1.1438050064000000e+01 0 0 0
137 0 1 1.0000000000000001e-01 2.2876100128000001e+01 1.7157075096000000e+01 1.1438050064000000e+01 0 0 0
138 0 1 1.0000000000000001e-01 2.8595125160000002e+01 1.7157075096000000e+01 1.1438050064000000e+01 0 0 0
139 0 1 1.0000000000000001e-01 3.4314150192000000e+01 1.7157075096000000e+01 1.1438050064000000e+01 0 0 0
140 0 1 1.0000000000000001e-01 4.0033175224000004e+01 1.7157075096000000e+01 1.1438050064000000e+01 0 0 0
141 0 1 1.0000000000000001e-01 4.5752200256000002e+01 1.7157075096000000e+01 1.1438050064000000e+01 0 0 0
142 0 1 1.0000000000000001e-01 5.1471225287999999e+01 1.7157075096000000e+01 1.1438050064000000e+01 0 0 0
143 0 1 1.0000000000000001e-01 5.7190250320000004e+01 1.7157075096000000e+01 1.1438050064000000e+01 0 0 0
144 0 1 1.0000000000000001e-01 6.2909275352000002e+01 1.7157075096000000e+01 1.1438050064000000e+01 0 0 0
145 0 1 1.0000000000000001e-01 0.0000000000000000e+00 0.0000000000000000e+00 1.7157075096000000e+01 0 0 0
146 0 1 1.0000000000000001e-01 5.7190250320000002e+00 0.0000000000000000e+00 1.7157075096000000e+01 0 0 0
147 0 1 1.0000000000000001e-01 1.1438050064000000e+01 0.0000000000000000e+00 1.7157075096000000e+01 0 0 0
148 0 1 1.0000000000000001e-01 1.7157075096000000e+01 0.0000000000000000e+00 1.7157075096000000e+01 0 0 0
149 0 1 1.0000000000000001e-01 2.2876100128000001e+01 0.0000000000000000e+00 1.7157075096000000e+01 0 0 0
150 0 1 1.0000000000000001e-01 2.8595125160000002e+01 0.0000000000000000e+00 1.7157075096000000e+01 0 0 0
151 0 1 1.0000000000000001e-01 3.4314150192000000e+01 0.0000000000000000e+00 1.7157075096000000e+01 0 0 0
152 0 1 1.0000000000000001e-01 4.0033175224000004e+01 0.0000000000000000e+00 1.7157075096000000e+01 0 0 0
153 0 1 1.0000000000000001e-01 4.5752200256000002e+01 0.0000000000000000e+00 1.7157075096000000e+01 0 0 0
154 0 1 1.0000000000000001e-01 5.1471225287999999e+01 0.0000000000000000e+00 1.7157075096000000e+01 0 0 0
155 0 1 1.0000000000000001e-01 5.7190250320000004e+01 0.0000000000000000e+00 1.7157075096000000e+01 0 0 0
156 0 1 1.0000000000000001e-01 6.2909275352000002e+01 0.0000000000000000e+00 1.7157075096000000e+01 0 0 0
157 0 1 1.0000000000000001e-01 0.0000000000000000e+00 5.7190250320000002e+00 1.7157075096000000e+01 0 0 0
158 0 1 1.0000000000000001e-01 5.7190250320000002e+00 5.7190250320000002e+00 1.7157075096000000e+01 0 0 0
159 0 1 1.0000000000000001e-01 1.1438050064000000e+01 5.7190250320000002e+00 1.7157075096000000e+01 0 0 0
160 0 1 1.0000000000000001e-01 1.7157075096000000e+01 5.7190250320000002e+00 1.7157075096000000e+01 0 0 0
161 0 1 1.0000000000000001e-01 2.2876100128000001e+01 5.7190250320000002e+00 1.7157075096000000e+01 0 0 0
162 0 1 1.0000000000000001e-01 2.8595125160000002e+01 5.7190250320000002e+00 1.7157075096000000e+01 0 0 0
163 0 1 1.0000000000000001e-01 3.4314150192000000e+01 5.7190250320000002e+00 1.7157075096000000e+01 0 0 0
164 0 1 1.0000000000000001e-01 4.0033175224000004e+01 5.7190250320000002e+00 1.7157075096000000e+01 0 0 0
165 0 1 1.0000000000000001e-01 4.5752200256000002e+01 5.7190250320000002e+00 1.7157075096000000e+01 0 0 0
166 0 1 1.0000000000000001e-01 5.1471225287999999e+01 5.7190250320000002e+00 1.7157075096000000e+01 0 0 0
167 0 1 1.0000000000000001e-01 5.7190250320000004e+01 5.7190250320000002e+00 1.7157075096000000e+01 0 0 0
168 0 1 1.0000000000000001e-01 6.2909275352000002e+01 5.7190250320000002e+00 1.7157075096000000e+01 0 0 0
169 0 1 1.0000000000000001e-01 0.0000000000000000e+00 1.1438050064000000e+01 1.7157075096000000e+01 0 0 0
170 0 1 1.0000000000000001e-01 5.7190250320000002e+00 1.1438050064000000e+01 1.7157075096000000e+01 0 0 0
171 0 1 1.0000000000000001e-01 1.1438050064000000e+01 1.1438050064000000e+01 1.7157075096000000e+01 0 0 0
172 0 1 1.0000000000000001e-01 1.7157075096000000e+01 1.1438050064000000e+01 1.7157075096000000e+01 0 0 0
173 0 1 1.0000000000000001e-01 2.2876100128000001e+01 1.1438050064000000e+01 1.7157075096000000e+01 0 0 0
174 0 1 1.0000000000000001e-01 2.8595125160000002e+01 1.1438050064000000e+01 1.7157075096000000e+01 0 0 0
175 0 1 1.0000000000000001e-01 3.4314150192000000e+01 1.1438050064000000e+01 1.7157075096000000e+01 0 0 0
176 0 1 1.0000000000000001e-01 4.0033175224000004e+01 1.1438050064000000e+01 1.7157075096000000e+01 0 0 0
177 0 1 1.0000000000000001e-01 4.5752200256000002e+01 1.1438050064000000e+01 1.7157075096000000e+01 0 0 0
178 0 1 1.0000000000000001e-01 5.1471225287999999e+01 1.1438050064000000e+01 1.7157075096000000e+01 0 0 0
179 0 1 1.0000000000000001e-01 5.7190250320000004e+01 1.1438050064000000e+01 1.7157075096000000e+01 0 0 0
180 0 1 1.0000000000000001e-01 6.2909275352000002e+01 1.1438050064000000e+01 1.7157075096000000e+01 0 0 0
181 0 1 1.0000000000000001e-01 0.0000000000000000e+00 1.7157075096000000e+01 1.7157075096000000e+01 0 0 0
182 0 1 1.0000000000000001e-01 5.7190250320000002e+00 1.7157075096000000e+01 1.7157075096000000e+01 0 0 0
183 0 1 1.0000000000000001e-01 1.1438050064000000e+01 1.7157075096000000e+01 1.7157075096000000e+01 0 0 0
184 0 1 1.0000000000000001e-01 1.7157075096000000e+01 1.7157075096000000e+01 1.7157075096000000e+01 0 0 0
185 0 1 1.0000000000000001e-01 2.2876100128000001e+01 1.7157075096000000e+01 1.7157075096000000e+01 0 0 0
186 0 1 1.0000000000000001e-01 2.8595125160000002e+01 1.7157075096000000e+01 1.7157075096000000e+01 0 0 0
187 0 1 1.0000000000000001e-01 3.4314150192000000e+01 1.7157075096000000e+01 1.7157075096000000e+01 0 0 0
188 0 1 1.0000000000000001e-01 4.0033175224000004e+01 1.7157075096000000e+01 1.7157075096000000e+01 0 0 0
189 0 1 1.0000000000000001e-01 4.5752200256000002e+01 1.7157075096000000e+01 1.7157075096000000e+01 0 0 0
190 0 1 1.0000000000000001e-01 5.1471225287999999e+01 1.7157075096000000e+01 1.7157075096000000e+01 0 0 0
191 0 1 1.0000000000000001e-01 5.7190250320000004e+01 1.7157075096000000e+01 1.7157075096000000e+01 0 0 0
192 0 1 1.0000000000000001e-01 6.2909275352000002e+01 1.7157075096000000e+01 1.7157075096000000e+01 0 0 0

Velocities

1 1.0404161750967621e-03 1.2110506349777565e-03 -1.2239017100439940e-03
2 -1.0872806494960456e-03 -1.4599723894224534e-03 -6.6718494416859783e-04
3 1.0327830601435330e-03 -1.1710119038747156e-04 1.0541310065117651e-03
4 3.9229535303757386e-04 -1.2575935643668217e-03 -1.0258757361127264e-03
5 9.4647163169451099e-04 -2.0615083624548690e-05 -1.3173253389736888e-03
6 2.4545349117416643e-03 4.0182398636055333e-03 -1.6673292682797393e-03
7 7.7326557920808869e-04 1.2704670393469081e-03 9.7711364431528943e-04
8 -8.0839289421024861e-04 2.6378649397151870e-04 -1.8156574901770461e-03
9 -2.8945098406990875e-04 -4.2892521798896691e-04 3.6403093879009199e-04
10 -1.4855729246403780e-03 -4.2917661941446945e-04 2.3391894170893186e-03
11 -1.9030227867885752e-04 -1.2336879069571509e-03 -7.9857516800656151e-04
12 4.1375139132836958e-03 -1.4242263680586491e-03 -3.1311878624750025e-04
13 1.8717931798705080e-04 -1.0187020164158152e-04 -3.0013424456441693e-03
14 2.9329731979595743e-03 -2.7217448884033959e-03 2.9146821900309698e-04
15 -7.3077378306052657e-04 6.0281484573880117e-04 -1.6320461244292723e-03
16 2.8706390414123237e-04 2.4825341995799262e-03 1.8193353487402815e-03
17 -9.5525164613166494e-04 -8.4863812102200814e-04 3.1427016068611346e-04
18 -2.7323621344300469e-03 -1.0826859203700622e-03 2.5673655598945589e-03
19 -2.4026638258672068e-03 7.7752120631976063e-04 -2.2904520322024531e-03
20 -1.3787901031147426e-04 9.8798623206554462e-05 -4.0145322920677316e-04
21 -1.4590769785733800e-03 1.0662429837145022e-03 6.7693983447283208e-04
22 -3.1431339314900438e-04 -2.0305492644622069e-03 2.9537816114106046e-04
23 -1.5071822154594057e-03 1.0361837503754085e-03 -6.7585682930259856e-04
24 -1.7574147278286412e-03 1.0438569037949203e-03 2.7298133011878973e-03
25 -2.1777691551843150e-03 -2.8837388257180917e-04 1.0569329183532361e-03
26 -1.4598114142392248e-03 -4.2798209138326877e-04 -1.6188398791573768e-03
27 -5.3585253976177929e-04 1.1727070906731168e-03 -1.1336456303544587e-03
28 1.3400931586731051e-04 -7.5959032364304995e-04 -6.0048792099076046e-04
29 -4.5408130551502252e-04 -2.1119307111199475e-04 5.6868701182200801e-04
30 -1.5458000354700305e-03 1.1899461980268773e-03 -3.2678520471019394e-03
31 -1.9962900545919013e-03 1.1129436832736247e-03 1.3853660123197236e-04
32 -1.4238374030845688e-03 -1.6349882937580131e-03 -1.4159620159293186e-03
33 -4.3912375209235013e-04 -2.3596322780029492e-03 -2.4059215949821578e-03
34 -7.4988258859127836e-04 3.3560704667048753e-03 -2.5146291668142378e-03
35 8.0906768409934302e-05 -3.3811280763884678e-03 -1.4425438048847892e-03
36 -2.0860883829092640e-03 -4.4199287753170224e-04 -2.3712774077673084e-03
37 -2.1240817266303491e-03 3.1124117455725853e-03 -1.0765465267852882e-03
38 8.3864935038119742e-06 2.9350426492816906e-03 -1.3830812742864902e-03
39 -1.5973816505868534e-04 -2.0423750308478572e-03 -2.1481193013653125e-03
40 4.4146014334681035e-04 1.5672720015832515e-03 -9.7649808211933332e-05
41 2.0420034267978346e-03 9.9854572501880279e-04 -2.3913066458368095e-03
42 -1.3709721181841621e-03 -2.1931270883801856e-03 1.4667197193498789e-03
43 -7.2185504399323308e-04 -2.0305534047252217e-03 1.3223319940962141e-03
44 1.4573328493837656e-03 1.3819296505058576e-03 -2.4879472397727771e-03
45 -1.2102337793611997e-03 -1.6818013281184371e-03 -3.6131340931578991e-04
46 -1.2544081475433172e-03 1.2941040166790491e-04 6.6001999014067851e-04
47 -1.2252524387418606e-03 8.8040343648634509e-05 8.5771503104828005e-04
48 7.5905917051569051e-04 1.0447393245012170e-03 -1.8723047443314402e-03
49 -1.0913377222406782e-03 -2.9754867510340555e-03 3.9894596943107373e-03
50 -1.9140298167289423e-04 9.7882083584696893e-04 -8.3334961269445728e-05
51 1.6783606102176746e-03 1.2393385028931325e-03 -1.3917764883241905e-03
52 -2.7042440774828599e-04 -7.5135263957108506e-04 1.8210649741957504e-03
53 2.6859232530989643e-04 8.3901752628375915e-04 2.1823380300532210e-03
54 -2.0253433912429840e-03 1.6045165029610357e-04 -6.8416543988602648e-05
55 -3.8329053724280141e-04 1.1838495339265029e-03 -2.0884640753599756e-03
56 5.9398415977318653e-04 7.4794816382227586e-04 -8.1394892391891695e-04
57 -2.4438210451055058e-03 1.8851747692400572e-03 -1.8872066702417831e-03
58 2.0379063346397688e-04 2.3091729770527924e-03 -1.4941759402329927e-03
59 -2.2059715370718589e-03 -1.8051594817780905e-03 2.8647413055925114e-03
60 4.1845555499783105e-06 6.5209397964322187e-04 4.2970442590167069e-04
61 -6.0840563191058642e-05 -1.3911921418916188e-03 6.4649875227394855e-04
62 8.2167150081875187e-04 -1.0847037604107588e-04 2.4628107899249451e-03
63 -1.6850637718363150e-03 3.5559087843238963e-04 -3.7825391577239108e-04
64 1.9507360971268192e-03 1.3752205735010665e-04 -1.4952010354845173e-03
65 1.6317872530619041e-03 -9.8034618683323616e-04 -6.5454778177295779e-04
66 -1.6296926556558418e-03 8.3385434448768293e-04 1.2172252366681746e-03
67 -3.0811544724732849e-03 -7.0488928238120608e-04 2.4224944482089342e-03
68 1.0442118388282458e-03 -3.1220311432727885e-03 -5.6189567174577953e-04
69 -1.0749692688215267e-03 -1.5444850990976948e-03 1.1387589265607287e-03
70 2.0610762885326923e-03 9.4179506467783605e-04 -8.4388763391398346e-04
71 -3.1512832570198285e-03 -6.5578415537561501e-04 7.9758653572088408e-04
72 -2.7880576663048026e-05 -1.0960876676938886e-03 1.5005174929263734e-03
73 3.9005553089282096e-04 1.8683198186706226e-03 1.0063019213025731e-03
74 3.2230201724258285e-04 2.7183205378842768e-03 3.7562189018411639e-04
75 2.2792582678571867e-03 2.4948379637885335e-03 -4.7769898334031741e-04
76 7.1068336929671879e-04 6.8139232383046837e-04 -3.8419050098709937e-04
77 -1.6785393549059789e-04 -1.8205066180762410e-03 -1.1704263168315671e-03
78 8.6315545958399922e-04 5.1413834224984579e-04 -7.1913455424820665e-04
79 -1.1486541238035438e-03 1.2135102820329212e-03 -1.3477681854125541e-03
80 1.0450315194103373e-03 -1.7871055503304472e-03 2.8738299287060019e-03
81 3.5590454332096381e-03 3.9313275393016675e-04 3.1739172189947941e-03
82 -2.1947034235196111e-05 1.7185192864703884e-03 -5.6021857543433345e-04
83 -4.3755371900800507e-04 -9.6929778977831148e-04 1.1758283117107751e-03
84 -1.9118570683041081e-03 -9.8212623229278163e-04 1.3846678761453820e-03
85 7.5047421463085259e-04 -1.6237783736340050e-03 6.1094830517372260e-04
86 -1.9862782745679480e-03 7.0061737179153143e-04 -9.3771809263789696e-04
87 1.5026956147063770e-03 -5.4209287635611472e-04 -7.8531731955743076e-04
88 1.7680149521318567e-03 1.7910050525409248e-03 1.1020150519131342e-03
89 5.4084632349479605e-04 -1.0886155354487758e-04 1.4399038629496973e-03
90 -5.3337898342524449e-04 7.8473045415746700e-06 2.4626169045459719e-03
91 -1.5929690300966785e-03 1.4563330020094989e-03 1.6071251045261118e-03
92 5.7473553090071937e-04 -6.9305724239929439e-04 -3.5338340069945426e-03
93 2.2516871038102300e-03 -2.4956656745147421e-04 -1.0097313364454644e-03
94 -6.7455364405254506e-04 9.2918985825453740e-04 4.9131319323465642e-04
95 1.9289151758715225e-04 -7.7918634912196025e-04 -7.3351143036781252e-04
96 -9.9114442943030941e-05 6.5568436811538943e-04 -1.1595120494226380e-03
97 9.1116808084841083e-04 -2.4753484983469354e-03 -1.9116608554483690e-03
98 1.5332984178568364e-03 -3.0974510270834546e-04 2.7300036675380565e-03
99 -3.4918988631584235e-04 2.8364318664660221e-03 -2.2468049506438295e-03
100 -9.5464034575241908e-04 -2.1766385748588236e-03 1.6922416970561024e-03
101 1.0260959698103211e-03 -3.5254363327522353e-03 -8.9748767722045298e-04
102 -1.1480708059783606e-03 1.5423923089399065e-03 1.8177522770658336e-03
103 -1.2279070189822291e-03 6.2007487844947112e-04 -2.9319718988595873e-03
104 -5.6550993717336003e-04 -5.0369854151018694e-03 2.0850597723934528e-03
105 -1.4995146939945734e-03 -2.1284174797503511e-03 -1.3269252947325345e-03
106 -2.1386655396733959e-03 -3.8856025522925248e-04 -8.7645247653971318e-04
107 8.3644995045669866e-04 -3.0935897693774698e-04 -2.8048320617004470e-03
108 -1.9328469241246980e-03 2.6087998897727231e-03 1.5945765561645487e-04
109 -1.1676689653371789e-03 6.9863684802771390e-04 1.0325655901860140e-03
110 1.2992987080676945e-04 2.3367713446614783e-03 -1.4019029521993327e-04
111 8.9667466135892777e-04 -1.4276581787657264e-03 -1.0961312451172754e-04
112 9.1602158184764736e-04 -1.4012451160537848e-03 1.9577753598938358e-03
113 1.3318716717529123e-03 -1.8597145971667888e-03 9.3551895160492223e-04
114 3.6523503318456091e-03 -8.3051667528971185e-04 -1.3298329041195643e-03
115 1.9424110675145673e-03 2.4288578950690688e-03 5.4069318713960435e-04
116 3.0914349433536340e-03 1.7566384311343370e-04 -6.5610398593815187e-04
117 8.6579612385794143e-04 6.7132944275925734e-04 2.6478812354208616e-03
118 -1.2015941741762893e-03 9.9711880578220394e-04 6.3571021784775800e-04
119 3.2960755663367231e-04 2.3794118900935224e-03 -1.4352168120946561e-03
120 3.3805330431205360e-03 7.0243643333935135e-04 3.4023577495792258e-04
121 -1.1854025006250016e-03 -1.3643704057200987e-03 1.7531883628421215e-03
122 -2.2299132021947918e-03 -1.4757969971182553e-03 -1.4657874256574837e-03
123 -1.8143823891884204e-03 2.0248201866619915e-03 1.5952733317198212e-03
124 3.2798137296864180e-03 7.8696230045716543e-04 1.5780357163569098e-03
125 -1.0352177430732750e-03 -1.9353574644302668e-03 -1.9829331192576078e-06
126 -1.0353166674721358e-03 2.1084927340924140e-05 -5.4386153797209870e-04
127 1.9109348795354659e-03 2.2439862981401852e-03 -1.1155214803536575e-04
128 -9.3182679717504176e-04 1.8821151769433937e-03 -7.5558887869106941e-04