LAMMPS data file from restart file: timestep = 300053, procs = 1

1982 atoms

5 atom types

-1.9379999999999999e+01 1.9379999999999999e+01 xlo xhi
-1.9379999999999999e+01 1.9379999999999999e+01 ylo yhi
-2.1879999999999999e+01 2.3940000000000001e+01 zlo zhi

Masses

1 63.55
2 63.55
3 39.948
4 39.948
5 39.948

Pair Coeffs

1 0.724279 2.59815
2 0.724279 2.59815
3 0.0103249 3.405
4 0.0103249 3.405
5 0.0103249 3.405

Atoms

1 0 2 0.0000000000000000e+00 -1.7340000000000000e+01 -1.9379999999999999e+01 -2.0860000000000003e+01 0 0 0
2 0 2 0.0000000000000000e+00 -1.9379999999999999e+01 -1.7340000000000000e+01 -2.0860000000000003e+01 0 0 0
3 0 2 0.0000000000000000e+00 -1.3260000000000002e+01 -1.9379999999999999e+01 -2.0860000000000003e+01 0 0 0
4 0 2 0.0000000000000000e+00 -1.5300000000000001e+01 -1.7340000000000000e+01 -2.0860000000000003e+01 0 0 0
20 0 2 0.0000000000000000e+00 -1.7340000000000000e+01 -1.5300000000000001e+01 -2.0860000000000003e+01 0 0 0
21 0 2 0.0000000000000000e+00 -1.9379999999999999e+01 -1.3260000000000002e+01 -2.0860000000000003e+01 0 0 0
22 0 2 0.0000000000000000e+00 -1.3260000000000002e+01 -1.5300000000000001e+01 -2.0860000000000003e+01 0 0 0
23 0 2 0.0000000000000000e+00 -1.5300000000000001e+01 -1.3260000000000002e+01 -2.0860000000000003e+01 0 0 0
181 0 2 0.0000000000000000e+00 -1.9379999999999999e+01 -1.9379999999999999e+01 -1.8820000000000000e+01 0 0 0
182 0 2 0.0000000000000000e+00 -1.7340000000000000e+01 -1.7340000000000000e+01 -1.8820000000000000e+01 0 0 0
183 0 2 0.0000000000000000e+00 -1.7340000000000000e+01 -1.9379999999999999e+01 -1.6780000000000001e+01 0 0 0
184 0 2 0.0000000000000000e+00 -1.9379999999999999e+01 -1.7340000000000000e+01 -1.6780000000000001e+01 0 0 0
185 0 2 0.0000000000000000e+00 -1.5300000000000001e+01 -1.9379999999999999e+01 -1.8820000000000000e+01 0 0 0
186 0 2 0.0000000000000000e+00 -1.3260000000000002e+01 -1.7340000000000000e+01 -1.8820000000000000e+01 0 0 0
187 0 2 0.0000000000000000e+00 -1.3260000000000002e+01 -1.9379999999999999e+01 -1.6780000000000001e+01 0 0 0
188 0 2 0.0000000000000000e+00 -1.5300000000000001e+01 -1.7340000000000000e+01 -1.6780000000000001e+01 0 0 0
219 0 2 0.0000000000000000e+00 -1.9379999999999999e+01 -1.5300000000000001e+01 -1.8820000000000000e+01 0 0 0
220 0 2 0.0000000000000000e+00 -1.7340000000000000e+01 -1.3260000000000002e+01 -1.8820000000000000e+01 0 0 0
221 0 2 0.0000000000000000e+00 -1.7340000000000000e+01 -1.5300000000000001e+01 -1.6780000000000001e+01 0 0 0
222 0 2 0.0000000000000000e+00 -1.9379999999999999e+01 -1.3260000000000002e+01 -1.6780000000000001e+01 0 0 0
223 0 2 0.0000000000000000e+00 -1.5300000000000001e+01 -1.5300000000000001e+01 -1.8820000000000000e+01 0 0 0
224 0 2 0.0000000000000000e+00 -1.3260000000000002e+01 -1.3260000000000002e+01 -1.8820000000000000e+01 0 0 0
225 0 2 0.0000000000000000e+00 -1.3260000000000002e+01 -1.5300000000000001e+01 -1.6780000000000001e+01 0 0 0
226 0 2 0.0000000000000000e+00 -1.5300000000000001e+01 -1.3260000000000002e+01 -1.6780000000000001e+01 0 0 0
542 0 2 0.0000000000000000e+00 -1.9379999999999999e+01 -1.9379999999999999e+01 -1.4740000000000000e+01 0 0 0
543 0 2 0.0000000000000000e+00 -1.7340000000000000e+01 -1.7340000000000000e+01 -1.4740000000000000e+01 0 0 0
546 0 2 0.0000000000000000e+00 -1.5300000000000001e+01 -1.9379999999999999e+01 -1.4740000000000000e+01 0 0 0
547 0 2 0.0000000000000000e+00 -1.3260000000000002e+01 -1.7340000000000000e+01 -1.4740000000000000e+01 0 0 0
580 0 2 0.0000000000000000e+00 -1.9379999999999999e+01 -1.5300000000000001e+01 -1.4740000000000000e+01 0 0 0
581 0 2 0.0000000000000000e+00 -1.7340000000000000e+01 -1.3260000000000002e+01 -1.4740000000000000e+01 0 0 0
584 0 2 0.0000000000000000e+00 -1.5300000000000001e+01 -1.5300000000000001e+01 -1.4740000000000000e+01 0 0 0
585 0 2 0.0000000000000000e+00 -1.3260000000000002e+01 -1.3260000000000002e+01 -1.4740000000000000e+01 0 0 0
5 0 2 0.0000000000000000e+00 -9.1799999999999997e+00 -1.9379999999999999e+01 -2.0860000000000003e+01 0 0 0
6 0 2 0.0000000000000000e+00 -1.1220000000000001e+01 -1.7340000000000000e+01 -2.0860000000000003e+01 0 0 0
7 0 2 0.0000000000000000e+00 -5.0999999999999996e+00 -1.9379999999999999e+01 -2.0860000000000003e+01 0 0 0
8 0 2 0.0000000000000000e+00 -7.1400000000000006e+00 -1.7340000000000000e+01 -2.0860000000000003e+01 0 0 0
24 0 2 0.0000000000000000e+00 -9.1799999999999997e+00 -1.5300000000000001e+01 -2.0860000000000003e+01 0 0 0
25 0 2 0.0000000000000000e+00 -1.1220000000000001e+01 -1.3260000000000002e+01 -2.0860000000000003e+01 0 0 0
26 0 2 0.0000000000000000e+00 -5.0999999999999996e+00 -1.5300000000000001e+01 -2.0860000000000003e+01 0 0 0
27 0 2 0.0000000000000000e+00 -7.1400000000000006e+00 -1.3260000000000002e+01 -2.0860000000000003e+01 0 0 0
189 0 2 0.0000000000000000e+00 -1.1220000000000001e+01 -1.9379999999999999e+01 -1.8820000000000000e+01 0 0 0
190 0 2 0.0000000000000000e+00 -9.1799999999999997e+00 -1.7340000000000000e+01 -1.8820000000000000e+01 0 0 0
191 0 2 0.0000000000000000e+00 -9.1799999999999997e+00 -1.9379999999999999e+01 -1.6780000000000001e+01 0 0 0
192 0 2 0.0000000000000000e+00 -1.1220000000000001e+01 -1.7340000000000000e+01 -1.6780000000000001e+01 0 0 0
193 0 2 0.0000000000000000e+00 -7.1400000000000006e+00 -1.9379999999999999e+01 -1.8820000000000000e+01 0 0 0
194 0 2 0.0000000000000000e+00 -5.0999999999999996e+00 -1.7340000000000000e+01 -1.8820000000000000e+01 0 0 0
195 0 2 0.0000000000000000e+00 -5.0999999999999996e+00 -1.9379999999999999e+01 -1.6780000000000001e+01 0 0 0
196 0 2 0.0000000000000000e+00 -7.1400000000000006e+00 -1.7340000000000000e+01 -1.6780000000000001e+01 0 0 0
227 0 2 0.0000000000000000e+00 -1.1220000000000001e+01 -1.5300000000000001e+01 -1.8820000000000000e+01 0 0 0
228 0 2 0.0000000000000000e+00 -9.1799999999999997e+00 -1.3260000000000002e+01 -1.8820000000000000e+01 0 0 0
229 0 2 0.0000000000000000e+00 -9.1799999999999997e+00 -1.5300000000000001e+01 -1.6780000000000001e+01 0 0 0
230 0 2 0.0000000000000000e+00 -1.1220000000000001e+01 -1.3260000000000002e+01 -1.6780000000000001e+01 0 0 0
231 0 2 0.0000000000000000e+00 -7.1400000000000006e+00 -1.5300000000000001e+01 -1.8820000000000000e+01 0 0 0
232 0 2 0.0000000000000000e+00 -5.0999999999999996e+00 -1.3260000000000002e+01 -1.8820000000000000e+01 0 0 0
233 0 2 0.0000000000000000e+00 -5.0999999999999996e+00 -1.5300000000000001e+01 -1.6780000000000001e+01 0 0 0
234 0 2 0.0000000000000000e+00 -7.1400000000000006e+00 -1.3260000000000002e+01 -1.6780000000000001e+01 0 0 0
550 0 2 0.0000000000000000e+00 -1.1220000000000001e+01 -1.9379999999999999e+01 -1.4740000000000000e+01 0 0 0
551 0 2 0.0000000000000000e+00 -9.1799999999999997e+00 -1.7340000000000000e+01 -1.4740000000000000e+01 0 0 0
554 0 2 0.0000000000000000e+00 -7.1400000000000006e+00 -1.9379999999999999e+01 -1.4740000000000000e+01 0 0 0
555 0 2 0.0000000000000000e+00 -5.0999999999999996e+00 -1.7340000000000000e+01 -1.4740000000000000e+01 0 0 0
588 0 2 0.0000000000000000e+00 -1.1220000000000001e+01 -1.5300000000000001e+01 -1.4740000000000000e+01 0 0 0
589 0 2 0.0000000000000000e+00 -9.1799999999999997e+00 -1.3260000000000002e+01 -1.4740000000000000e+01 0 0 0
592 0 2 0.0000000000000000e+00 -7.1400000000000006e+00 -1.5300000000000001e+01 -1.4740000000000000e+01 0 0 0
593 0 2 0.0000000000000000e+00 -5.0999999999999996e+00 -1.3260000000000002e+01 -1.4740000000000000e+01 0 0 0
9 0 2 0.0000000000000000e+00 -1.0200000000000000e+00 -1.9379999999999999e+01 -2.0860000000000003e+01 0 0 0
10 0 2 0.0000000000000000e+00 -3.0600000000000001e+00 -1.7340000000000000e+01 -2.0860000000000003e+01 0 0 0
11 0 2 0.0000000000000000e+00 3.0600000000000001e+00 -1.9379999999999999e+01 -2.0860000000000003e+01 0 0 0
12 0 2 0.0000000000000000e+00 1.0200000000000000e+00 -1.7340000000000000e+01 -2.0860000000000003e+01 0 0 0
28 0 2 0.0000000000000000e+00 -1.0200000000000000e+00 -1.5300000000000001e+01 -2.0860000000000003e+01 0 0 0
29 0 2 0.0000000000000000e+00 -3.0600000000000001e+00 -1.3260000000000002e+01 -2.0860000000000003e+01 0 0 0
30 0 2 0.0000000000000000e+00 3.0600000000000001e+00 -1.5300000000000001e+01 -2.0860000000000003e+01 0 0 0
31 0 2 0.0000000000000000e+00 1.0200000000000000e+00 -1.3260000000000002e+01 -2.0860000000000003e+01 0 0 0
197 0 2 0.0000000000000000e+00 -3.0600000000000001e+00 -1.9379999999999999e+01 -1.8820000000000000e+01 0 0 0
198 0 2 0.0000000000000000e+00 -1.0200000000000000e+00 -1.7340000000000000e+01 -1.8820000000000000e+01 0 0 0
199 0 2 0.0000000000000000e+00 -1.0200000000000000e+00 -1.9379999999999999e+01 -1.6780000000000001e+01 0 0 0
200 0 2 0.0000000000000000e+00 -3.0600000000000001e+00 -1.7340000000000000e+01 -1.6780000000000001e+01 0 0 0
201 0 2 0.0000000000000000e+00 1.0200000000000000e+00 -1.9379999999999999e+01 -1.8820000000000000e+01 0 0 0
202 0 2 0.0000000000000000e+00 3.0600000000000001e+00 -1.7340000000000000e+01 -1.8820000000000000e+01 0 0 0
203 0 2 0.0000000000000000e+00 3.0600000000000001e+00 -1.9379999999999999e+01 -1.6780000000000001e+01 0 0 0
204 0 2 0.0000000000000000e+00 1.0200000000000000e+00 -1.7340000000000000e+01 -1.6780000000000001e+01 0 0 0
235 0 2 0.0000000000000000e+00 -3.0600000000000001e+00 -1.5300000000000001e+01 -1.8820000000000000e+01 0 0 0
236 0 2 0.0000000000000000e+00 -1.0200000000000000e+00 -1.3260000000000002e+01 -1.8820000000000000e+01 0 0 0
237 0 2 0.0000000000000000e+00 -1.0200000000000000e+00 -1.5300000000000001e+01 -1.6780000000000001e+01 0 0 0
238 0 2 0.0000000000000000e+00 -3.0600000000000001e+00 -1.3260000000000002e+01 -1.6780000000000001e+01 0 0 0
239 0 2 0.0000000000000000e+00 1.0200000000000000e+00 -1.5300000000000001e+01 -1.8820000000000000e+01 0 0 0
240 0 2 0.0000000000000000e+00 3.0600000000000001e+00 -1.3260000000000002e+01 -1.8820000000000000e+01 0 0 0
241 0 2 0.0000000000000000e+00 3.0600000000000001e+00 -1.5300000000000001e+01 -1.6780000000000001e+01 0 0 0
242 0 2 0.0000000000000000e+00 1.0200000000000000e+00 -1.3260000000000002e+01 -1.6780000000000001e+01 0 0 0
558 0 2 0.0000000000000000e+00 -3.0600000000000001e+00 -1.9379999999999999e+01 -1.4740000000000000e+01 0 0 0
559 0 2 0.0000000000000000e+00 -1.0200000000000000e+00 -1.7340000000000000e+01 -1.4740000000000000e+01 0 0 0
562 0 2 0.0000000000000000e+00 1.0200000000000000e+00 -1.9379999999999999e+01 -1.4740000000000000e+01 0 0 0
563 0 2 0.0000000000000000e+00 3.0600000000000001e+00 -1.7340000000000000e+01 -1.4740000000000000e+01 0 0 0
596 0 2 0.0000000000000000e+00 -3.0600000000000001e+00 -1.5300000000000001e+01 -1.4740000000000000e+01 0 0 0
597 0 2 0.0000000000000000e+00 -1.0200000000000000e+00 -1.3260000000000002e+01 -1.4740000000000000e+01 0 0 0
600 0 2 0.0000000000000000e+00 1.0200000000000000e+00 -1.5300000000000001e+01 -1.4740000000000000e+01 0 0 0
601 0 2 0.0000000000000000e+00 3.0600000000000001e+00 -1.3260000000000002e+01 -1.4740000000000000e+01 0 0 0
13 0 2 0.0000000000000000e+00 7.1400000000000006e+00 -1.9379999999999999e+01 -2.0860000000000003e+01 0 0 0
14 0 2 0.0000000000000000e+00 5.0999999999999996e+00 -1.7340000000000000e+01 -2.0860000000000003e+01 0 0 0
15 0 2 0.0000000000000000e+00 1.1219999999999999e+01 -1.9379999999999999e+01 -2.0860000000000003e+01 0 0 0
16 0 2 0.0000000000000000e+00 9.1799999999999997e+00 -1.7340000000000000e+01 -2.0860000000000003e+01 0 0 0
32 0 2 0.0000000000000000e+00 7.1400000000000006e+00 -1.5300000000000001e+01 -2.0860000000000003e+01 0 0 0
33 0 2 0.0000000000000000e+00 5.0999999999999996e+00 -1.3260000000000002e+01 -2.0860000000000003e+01 0 0 0
34 0 2 0.0000000000000000e+00 1.1219999999999999e+01 -1.5300000000000001e+01 -2.0860000000000003e+01 0 0 0
35 0 2 0.0000000000000000e+00 9.1799999999999997e+00 -1.3260000000000002e+01 -2.0860000000000003e+01 0 0 0
205 0 2 0.0000000000000000e+00 5.0999999999999996e+00 -1.9379999999999999e+01 -1.8820000000000000e+01 0 0 0
206 0 2 0.0000000000000000e+00 7.1400000000000006e+00 -1.7340000000000000e+01 -1.8820000000000000e+01 0 0 0
207 0 2 0.0000000000000000e+00 7.1400000000000006e+00 -1.9379999999999999e+01 -1.6780000000000001e+01 0 0 0
208 0 2 0.0000000000000000e+00 5.0999999999999996e+00 -1.7340000000000000e+01 -1.6780000000000001e+01 0 0 0
209 0 2 0.0000000000000000e+00 9.1799999999999997e+00 -1.9379999999999999e+01 -1.8820000000000000e+01 0 0 0
210 0 2 0.0000000000000000e+00 1.1219999999999999e+01 -1.7340000000000000e+01 -1.8820000000000000e+01 0 0 0
211 0 2 0.0000000000000000e+00 1.1219999999999999e+01 -1.9379999999999999e+01 -1.6780000000000001e+01 0 0 0
212 0 2 0.0000000000000000e+00 9.1799999999999997e+00 -1.7340000000000000e+01 -1.6780000000000001e+01 0 0 0
243 0 2 0.0000000000000000e+00 5.0999999999999996e+00 -1.5300000000000001e+01 -1.8820000000000000e+01 0 0 0
244 0 2 0.0000000000000000e+00 7.1400000000000006e+00 -1.3260000000000002e+01 -1.8820000000000000e+01 0 0 0
245 0 2 0.0000000000000000e+00 7.1400000000000006e+00 -1.5300000000000001e+01 -1.6780000000000001e+01 0 0 0
246 0 2 0.0000000000000000e+00 5.0999999999999996e+00 -1.3260000000000002e+01 -1.6780000000000001e+01 0 0 0
247 0 2 0.0000000000000000e+00 9.1799999999999997e+00 -1.5300000000000001e+01 -1.8820000000000000e+01 0 0 0
248 0 2 0.0000000000000000e+00 1.1219999999999999e+01 -1.3260000000000002e+01 -1.8820000000000000e+01 0 0 0
249 0 2 0.0000000000000000e+00 1.1219999999999999e+01 -1.5300000000000001e+01 -1.6780000000000001e+01 0 0 0
250 0 2 0.0000000000000000e+00 9.1799999999999997e+00 -1.3260000000000002e+01 -1.6780000000000001e+01 0 0 0
566 0 2 0.0000000000000000e+00 5.0999999999999996e+00 -1.9379999999999999e+01 -1.4740000000000000e+01 0 0 0
567 0 2 0.0000000000000000e+00 7.1400000000000006e+00 -1.7340000000000000e+01 -1.4740000000000000e+01 0 0 0
570 0 2 0.0000000000000000e+00 9.1799999999999997e+00 -1.9379999999999999e+01 -1.4740000000000000e+01 0 0 0
571 0 2 0.0000000000000000e+00 1.1219999999999999e+01 -1.7340000000000000e+01 -1.4740000000000000e+01 0 0 0
604 0 2 0.0000000000000000e+00 5.0999999999999996e+00 -1.5300000000000001e+01 -1.4740000000000000e+01 0 0 0
605 0 2 0.0000000000000000e+00 7.1400000000000006e+00 -1.3260000000000002e+01 -1.4740000000000000e+01 0 0 0
608 0 2 0.0000000000000000e+00 9.1799999999999997e+00 -1.5300000000000001e+01 -1.4740000000000000e+01 0 0 0
609 0 2 0.0000000000000000e+00 1.1219999999999999e+01 -1.3260000000000002e+01 -1.4740000000000000e+01 0 0 0
17 0 2 0.0000000000000000e+00 1.5300000000000001e+01 -1.9379999999999999e+01 -2.0860000000000003e+01 0 0 0
18 0 2 0.0000000000000000e+00 1.3260000000000000e+01 -1.7340000000000000e+01 -2.0860000000000003e+01 0 0 0
19 0 2 0.0000000000000000e+00 1.7340000000000000e+01 -1.7340000000000000e+01 -2.0860000000000003e+01 0 0 0
36 0 2 0.0000000000000000e+00 1.5300000000000001e+01 -1.5300000000000001e+01 -2.0860000000000003e+01 0 0 0
37 0 2 0.0000000000000000e+00 1.3260000000000000e+01 -1.3260000000000002e+01 -2.0860000000000003e+01 0 0 0
38 0 2 0.0000000000000000e+00 1.7340000000000000e+01 -1.3260000000000002e+01 -2.0860000000000003e+01 0 0 0
213 0 2 0.0000000000000000e+00 1.3260000000000000e+01 -1.9379999999999999e+01 -1.8820000000000000e+01 0 0 0
214 0 2 0.0000000000000000e+00 1.5300000000000001e+01 -1.7340000000000000e+01 -1.8820000000000000e+01 0 0 0
215 0 2 0.0000000000000000e+00 1.5300000000000001e+01 -1.9379999999999999e+01 -1.6780000000000001e+01 0 0 0
216 0 2 0.0000000000000000e+00 1.3260000000000000e+01 -1.7340000000000000e+01 -1.6780000000000001e+01 0 0 0
217 0 2 0.0000000000000000e+00 1.7340000000000000e+01 -1.9379999999999999e+01 -1.8820000000000000e+01 0 0 0
218 0 2 0.0000000000000000e+00 1.7340000000000000e+01 -1.7340000000000000e+01 -1.6780000000000001e+01 0 0 0
251 0 2 0.0000000000000000e+00 1.3260000000000000e+01 -1.5300000000000001e+01 -1.8820000000000000e+01 0 0 0
252 0 2 0.0000000000000000e+00 1.5300000000000001e+01 -1.3260000000000002e+01 -1.8820000000000000e+01 0 0 0
253 0 2 0.0000000000000000e+00 1.5300000000000001e+01 -1.5300000000000001e+01 -1.6780000000000001e+01 0 0 0
254 0 2 0.0000000000000000e+00 1.3260000000000000e+01 -1.3260000000000002e+01 -1.6780000000000001e+01 0 0 0
255 0 2 0.0000000000000000e+00 1.7340000000000000e+01 -1.5300000000000001e+01 -1.8820000000000000e+01 0 0 0
256 0 2 0.0000000000000000e+00 1.7340000000000000e+01 -1.3260000000000002e+01 -1.6780000000000001e+01 0 0 0
574 0 2 0.0000000000000000e+00 1.3260000000000000e+01 -1.9379999999999999e+01 -1.4740000000000000e+01 0 0 0
575 0 2 0.0000000000000000e+00 1.5300000000000001e+01 -1.7340000000000000e+01 -1.4740000000000000e+01 0 0 0
578 0 2 0.0000000000000000e+00 1.7340000000000000e+01 -1.9379999999999999e+01 -1.4740000000000000e+01 0 0 0
612 0 2 0.0000000000000000e+00 1.3260000000000000e+01 -1.5300000000000001e+01 -1.4740000000000000e+01 0 0 0
613 0 2 0.0000000000000000e+00 1.5300000000000001e+01 -1.3260000000000002e+01 -1.4740000000000000e+01 0 0 0
616 0 2 0.0000000000000000e+00 1.7340000000000000e+01 -1.5300000000000001e+01 -1.4740000000000000e+01 0 0 0
39 0 2 0.0000000000000000e+00 -1.7340000000000000e+01 -1.1220000000000001e+01 -2.0860000000000003e+01 0 0 0
40 0 2 0.0000000000000000e+00 -1.9379999999999999e+01 -9.1799999999999997e+00 -2.0860000000000003e+01 0 0 0
41 0 2 0.0000000000000000e+00 -1.3260000000000002e+01 -1.1220000000000001e+01 -2.0860000000000003e+01 0 0 0
42 0 2 0.0000000000000000e+00 -1.5300000000000001e+01 -9.1799999999999997e+00 -2.0860000000000003e+01 0 0 0
58 0 2 0.0000000000000000e+00 -1.7340000000000000e+01 -7.1400000000000006e+00 -2.0860000000000003e+01 0 0 0
59 0 2 0.0000000000000000e+00 -1.9379999999999999e+01 -5.0999999999999996e+00 -2.0860000000000003e+01 0 0 0
60 0 2 0.0000000000000000e+00 -1.3260000000000002e+01 -7.1400000000000006e+00 -2.0860000000000003e+01 0 0 0
61 0 2 0.0000000000000000e+00 -1.5300000000000001e+01 -5.0999999999999996e+00 -2.0860000000000003e+01 0 0 0
257 0 2 0.0000000000000000e+00 -1.9379999999999999e+01 -1.1220000000000001e+01 -1.8820000000000000e+01 0 0 0
258 0 2 0.0000000000000000e+00 -1.7340000000000000e+01 -9.1799999999999997e+00 -1.8820000000000000e+01 0 0 0
259 0 2 0.0000000000000000e+00 -1.7340000000000000e+01 -1.1220000000000001e+01 -1.6780000000000001e+01 0 0 0
260 0 2 0.0000000000000000e+00 -1.9379999999999999e+01 -9.1799999999999997e+00 -1.6780000000000001e+01 0 0 0
261 0 2 0.0000000000000000e+00 -1.5300000000000001e+01 -1.1220000000000001e+01 -1.8820000000000000e+01 0 0 0
262 0 2 0.0000000000000000e+00 -1.3260000000000002e+01 -9.1799999999999997e+00 -1.8820000000000000e+01 0 0 0
263 0 2 0.0000000000000000e+00 -1.3260000000000002e+01 -1.1220000000000001e+01 -1.6780000000000001e+01 0 0 0
264 0 2 0.0000000000000000e+00 -1.5300000000000001e+01 -9.1799999999999997e+00 -1.6780000000000001e+01 0 0 0
295 0 2 0.0000000000000000e+00 -1.9379999999999999e+01 -7.1400000000000006e+00 -1.8820000000000000e+01 0 0 0
296 0 2 0.0000000000000000e+00 -1.7340000000000000e+01 -5.0999999999999996e+00 -1.8820000000000000e+01 0 0 0
297 0 2 0.0000000000000000e+00 -1.7340000000000000e+01 -7.1400000000000006e+00 -1.6780000000000001e+01 0 0 0
298 0 2 0.0000000000000000e+00 -1.9379999999999999e+01 -5.0999999999999996e+00 -1.6780000000000001e+01 0 0 0
299 0 2 0.0000000000000000e+00 -1.5300000000000001e+01 -7.1400000000000006e+00 -1.8820000000000000e+01 0 0 0
300 0 2 0.0000000000000000e+00 -1.3260000000000002e+01 -5.0999999999999996e+00 -1.8820000000000000e+01 0 0 0
301 0 2 0.0000000000000000e+00 -1.3260000000000002e+01 -7.1400000000000006e+00 -1.6780000000000001e+01 0 0 0
302 0 2 0.0000000000000000e+00 -1.5300000000000001e+01 -5.0999999999999996e+00 -1.6780000000000001e+01 0 0 0
618 0 2 0.0000000000000000e+00 -1.9379999999999999e+01 -1.1220000000000001e+01 -1.4740000000000000e+01 0 0 0
619 0 2 0.0000000000000000e+00 -1.7340000000000000e+01 -9.1799999999999997e+00 -1.4740000000000000e+01 0 0 0
622 0 2 0.0000000000000000e+00 -1.5300000000000001e+01 -1.1220000000000001e+01 -1.4740000000000000e+01 0 0 0
623 0 2 0.0000000000000000e+00 -1.3260000000000002e+01 -9.1799999999999997e+00 -1.4740000000000000e+01 0 0 0
656 0 2 0.0000000000000000e+00 -1.9379999999999999e+01 -7.1400000000000006e+00 -1.4740000000000000e+01 0 0 0
657 0 2 0.0000000000000000e+00 -1.7340000000000000e+01 -5.0999999999999996e+00 -1.4740000000000000e+01 0 0 0
660 0 2 0.0000000000000000e+00 -1.5300000000000001e+01 -7.1400000000000006e+00 -1.4740000000000000e+01 0 0 0
661 0 2 0.0000000000000000e+00 -1.3260000000000002e+01 -5.0999999999999996e+00 -1.4740000000000000e+01 0 0 0
43 0 2 0.0000000000000000e+00 -9.1799999999999997e+00 -1.1220000000000001e+01 -2.0860000000000003e+01 0 0 0
44 0 2 0.0000000000000000e+00 -1.1220000000000001e+01 -9.1799999999999997e+00 -2.0860000000000003e+01 0 0 0
45 0 2 0.0000000000000000e+00 -5.0999999999999996e+00 -1.1220000000000001e+01 -2.0860000000000003e+01 0 0 0
46 0 2 0.0000000000000000e+00 -7.1400000000000006e+00 -9.1799999999999997e+00 -2.0860000000000003e+01 0 0 0
62 0 2 0.0000000000000000e+00 -9.1799999999999997e+00 -7.1400000000000006e+00 -2.0860000000000003e+01 0 0 0
63 0 2 0.0000000000000000e+00 -1.1220000000000001e+01 -5.0999999999999996e+00 -2.0860000000000003e+01 0 0 0
64 0 2 0.0000000000000000e+00 -5.0999999999999996e+00 -7.1400000000000006e+00 -2.0860000000000003e+01 0 0 0
65 0 2 0.0000000000000000e+00 -7.1400000000000006e+00 -5.0999999999999996e+00 -2.0860000000000003e+01 0 0 0
265 0 2 0.0000000000000000e+00 -1.1220000000000001e+01 -1.1220000000000001e+01 -1.8820000000000000e+01 0 0 0
266 0 2 0.0000000000000000e+00 -9.1799999999999997e+00 -9.1799999999999997e+00 -1.8820000000000000e+01 0 0 0
267 0 2 0.0000000000000000e+00 -9.1799999999999997e+00 -1.1220000000000001e+01 -1.6780000000000001e+01 0 0 0
268 0 2 0.0000000000000000e+00 -1.1220000000000001e+01 -9.1799999999999997e+00 -1.6780000000000001e+01 0 0 0
269 0 2 0.0000000000000000e+00 -7.1400000000000006e+00 -1.1220000000000001e+01 -1.8820000000000000e+01 0 0 0
270 0 2 0.0000000000000000e+00 -5.0999999999999996e+00 -9.1799999999999997e+00 -1.8820000000000000e+01 0 0 0
271 0 2 0.0000000000000000e+00 -5.0999999999999996e+00 -1.1220000000000001e+01 -1.6780000000000001e+01 0 0 0
272 0 2 0.0000000000000000e+00 -7.1400000000000006e+00 -9.1799999999999997e+00 -1.6780000000000001e+01 0 0 0
303 0 2 0.0000000000000000e+00 -1.1220000000000001e+01 -7.1400000000000006e+00 -1.8820000000000000e+01 0 0 0
304 0 2 0.0000000000000000e+00 -9.1799999999999997e+00 -5.0999999999999996e+00 -1.8820000000000000e+01 0 0 0
305 0 2 0.0000000000000000e+00 -9.1799999999999997e+00 -7.1400000000000006e+00 -1.6780000000000001e+01 0 0 0
306 0 2 0.0000000000000000e+00 -1.1220000000000001e+01 -5.0999999999999996e+00 -1.6780000000000001e+01 0 0 0
307 0 2 0.0000000000000000e+00 -7.1400000000000006e+00 -7.1400000000000006e+00 -1.8820000000000000e+01 0 0 0
308 0 2 0.0000000000000000e+00 -5.0999999999999996e+00 -5.0999999999999996e+00 -1.8820000000000000e+01 0 0 0
309 0 2 0.0000000000000000e+00 -5.0999999999999996e+00 -7.1400000000000006e+00 -1.6780000000000001e+01 0 0 0
310 0 2 0.0000000000000000e+00 -7.1400000000000006e+00 -5.0999999999999996e+00 -1.6780000000000001e+01 0 0 0
626 0 2 0.0000000000000000e+00 -1.1220000000000001e+01 -1.1220000000000001e+01 -1.4740000000000000e+01 0 0 0
627 0 2 0.0000000000000000e+00 -9.1799999999999997e+00 -9.1799999999999997e+00 -1.4740000000000000e+01 0 0 0
630 0 2 0.0000000000000000e+00 -7.1400000000000006e+00 -1.1220000000000001e+01 -1.4740000000000000e+01 0 0 0
631 0 2 0.0000000000000000e+00 -5.0999999999999996e+00 -9.1799999999999997e+00 -1.4740000000000000e+01 0 0 0
664 0 2 0.0000000000000000e+00 -1.1220000000000001e+01 -7.1400000000000006e+00 -1.4740000000000000e+01 0 0 0
665 0 2 0.0000000000000000e+00 -9.1799999999999997e+00 -5.0999999999999996e+00 -1.4740000000000000e+01 0 0 0
668 0 2 0.0000000000000000e+00 -7.1400000000000006e+00 -7.1400000000000006e+00 -1.4740000000000000e+01 0 0 0
669 0 2 0.0000000000000000e+00 -5.0999999999999996e+00 -5.0999999999999996e+00 -1.4740000000000000e+01 0 0 0
47 0 2 0.0000000000000000e+00 -1.0200000000000000e+00 -1.1220000000000001e+01 -2.0860000000000003e+01 0 0 0
48 0 2 0.0000000000000000e+00 -3.0600000000000001e+00 -9.1799999999999997e+00 -2.0860000000000003e+01 0 0 0
49 0 2 0.0000000000000000e+00 3.0600000000000001e+00 -1.1220000000000001e+01 -2.0860000000000003e+01 0 0 0
50 0 2 0.0000000000000000e+00 1.0200000000000000e+00 -9.1799999999999997e+00 -2.0860000000000003e+01 0 0 0
66 0 2 0.0000000000000000e+00 -1.0200000000000000e+00 -7.1400000000000006e+00 -2.0860000000000003e+01 0 0 0
67 0 2 0.0000000000000000e+00 -3.0600000000000001e+00 -5.0999999999999996e+00 -2.0860000000000003e+01 0 0 0
68 0 2 0.0000000000000000e+00 3.0600000000000001e+00 -7.1400000000000006e+00 -2.0860000000000003e+01 0 0 0
69 0 2 0.0000000000000000e+00 1.0200000000000000e+00 -5.0999999999999996e+00 -2.0860000000000003e+01 0 0 0
273 0 2 0.0000000000000000e+00 -3.0600000000000001e+00 -1.1220000000000001e+01 -1.8820000000000000e+01 0 0 0
274 0 2 0.0000000000000000e+00 -1.0200000000000000e+00 -9.1799999999999997e+00 -1.8820000000000000e+01 0 0 0
275 0 2 0.0000000000000000e+00 -1.0200000000000000e+00 -1.1220000000000001e+01 -1.6780000000000001e+01 0 0 0
276 0 2 0.0000000000000000e+00 -3.0600000000000001e+00 -9.1799999999999997e+00 -1.6780000000000001e+01 0 0 0
277 0 2 0.0000000000000000e+00 1.0200000000000000e+00 -1.1220000000000001e+01 -1.8820000000000000e+01 0 0 0
278 0 2 0.0000000000000000e+00 3.0600000000000001e+00 -9.1799999999999997e+00 -1.8820000000000000e+01 0 0 0
279 0 2 0.0000000000000000e+00 3.0600000000000001e+00 -1.1220000000000001e+01 -1.6780000000000001e+01 0 0 0
280 0 2 0.0000000000000000e+00 1.0200000000000000e+00 -9.1799999999999997e+00 -1.6780000000000001e+01 0 0 0
311 0 2 0.0000000000000000e+00 -3.0600000000000001e+00 -7.1400000000000006e+00 -1.8820000000000000e+01 0 0 0
312 0 2 0.0000000000000000e+00 -1.0200000000000000e+00 -5.0999999999999996e+00 -1.8820000000000000e+01 0 0 0
313 0 2 0.0000000000000000e+00 -1.0200000000000000e+00 -7.1400000000000006e+00 -1.6780000000000001e+01 0 0 0
314 0 2 0.0000000000000000e+00 -3.0600000000000001e+00 -5.0999999999999996e+00 -1.6780000000000001e+01 0 0 0
315 0 2 0.0000000000000000e+00 1.0200000000000000e+00 -7.1400000000000006e+00 -1.8820000000000000e+01 0 0 0
316 0 2 0.0000000000000000e+00 3.0600000000000001e+00 -5.0999999999999996e+00 -1.8820000000000000e+01 0 0 0
317 0 2 0.0000000000000000e+00 3.0600000000000001e+00 -7.1400000000000006e+00 -1.6780000000000001e+01 0 0 0
318 0 2 0.0000000000000000e+00 1.0200000000000000e+00 -5.0999999999999996e+00 -1.6780000000000001e+01 0 0 0
634 0 2 0.0000000000000000e+00 -3.0600000000000001e+00 -1.1220000000000001e+01 -1.4740000000000000e+01 0 0 0
635 0 2 0.0000000000000000e+00 -1.0200000000000000e+00 -9.1799999999999997e+00 -1.4740000000000000e+01 0 0 0
638 0 2 0.0000000000000000e+00 1.0200000000000000e+00 -1.1220000000000001e+01 -1.4740000000000000e+01 0 0 0
639 0 2 0.0000000000000000e+00 3.0600000000000001e+00 -9.1799999999999997e+00 -1.4740000000000000e+01 0 0 0
672 0 2 0.0000000000000000e+00 -3.0600000000000001e+00 -7.1400000000000006e+00 -1.4740000000000000e+01 0 0 0
673 0 2 0.0000000000000000e+00 -1.0200000000000000e+00 -5.0999999999999996e+00 -1.4740000000000000e+01 0 0 0
676 0 2 0.0000000000000000e+00 1.0200000000000000e+00 -7.1400000000000006e+00 -1.4740000000000000e+01 0 0 0
677 0 2 0.0000000000000000e+00 3.0600000000000001e+00 -5.0999999999999996e+00 -1.4740000000000000e+01 0 0 0
51 0 2 0.0000000000000000e+00 7.1400000000000006e+00 -1.1220000000000001e+01 -2.0860000000000003e+01 0 0 0
52 0 2 0.0000000000000000e+00 5.0999999999999996e+00 -9.1799999999999997e+00 -2.0860000000000003e+01 0 0 0
53 0 2 0.0000000000000000e+00 1.1219999999999999e+01 -1.1220000000000001e+01 -2.0860000000000003e+01 0 0 0
54 0 2 0.0000000000000000e+00 9.1799999999999997e+00 -9.1799999999999997e+00 -2.0860000000000003e+01 0 0 0
70 0 2 0.0000000000000000e+00 7.1400000000000006e+00 -7.1400000000000006e+00 -2.0860000000000003e+01 0 0 0
71 0 2 0.0000000000000000e+00 5.0999999999999996e+00 -5.0999999999999996e+00 -2.0860000000000003e+01 0 0 0
72 0 2 0.0000000000000000e+00 1.1219999999999999e+01 -7.1400000000000006e+00 -2.0860000000000003e+01 0 0 0
73 0 2 0.0000000000000000e+00 9.1799999999999997e+00 -5.0999999999999996e+00 -2.0860000000000003e+01 0 0 0
281 0 2 0.0000000000000000e+00 5.0999999999999996e+00 -1.1220000000000001e+01 -1.8820000000000000e+01 0 0 0
282 0 2 0.0000000000000000e+00 7.1400000000000006e+00 -9.1799999999999997e+00 -1.8820000000000000e+01 0 0 0
283 0 2 0.0000000000000000e+00 7.1400000000000006e+00 -1.1220000000000001e+01 -1.6780000000000001e+01 0 0 0
284 0 2 0.0000000000000000e+00 5.0999999999999996e+00 -9.1799999999999997e+00 -1.6780000000000001e+01 0 0 0
285 0 2 0.0000000000000000e+00 9.1799999999999997e+00 -1.1220000000000001e+01 -1.8820000000000000e+01 0 0 0
286 0 2 0.0000000000000000e+00 1.1219999999999999e+01 -9.1799999999999997e+00 -1.8820000000000000e+01 0 0 0
287 0 2 0.0000000000000000e+00 1.1219999999999999e+01 -1.1220000000000001e+01 -1.6780000000000001e+01 0 0 0
288 0 2 0.0000000000000000e+00 9.1799999999999997e+00 -9.1799999999999997e+00 -1.6780000000000001e+01 0 0 0
319 0 2 0.0000000000000000e+00 5.0999999999999996e+00 -7.1400000000000006e+00 -1.8820000000000000e+01 0 0 0
320 0 2 0.0000000000000000e+00 7.1400000000000006e+00 -5.0999999999999996e+00 -1.8820000000000000e+01 0 0 0
321 0 2 0.0000000000000000e+00 7.1400000000000006e+00 -7.1400000000000006e+00 -1.6780000000000001e+01 0 0 0
322 0 2 0.0000000000000000e+00 5.0999999999999996e+00 -5.0999999999999996e+00 -1.6780000000000001e+01 0 0 0
323 0 2 0.0000000000000000e+00 9.1799999999999997e+00 -7.1400000000000006e+00 -1.8820000000000000e+01 0 0 0
324 0 2 0.0000000000000000e+00 1.1219999999999999e+01 -5.0999999999999996e+00 -1.8820000000000000e+01 0 0 0
325 0 2 0.0000000000000000e+00 1.1219999999999999e+01 -7.1400000000000006e+00 -1.6780000000000001e+01 0 0 0
326 0 2 0.0000000000000000e+00 9.1799999999999997e+00 -5.0999999999999996e+00 -1.6780000000000001e+01 0 0 0
642 0 2 0.0000000000000000e+00 5.0999999999999996e+00 -1.1220000000000001e+01 -1.4740000000000000e+01 0 0 0