# Graphene cell with dimension 10 x 10 x 1 and a = 2.522
       200  atoms
         1  atom types

 0.    25.22000000000000  xlo xhi
 0.    21.84116068344354  ylo yhi
-10.   10.00000000000000  zlo zhi
   12.61000000000000     0.00000000000000     0.00000000000000 xy xz yz

Atoms

1 1     0.00000000000000     0.00000000000000     0.00000000000000
2 1     1.26100000000000     0.72803868944812     0.00000000000000
3 1     2.52200000000000     0.00000000000000     0.00000000000000
4 1     3.78300000000000     0.72803868944812     0.00000000000000
5 1     5.04400000000000     0.00000000000000     0.00000000000000
6 1     6.30500000000000     0.72803868944812     0.00000000000000
7 1     7.56600000000000     0.00000000000000     0.00000000000000
8 1     8.82700000000000     0.72803868944812     0.00000000000000
9 1    10.08800000000000     0.00000000000000     0.00000000000000
10 1    11.34900000000000     0.72803868944812     0.00000000000000
11 1    12.61000000000000     0.00000000000000     0.00000000000000
12 1    13.87100000000000     0.72803868944812     0.00000000000000
13 1    15.13200000000000     0.00000000000000     0.00000000000000
14 1    16.39300000000000     0.72803868944812     0.00000000000000
15 1    17.65400000000000     0.00000000000000     0.00000000000000
16 1    18.91500000000000     0.72803868944812     0.00000000000000
17 1    20.17600000000000     0.00000000000000     0.00000000000000
18 1    21.43700000000000     0.72803868944812     0.00000000000000
19 1    22.69800000000000     0.00000000000000     0.00000000000000
20 1    23.95900000000000     0.72803868944812     0.00000000000000
21 1     1.26100000000000     2.18411606834435     0.00000000000000
22 1     2.52200000000000     2.91215475779247     0.00000000000000
23 1     3.78300000000000     2.18411606834435     0.00000000000000
24 1     5.04400000000000     2.91215475779247     0.00000000000000
25 1     6.30500000000000     2.18411606834435     0.00000000000000
26 1     7.56600000000000     2.91215475779247     0.00000000000000
27 1     8.82700000000000     2.18411606834435     0.00000000000000
28 1    10.08800000000000     2.91215475779247     0.00000000000000
29 1    11.34900000000000     2.18411606834435     0.00000000000000
30 1    12.61000000000000     2.91215475779247     0.00000000000000
31 1    13.87100000000000     2.18411606834435     0.00000000000000
32 1    15.13200000000000     2.91215475779247     0.00000000000000
33 1    16.39300000000000     2.18411606834435     0.00000000000000
34 1    17.65400000000000     2.91215475779247     0.00000000000000
35 1    18.91500000000000     2.18411606834435     0.00000000000000
36 1    20.17600000000000     2.91215475779247     0.00000000000000
37 1    21.43700000000000     2.18411606834435     0.00000000000000
38 1    22.69800000000000     2.91215475779247     0.00000000000000
39 1    23.95900000000000     2.18411606834435     0.00000000000000
40 1    25.22000000000000     2.91215475779247     0.00000000000000
41 1     2.52200000000000     4.36823213668871     0.00000000000000
42 1     3.78300000000000     5.09627082613683     0.00000000000000
43 1     5.04400000000000     4.36823213668871     0.00000000000000
44 1     6.30500000000000     5.09627082613683     0.00000000000000
45 1     7.56600000000000     4.36823213668871     0.00000000000000
46 1     8.82700000000000     5.09627082613683     0.00000000000000
47 1    10.08800000000000     4.36823213668871     0.00000000000000
48 1    11.34900000000000     5.09627082613683     0.00000000000000
49 1    12.61000000000000     4.36823213668871     0.00000000000000
50 1    13.87100000000000     5.09627082613683     0.00000000000000
51 1    15.13200000000000     4.36823213668871     0.00000000000000
52 1    16.39300000000000     5.09627082613683     0.00000000000000
53 1    17.65400000000000     4.36823213668871     0.00000000000000
54 1    18.91500000000000     5.09627082613683     0.00000000000000
55 1    20.17600000000000     4.36823213668871     0.00000000000000
56 1    21.43700000000000     5.09627082613683     0.00000000000000
57 1    22.69800000000000     4.36823213668871     0.00000000000000
58 1    23.95900000000000     5.09627082613683     0.00000000000000
59 1    25.22000000000000     4.36823213668871     0.00000000000000
60 1    26.48100000000000     5.09627082613683     0.00000000000000
61 1     3.78300000000000     6.55234820503306     0.00000000000000
62 1     5.04400000000000     7.28038689448118     0.00000000000000
63 1     6.30500000000000     6.55234820503306     0.00000000000000
64 1     7.56600000000000     7.28038689448118     0.00000000000000
65 1     8.82700000000000     6.55234820503306     0.00000000000000
66 1    10.08800000000000     7.28038689448118     0.00000000000000
67 1    11.34900000000000     6.55234820503306     0.00000000000000
68 1    12.61000000000000     7.28038689448118     0.00000000000000
69 1    13.87100000000000     6.55234820503306     0.00000000000000
70 1    15.13200000000000     7.28038689448118     0.00000000000000
71 1    16.39300000000000     6.55234820503306     0.00000000000000
72 1    17.65400000000000     7.28038689448118     0.00000000000000
73 1    18.91500000000000     6.55234820503306     0.00000000000000
74 1    20.17600000000000     7.28038689448118     0.00000000000000
75 1    21.43700000000000     6.55234820503306     0.00000000000000
76 1    22.69800000000000     7.28038689448118     0.00000000000000
77 1    23.95900000000000     6.55234820503306     0.00000000000000
78 1    25.22000000000000     7.28038689448118     0.00000000000000
79 1    26.48099999999999     6.55234820503306     0.00000000000000
80 1    27.74200000000000     7.28038689448118     0.00000000000000
81 1     5.04400000000000     8.73646427337742     0.00000000000000
82 1     6.30500000000000     9.46450296282553     0.00000000000000
83 1     7.56600000000000     8.73646427337742     0.00000000000000
84 1     8.82700000000000     9.46450296282553     0.00000000000000
85 1    10.08800000000000     8.73646427337742     0.00000000000000
86 1    11.34900000000000     9.46450296282553     0.00000000000000
87 1    12.61000000000000     8.73646427337742     0.00000000000000
88 1    13.87100000000000     9.46450296282553     0.00000000000000
89 1    15.13200000000000     8.73646427337742     0.00000000000000
90 1    16.39300000000000     9.46450296282553     0.00000000000000
91 1    17.65400000000000     8.73646427337742     0.00000000000000
92 1    18.91500000000000     9.46450296282553     0.00000000000000
93 1    20.17600000000000     8.73646427337742     0.00000000000000
94 1    21.43700000000000     9.46450296282553     0.00000000000000
95 1    22.69800000000000     8.73646427337742     0.00000000000000
96 1    23.95900000000000     9.46450296282553     0.00000000000000
97 1    25.22000000000000     8.73646427337742     0.00000000000000
98 1    26.48100000000000     9.46450296282553     0.00000000000000
99 1    27.74200000000000     8.73646427337742     0.00000000000000
100 1    29.00300000000000     9.46450296282553     0.00000000000000
101 1     6.30500000000000    10.92058034172177     0.00000000000000
102 1     7.56600000000000    11.64861903116989     0.00000000000000
103 1     8.82700000000000    10.92058034172177     0.00000000000000
104 1    10.08800000000000    11.64861903116989     0.00000000000000
105 1    11.34900000000000    10.92058034172177     0.00000000000000
106 1    12.61000000000000    11.64861903116989     0.00000000000000
107 1    13.87100000000000    10.92058034172177     0.00000000000000
108 1    15.13200000000000    11.64861903116989     0.00000000000000
109 1    16.39300000000000    10.92058034172177     0.00000000000000
110 1    17.65400000000000    11.64861903116989     0.00000000000000
111 1    18.91500000000000    10.92058034172177     0.00000000000000
112 1    20.17600000000000    11.64861903116989     0.00000000000000
113 1    21.43700000000000    10.92058034172177     0.00000000000000
114 1    22.69800000000000    11.64861903116989     0.00000000000000
115 1    23.95900000000000    10.92058034172177     0.00000000000000
116 1    25.22000000000000    11.64861903116989     0.00000000000000
117 1    26.48100000000000    10.92058034172177     0.00000000000000
118 1    27.74200000000000    11.64861903116989     0.00000000000000
119 1    29.00300000000000    10.92058034172177     0.00000000000000
120 1    30.26400000000000    11.64861903116989     0.00000000000000
121 1     7.56600000000000    13.10469641006613     0.00000000000000
122 1     8.82700000000000    13.83273509951424     0.00000000000000
123 1    10.08800000000000    13.10469641006613     0.00000000000000
124 1    11.34900000000000    13.83273509951424     0.00000000000000
125 1    12.61000000000000    13.10469641006613     0.00000000000000
126 1    13.87100000000000    13.83273509951424     0.00000000000000
127 1    15.13200000000000    13.10469641006613     0.00000000000000
128 1    16.39300000000000    13.83273509951424     0.00000000000000
129 1    17.65400000000000    13.10469641006613     0.00000000000000
130 1    18.91500000000000    13.83273509951424     0.00000000000000
131 1    20.17600000000000    13.10469641006613     0.00000000000000
132 1    21.43700000000000    13.83273509951424     0.00000000000000
133 1    22.69800000000000    13.10469641006613     0.00000000000000
134 1    23.95900000000000    13.83273509951424     0.00000000000000
135 1    25.22000000000000    13.10469641006613     0.00000000000000
136 1    26.48099999999999    13.83273509951424     0.00000000000000
137 1    27.74200000000000    13.10469641006613     0.00000000000000
138 1    29.00300000000000    13.83273509951424     0.00000000000000
139 1    30.26400000000000    13.10469641006613     0.00000000000000
140 1    31.52500000000000    13.83273509951424     0.00000000000000
141 1     8.82700000000000    15.28881247841048     0.00000000000000
142 1    10.08800000000000    16.01685116785860     0.00000000000000
143 1    11.34900000000000    15.28881247841048     0.00000000000000
144 1    12.61000000000000    16.01685116785860     0.00000000000000
145 1    13.87100000000000    15.28881247841048     0.00000000000000
146 1    15.13200000000000    16.01685116785860     0.00000000000000
147 1    16.39300000000000    15.28881247841048     0.00000000000000
148 1    17.65400000000000    16.01685116785860     0.00000000000000
149 1    18.91500000000000    15.28881247841048     0.00000000000000
150 1    20.17599999999999    16.01685116785860     0.00000000000000
151 1    21.43700000000000    15.28881247841048     0.00000000000000
152 1    22.69800000000000    16.01685116785860     0.00000000000000
153 1    23.95900000000000    15.28881247841048     0.00000000000000
154 1    25.22000000000000    16.01685116785860     0.00000000000000
155 1    26.48100000000000    15.28881247841048     0.00000000000000
156 1    27.74200000000000    16.01685116785860     0.00000000000000
157 1    29.00300000000000    15.28881247841048     0.00000000000000
158 1    30.26400000000000    16.01685116785860     0.00000000000000
159 1    31.52500000000000    15.28881247841048     0.00000000000000
160 1    32.78600000000000    16.01685116785860     0.00000000000000
161 1    10.08800000000000    17.47292854675483     0.00000000000000
162 1    11.34900000000000    18.20096723620295     0.00000000000000
163 1    12.61000000000000    17.47292854675483     0.00000000000000
164 1    13.87100000000000    18.20096723620295     0.00000000000000
165 1    15.13200000000000    17.47292854675483     0.00000000000000
166 1    16.39300000000000    18.20096723620295     0.00000000000000
167 1    17.65400000000000    17.47292854675483     0.00000000000000
168 1    18.91500000000000    18.20096723620295     0.00000000000000
169 1    20.17600000000000    17.47292854675483     0.00000000000000
170 1    21.43700000000000    18.20096723620295     0.00000000000000
171 1    22.69800000000000    17.47292854675483     0.00000000000000
172 1    23.95900000000000    18.20096723620295     0.00000000000000
173 1    25.22000000000000    17.47292854675483     0.00000000000000
174 1    26.48100000000000    18.20096723620295     0.00000000000000
175 1    27.74200000000000    17.47292854675483     0.00000000000000
176 1    29.00300000000000    18.20096723620295     0.00000000000000
177 1    30.26400000000000    17.47292854675483     0.00000000000000
178 1    31.52500000000000    18.20096723620295     0.00000000000000
179 1    32.78599999999999    17.47292854675483     0.00000000000000
180 1    34.04700000000000    18.20096723620295     0.00000000000000
181 1    11.34900000000000    19.65704461509919     0.00000000000000
182 1    12.61000000000000    20.38508330454731     0.00000000000000
183 1    13.87100000000000    19.65704461509919     0.00000000000000
184 1    15.13200000000000    20.38508330454731     0.00000000000000
185 1    16.39300000000000    19.65704461509919     0.00000000000000
186 1    17.65400000000000    20.38508330454731     0.00000000000000
187 1    18.91500000000000    19.65704461509919     0.00000000000000
188 1    20.17600000000000    20.38508330454731     0.00000000000000
189 1    21.43700000000000    19.65704461509919     0.00000000000000
190 1    22.69800000000000    20.38508330454731     0.00000000000000
191 1    23.95900000000000    19.65704461509919     0.00000000000000
192 1    25.22000000000000    20.38508330454731     0.00000000000000
193 1    26.48099999999999    19.65704461509919     0.00000000000000
194 1    27.74200000000000    20.38508330454731     0.00000000000000
195 1    29.00300000000000    19.65704461509919     0.00000000000000
196 1    30.26400000000000    20.38508330454731     0.00000000000000
197 1    31.52500000000000    19.65704461509919     0.00000000000000
198 1    32.78600000000000    20.38508330454731     0.00000000000000
199 1    34.04700000000000    19.65704461509919     0.00000000000000
200 1    35.30800000000000    20.38508330454731     0.00000000000000
