LAMMPS data file. CGCMM style. generated by VMD/TopoTools v1.1 on Thu Apr 22 20:05:35 EDT 2010
 1000 atoms
 1485 bonds
 2940 angles
 5830 dihedrals
 0 impropers
 2 atom types
 1 bond types
 1 angle types
 1 dihedral types
 0 improper types
 -35.00000 45.000000  xlo xhi
 -30.00000 30.000000  ylo yhi
  -6.000000 6.000000  zlo zhi

 Masses

 1 12.010000 # CA
 2 12.010000 # CF

 Atoms

1 1 1 -0.723000 -0.995000 -3.343000 # CA 
2 1 1 0.723000 -0.995000 -3.343000 # CA 
3 1 1 1.170000 0.380000 -3.343000 # CA 
4 1 1 0.000000 1.230000 -3.343000 # CA 
5 1 1 -1.170000 0.380000 -3.343000 # CA 
6 1 1 -2.321000 0.754000 -2.595000 # CA 
7 1 1 -1.434000 -1.974000 -2.595000 # CA 
8 1 1 1.434000 -1.974000 -2.595000 # CA 
9 1 1 2.321000 0.754000 -2.595000 # CA 
10 1 1 0.000000 2.440000 -2.595000 # CA 
11 1 1 2.604000 -1.594000 -1.835000 # CA 
12 1 1 3.044000 -0.241000 -1.835000 # CA 
13 1 1 2.321000 1.984000 -1.835000 # CA 
14 1 1 1.170000 2.820000 -1.835000 # CA 
15 1 1 -1.170000 2.820000 -1.835000 # CA 
16 1 1 -2.321000 1.984000 -1.835000 # CA 
17 1 1 -3.044000 -0.241000 -1.835000 # CA 
18 1 1 -2.604000 -1.594000 -1.835000 # CA 
19 1 1 -0.711000 -2.969000 -1.835000 # CA 
20 1 1 0.711000 -2.969000 -1.835000 # CA 
21 1 1 -1.434000 -3.204000 -0.605000 # CA 
22 1 1 -2.604000 -2.354000 -0.605000 # CA 
23 1 1 1.434000 -3.204000 -0.605000 # CA 
24 1 1 2.604000 -2.354000 -0.605000 # CA 
25 1 1 3.491000 0.374000 -0.605000 # CA 
26 1 1 3.044000 1.749000 -0.605000 # CA 
27 1 1 0.723000 3.435000 -0.605000 # CA 
28 1 1 -0.723000 3.435000 -0.605000 # CA 
29 1 1 -3.044000 1.749000 -0.605000 # CA 
30 1 1 -3.491000 0.374000 -0.605000 # CA 
31 1 1 -0.723000 -3.435000 0.605000 # CA 
32 1 1 0.723000 -3.435000 0.605000 # CA 
33 1 1 3.044000 -1.749000 0.605000 # CA 
34 1 1 3.491000 -0.374000 0.605000 # CA 
35 1 1 2.604000 2.354000 0.605000 # CA 
36 1 1 1.434000 3.204000 0.605000 # CA 
37 1 1 -2.604000 2.354000 0.605000 # CA 
38 1 1 -1.434000 3.204000 0.605000 # CA 
39 1 1 -3.044000 -1.749000 0.605000 # CA 
40 1 1 -3.491000 -0.374000 0.605000 # CA 
41 1 1 1.170000 -2.820000 1.835000 # CA 
42 1 1 2.321000 -1.984000 1.835000 # CA 
43 1 1 -2.321000 -1.984000 1.835000 # CA 
44 1 1 -1.170000 -2.820000 1.835000 # CA 
45 1 1 -3.044000 0.241000 1.835000 # CA 
46 1 1 -2.604000 1.594000 1.835000 # CA 
47 1 1 -0.711000 2.969000 1.835000 # CA 
48 1 1 0.711000 2.969000 1.835000 # CA 
49 1 1 3.044000 0.241000 1.835000 # CA 
50 1 1 2.604000 1.594000 1.835000 # CA 
51 1 1 0.000000 -2.440000 2.596000 # CA 
52 1 1 -2.321000 -0.754000 2.596000 # CA 
53 1 1 -1.434000 1.974000 2.596000 # CA 
54 1 1 1.434000 1.974000 2.596000 # CA 
55 1 1 2.321000 -0.754000 2.596000 # CA 
56 1 1 -0.723000 0.995000 3.344000 # CA 
57 1 1 0.723000 0.995000 3.344000 # CA 
58 1 1 1.170000 -0.380000 3.344000 # CA 
59 1 1 0.000000 -1.230000 3.344000 # CA 
60 1 1 -1.170000 -0.380000 3.344000 # CA 
61 2 1 -18.723000 17.205002 -3.343000 # CA 
62 2 1 -17.277000 17.205002 -3.343000 # CA 
63 2 1 -16.830000 18.580002 -3.343000 # CA 
64 2 1 -18.000000 19.430000 -3.343000 # CA 
65 2 1 -19.170000 18.580002 -3.343000 # CA 
66 2 1 -20.320999 18.954002 -2.595000 # CA 
67 2 1 -19.434000 16.225998 -2.595000 # CA 
68 2 1 -16.566000 16.225998 -2.595000 # CA 
69 2 1 -15.679000 18.954002 -2.595000 # CA 
70 2 1 -18.000000 20.639999 -2.595000 # CA 
71 2 1 -15.396000 16.606003 -1.835000 # CA 
72 2 1 -14.956000 17.959000 -1.835000 # CA 
73 2 1 -15.679000 20.183998 -1.835000 # CA 
74 2 1 -16.830000 21.019997 -1.835000 # CA 
75 2 1 -19.170000 21.019997 -1.835000 # CA 
76 2 1 -20.320999 20.183998 -1.835000 # CA 
77 2 1 -21.044001 17.959000 -1.835000 # CA 
78 2 1 -20.604000 16.606003 -1.835000 # CA 
79 2 1 -18.711000 15.231003 -1.835000 # CA 
80 2 1 -17.289000 15.231003 -1.835000 # CA 
81 2 1 -19.434000 14.996002 -0.605000 # CA 
82 2 1 -20.604000 15.846001 -0.605000 # CA 
83 2 1 -16.566000 14.996002 -0.605000 # CA 
84 2 1 -15.396000 15.846001 -0.605000 # CA 
85 2 1 -14.509000 18.573997 -0.605000 # CA 
86 2 1 -14.956000 19.948997 -0.605000 # CA 
87 2 1 -17.277000 21.635002 -0.605000 # CA 
88 2 1 -18.723000 21.635002 -0.605000 # CA 
89 2 1 -21.044001 19.948997 -0.605000 # CA 
90 2 1 -21.490999 18.573997 -0.605000 # CA 
91 2 1 -18.723000 14.764999 0.605000 # CA 
92 2 1 -17.277000 14.764999 0.605000 # CA 
93 2 1 -14.956000 16.450996 0.605000 # CA 
94 2 1 -14.509000 17.825996 0.605000 # CA 
95 2 1 -15.396000 20.554001 0.605000 # CA 
96 2 1 -16.566000 21.403999 0.605000 # CA 
97 2 1 -20.604000 20.554001 0.605000 # CA 
98 2 1 -19.434000 21.403999 0.605000 # CA 
99 2 1 -21.044001 16.450996 0.605000 # CA 
100 2 1 -21.490999 17.825996 0.605000 # CA 
101 2 1 -16.830000 15.379997 1.835000 # CA 
102 2 1 -15.679000 16.216003 1.835000 # CA 
103 2 1 -20.320999 16.216003 1.835000 # CA 
104 2 1 -19.170000 15.379997 1.835000 # CA 
105 2 1 -21.044001 18.441002 1.835000 # CA 
106 2 1 -20.604000 19.793999 1.835000 # CA 
107 2 1 -18.711000 21.168999 1.835000 # CA 
108 2 1 -17.289000 21.168999 1.835000 # CA 
109 2 1 -14.956000 18.441002 1.835000 # CA 
110 2 1 -15.396000 19.793999 1.835000 # CA 
111 2 1 -18.000000 15.760002 2.596000 # CA 
112 2 1 -20.320999 17.445999 2.596000 # CA 
113 2 1 -19.434000 20.174004 2.596000 # CA 
114 2 1 -16.566000 20.174004 2.596000 # CA 
115 2 1 -15.679000 17.445999 2.596000 # CA 
116 2 1 -18.723000 19.195000 3.344000 # CA 
117 2 1 -17.277000 19.195000 3.344000 # CA 
118 2 1 -16.830000 17.820000 3.344000 # CA 
119 2 1 -18.000000 16.970001 3.344000 # CA 
120 2 1 -19.170000 17.820000 3.344000 # CA 
121 3 1 -6.723000 17.205002 -3.343000 # CA 
122 3 1 -5.277000 17.205002 -3.343000 # CA 
123 3 1 -4.830000 18.580002 -3.343000 # CA 
124 3 1 -6.000000 19.430000 -3.343000 # CA 
125 3 1 -7.170000 18.580002 -3.343000 # CA 
126 3 1 -8.321000 18.954002 -2.595000 # CA 
127 3 1 -7.434000 16.225998 -2.595000 # CA 
128 3 1 -4.566000 16.225998 -2.595000 # CA 
129 3 1 -3.679000 18.954002 -2.595000 # CA 
130 3 1 -6.000000 20.639999 -2.595000 # CA 
131 3 1 -3.396000 16.606003 -1.835000 # CA 
132 3 1 -2.956000 17.959000 -1.835000 # CA 
133 3 1 -3.679000 20.183998 -1.835000 # CA 
134 3 1 -4.830000 21.019997 -1.835000 # CA 
135 3 1 -7.170000 21.019997 -1.835000 # CA 
136 3 1 -8.321000 20.183998 -1.835000 # CA 
137 3 1 -9.044000 17.959000 -1.835000 # CA 
138 3 1 -8.604000 16.606003 -1.835000 # CA 
139 3 1 -6.711000 15.231003 -1.835000 # CA 
140 3 1 -5.289000 15.231003 -1.835000 # CA 
141 3 1 -7.434000 14.996002 -0.605000 # CA 
142 3 1 -8.604000 15.846001 -0.605000 # CA 
143 3 1 -4.566000 14.996002 -0.605000 # CA 
144 3 1 -3.396000 15.846001 -0.605000 # CA 
145 3 1 -2.509000 18.573997 -0.605000 # CA 
146 3 1 -2.956000 19.948997 -0.605000 # CA 
147 3 1 -5.277000 21.635002 -0.605000 # CA 
148 3 1 -6.723000 21.635002 -0.605000 # CA 
149 3 1 -9.044000 19.948997 -0.605000 # CA 
150 3 1 -9.491000 18.573997 -0.605000 # CA 
151 3 1 -6.723000 14.764999 0.605000 # CA 
152 3 1 -5.277000 14.764999 0.605000 # CA 
153 3 1 -2.956000 16.450996 0.605000 # CA 
154 3 1 -2.509000 17.825996 0.605000 # CA 
155 3 1 -3.396000 20.554001 0.605000 # CA 
156 3 1 -4.566000 21.403999 0.605000 # CA 
157 3 1 -8.604000 20.554001 0.605000 # CA 
158 3 1 -7.434000 21.403999 0.605000 # CA 
159 3 1 -9.044000 16.450996 0.605000 # CA 
160 3 1 -9.491000 17.825996 0.605000 # CA 
161 3 1 -4.830000 15.379997 1.835000 # CA 
162 3 1 -3.679000 16.216003 1.835000 # CA 
163 3 1 -8.321000 16.216003 1.835000 # CA 
164 3 1 -7.170000 15.379997 1.835000 # CA 
165 3 1 -9.044000 18.441002 1.835000 # CA 
166 3 1 -8.604000 19.793999 1.835000 # CA 
167 3 1 -6.711000 21.168999 1.835000 # CA 
168 3 1 -5.289000 21.168999 1.835000 # CA 
169 3 1 -2.956000 18.441002 1.835000 # CA 
170 3 1 -3.396000 19.793999 1.835000 # CA 
171 3 1 -6.000000 15.760002 2.596000 # CA 
172 3 1 -8.321000 17.445999 2.596000 # CA 
173 3 1 -7.434000 20.174004 2.596000 # CA 
174 3 1 -4.566000 20.174004 2.596000 # CA 
175 3 1 -3.679000 17.445999 2.596000 # CA 
176 3 1 -6.723000 19.195000 3.344000 # CA 
177 3 1 -5.277000 19.195000 3.344000 # CA 
178 3 1 -4.830000 17.820000 3.344000 # CA 
179 3 1 -6.000000 16.970001 3.344000 # CA 
180 3 1 -7.170000 17.820000 3.344000 # CA 
181 4 1 5.277000 17.205002 -3.343000 # CA 
182 4 1 6.723000 17.205002 -3.343000 # CA 
183 4 1 7.170000 18.580002 -3.343000 # CA 
184 4 1 6.000000 19.430000 -3.343000 # CA 
185 4 1 4.830000 18.580002 -3.343000 # CA 
186 4 1 3.679000 18.954002 -2.595000 # CA 
187 4 1 4.566000 16.225998 -2.595000 # CA 
188 4 1 7.434000 16.225998 -2.595000 # CA 
189 4 1 8.321000 18.954002 -2.595000 # CA 
190 4 1 6.000000 20.639999 -2.595000 # CA 
191 4 1 8.604000 16.606003 -1.835000 # CA 
192 4 1 9.044000 17.959000 -1.835000 # CA 
193 4 1 8.321000 20.183998 -1.835000 # CA 
194 4 1 7.170000 21.019997 -1.835000 # CA 
195 4 1 4.830000 21.019997 -1.835000 # CA 
196 4 1 3.679000 20.183998 -1.835000 # CA 
197 4 1 2.956000 17.959000 -1.835000 # CA 
198 4 1 3.396000 16.606003 -1.835000 # CA 
199 4 1 5.289000 15.231003 -1.835000 # CA 
200 4 1 6.711000 15.231003 -1.835000 # CA 
201 4 1 4.566000 14.996002 -0.605000 # CA 
202 4 1 3.396000 15.846001 -0.605000 # CA 
203 4 1 7.434000 14.996002 -0.605000 # CA 
204 4 1 8.604000 15.846001 -0.605000 # CA 
205 4 1 9.491000 18.573997 -0.605000 # CA 
206 4 1 9.044000 19.948997 -0.605000 # CA 
207 4 1 6.723000 21.635002 -0.605000 # CA 
208 4 1 5.277000 21.635002 -0.605000 # CA 
209 4 1 2.956000 19.948997 -0.605000 # CA 
210 4 1 2.509000 18.573997 -0.605000 # CA 
211 4 1 5.277000 14.764999 0.605000 # CA 
212 4 1 6.723000 14.764999 0.605000 # CA 
213 4 1 9.044000 16.450996 0.605000 # CA 
214 4 1 9.491000 17.825996 0.605000 # CA 
215 4 1 8.604000 20.554001 0.605000 # CA 
216 4 1 7.434000 21.403999 0.605000 # CA 
217 4 1 3.396000 20.554001 0.605000 # CA 
218 4 1 4.566000 21.403999 0.605000 # CA 
219 4 1 2.956000 16.450996 0.605000 # CA 
220 4 1 2.509000 17.825996 0.605000 # CA 
221 4 1 7.170000 15.379997 1.835000 # CA 
222 4 1 8.321000 16.216003 1.835000 # CA 
223 4 1 3.679000 16.216003 1.835000 # CA 
224 4 1 4.830000 15.379997 1.835000 # CA 
225 4 1 2.956000 18.441002 1.835000 # CA 
226 4 1 3.396000 19.793999 1.835000 # CA 
227 4 1 5.289000 21.168999 1.835000 # CA 
228 4 1 6.711000 21.168999 1.835000 # CA 
229 4 1 9.044000 18.441002 1.835000 # CA 
230 4 1 8.604000 19.793999 1.835000 # CA 
231 4 1 6.000000 15.760002 2.596000 # CA 
232 4 1 3.679000 17.445999 2.596000 # CA 
233 4 1 4.566000 20.174004 2.596000 # CA 
234 4 1 7.434000 20.174004 2.596000 # CA 
235 4 1 8.321000 17.445999 2.596000 # CA 
236 4 1 5.277000 19.195000 3.344000 # CA 
237 4 1 6.723000 19.195000 3.344000 # CA 
238 4 1 7.170000 17.820000 3.344000 # CA 
239 4 1 6.000000 16.970001 3.344000 # CA 
240 4 1 4.830000 17.820000 3.344000 # CA 
241 5 1 17.277000 17.205002 -3.343000 # CA 
242 5 1 18.723000 17.205002 -3.343000 # CA 
243 5 1 19.170000 18.580002 -3.343000 # CA 
244 5 1 18.000000 19.430000 -3.343000 # CA 
245 5 1 16.830000 18.580002 -3.343000 # CA 
246 5 1 15.679000 18.954002 -2.595000 # CA 
247 5 1 16.566000 16.225998 -2.595000 # CA 
248 5 1 19.434000 16.225998 -2.595000 # CA 
249 5 1 20.320999 18.954002 -2.595000 # CA 
250 5 1 18.000000 20.639999 -2.595000 # CA 
251 5 1 20.604000 16.606003 -1.835000 # CA 
252 5 1 21.044001 17.959000 -1.835000 # CA 
253 5 1 20.320999 20.183998 -1.835000 # CA 
254 5 1 19.170000 21.019997 -1.835000 # CA 
255 5 1 16.830000 21.019997 -1.835000 # CA 
256 5 1 15.679000 20.183998 -1.835000 # CA 
257 5 1 14.956000 17.959000 -1.835000 # CA 
258 5 1 15.396000 16.606003 -1.835000 # CA 
259 5 1 17.289000 15.231003 -1.835000 # CA 
260 5 1 18.711000 15.231003 -1.835000 # CA 
261 5 1 16.566000 14.996002 -0.605000 # CA 
262 5 1 15.396000 15.846001 -0.605000 # CA 
263 5 1 19.434000 14.996002 -0.605000 # CA 
264 5 1 20.604000 15.846001 -0.605000 # CA 
265 5 1 21.490999 18.573997 -0.605000 # CA 
266 5 1 21.044001 19.948997 -0.605000 # CA 
267 5 1 18.723000 21.635002 -0.605000 # CA 
268 5 1 17.277000 21.635002 -0.605000 # CA 
269 5 1 14.956000 19.948997 -0.605000 # CA 
270 5 1 14.509000 18.573997 -0.605000 # CA 
271 5 1 17.277000 14.764999 0.605000 # CA 
272 5 1 18.723000 14.764999 0.605000 # CA 
273 5 1 21.044001 16.450996 0.605000 # CA 
274 5 1 21.490999 17.825996 0.605000 # CA 
275 5 1 20.604000 20.554001 0.605000 # CA 
276 5 1 19.434000 21.403999 0.605000 # CA 
277 5 1 15.396000 20.554001 0.605000 # CA 
278 5 1 16.566000 21.403999 0.605000 # CA 
279 5 1 14.956000 16.450996 0.605000 # CA 
280 5 1 14.509000 17.825996 0.605000 # CA 
281 5 1 19.170000 15.379997 1.835000 # CA 
282 5 1 20.320999 16.216003 1.835000 # CA 
283 5 1 15.679000 16.216003 1.835000 # CA 
284 5 1 16.830000 15.379997 1.835000 # CA 
285 5 1 14.956000 18.441002 1.835000 # CA 
286 5 1 15.396000 19.793999 1.835000 # CA 
287 5 1 17.289000 21.168999 1.835000 # CA 
288 5 1 18.711000 21.168999 1.835000 # CA 
289 5 1 21.044001 18.441002 1.835000 # CA 
290 5 1 20.604000 19.793999 1.835000 # CA 
291 5 1 18.000000 15.760002 2.596000 # CA 
292 5 1 15.679000 17.445999 2.596000 # CA 
293 5 1 16.566000 20.174004 2.596000 # CA 
294 5 1 19.434000 20.174004 2.596000 # CA 
295 5 1 20.320999 17.445999 2.596000 # CA 
296 5 1 17.277000 19.195000 3.344000 # CA 
297 5 1 18.723000 19.195000 3.344000 # CA 
298 5 1 19.170000 17.820000 3.344000 # CA 
299 5 1 18.000000 16.970001 3.344000 # CA 
300 5 1 16.830000 17.820000 3.344000 # CA 
301 6 1 -19.026766 5.150200 0.463526 # CA 
302 6 1 -18.758787 4.841286 1.816965 # CA 
303 6 1 -17.418905 4.658928 2.243620 # CA 
304 6 1 -17.150930 3.894150 3.402213 # CA 
305 6 1 -21.438559 5.087921 0.923321 # CA 
306 6 1 -21.170580 4.658928 2.243620 # CA 
307 6 1 -19.830694 4.439056 2.652211 # CA 
308 6 1 -19.562719 3.573494 3.737585 # CA 
309 6 1 -18.222837 3.224075 4.042864 # CA 
310 6 1 -17.954859 2.032341 4.754894 # CA 
311 6 2 -23.850348 4.984665 1.375681 # CF 
312 6 2 -23.582373 4.439056 2.652211 # CF 
313 6 1 -22.242487 4.183441 3.039448 # CA 
314 6 1 -21.974512 3.224075 4.042864 # CA 
315 6 1 -20.634626 2.848701 4.315593 # CA 
316 6 1 -20.366652 1.597931 4.917930 # CA 
317 6 1 -19.026766 1.150658 5.041369 # CA 
318 6 1 -18.758787 -0.231995 5.165811 # CA 
319 6 1 -17.418905 -0.694122 5.124218 # CA 
320 6 1 -17.150930 -2.032341 4.754894 # CA 
321 6 2 -27.870001 5.171021 0.000000 # CF 
322 6 2 -27.602026 4.984665 1.375681 # CF 
323 6 2 -26.262140 4.841286 1.816965 # CF 
324 6 2 -25.994162 4.183441 3.039448 # CF 
325 6 2 -24.654280 3.894150 3.402213 # CF 
326 6 2 -24.386301 2.848701 4.315593 # CF 
327 6 2 -23.046419 2.450386 4.553575 # CF 
328 6 1 -22.778440 1.150658 5.041369 # CA 
329 6 1 -21.438559 0.694122 5.124218 # CA 
330 6 1 -21.170580 -0.694122 5.124218 # CA 
331 6 1 -19.830694 -1.150658 5.041369 # CA 
332 6 1 -19.562719 -2.450386 4.553575 # CA 
333 6 1 -18.222837 -2.848701 4.315593 # CA 
334 6 1 -17.954859 -3.894142 3.402213 # CA 
335 6 2 -27.066069 3.573494 3.737585 # CF 
336 6 2 -26.798094 2.450386 4.553575 # CF 
337 6 2 -25.458208 2.032341 4.754894 # CF 
338 6 2 -25.190233 0.694122 5.124218 # CF 
339 6 2 -23.850348 0.231995 5.165811 # CF 
340 6 2 -23.582373 -1.150658 5.041369 # CF 
341 6 1 -22.242487 -1.597931 4.917930 # CA 
342 6 1 -21.974512 -2.848701 4.315593 # CA 
343 6 1 -20.634626 -3.224075 4.042864 # CA 
344 6 1 -20.366652 -4.183441 3.039448 # CA 
345 6 1 -19.026766 -4.439056 2.652211 # CA 
346 6 1 -18.758787 -4.984665 1.375681 # CA 
347 6 1 -17.418905 -5.087921 0.923321 # CA 
348 6 1 -17.150930 -5.150200 -0.463526 # CA 
349 6 2 -27.870001 1.597931 4.917930 # CF 
350 6 2 -27.602026 0.231995 5.165811 # CF 
351 6 2 -26.262140 -0.231995 5.165811 # CF 
352 6 2 -25.994162 -1.597931 4.917930 # CF 
353 6 2 -24.654280 -2.032341 4.754894 # CF 
354 6 2 -24.386301 -3.224075 4.042864 # CF 
355 6 2 -23.046419 -3.573494 3.737585 # CF 
356 6 1 -22.778440 -4.439056 2.652211 # CA 
357 6 1 -21.438559 -4.658928 2.243620 # CA 
358 6 1 -21.170580 -5.087921 0.923321 # CA 
359 6 1 -19.830694 -5.150200 0.463526 # CA 
360 6 1 -19.562719 -5.087921 -0.923321 # CA 
361 6 1 -18.222837 -4.984665 -1.375681 # CA 
362 6 1 -17.954859 -4.439056 -2.652211 # CA 
363 6 2 -27.066069 -2.450386 4.553575 # CF 
364 6 2 -26.798094 -3.573494 3.737585 # CF 
365 6 2 -25.458208 -3.894142 3.402213 # CF 
366 6 2 -25.190233 -4.658928 2.243620 # CF 
367 6 2 -23.850348 -4.841286 1.816965 # CF 
368 6 2 -23.582373 -5.150200 0.463526 # CF 
369 6 1 -22.242487 -5.171021 0.000000 # CA 
370 6 1 -21.974512 -4.984665 -1.375681 # CA 
371 6 1 -20.634626 -4.841286 -1.816965 # CA 
372 6 1 -20.366652 -4.183441 -3.039448 # CA 
373 6 1 -19.026766 -3.894142 -3.402213 # CA 
374 6 1 -18.758787 -2.848701 -4.315593 # CA 
375 6 1 -17.418905 -2.450386 -4.553575 # CA 
376 6 1 -17.150930 -1.150658 -5.041369 # CA 
377 6 2 -27.870001 -4.183441 3.039448 # CF 
378 6 2 -27.602026 -4.841286 1.816965 # CF 
379 6 2 -26.262140 -4.984665 1.375681 # CF 
380 6 2 -25.994162 -5.171021 0.000000 # CF 
381 6 2 -24.654280 -5.150200 -0.463526 # CF 
382 6 2 -24.386301 -4.841286 -1.816965 # CF 
383 6 2 -23.046419 -4.658928 -2.243620 # CF 
384 6 1 -22.778440 -3.894142 -3.402213 # CA 
385 6 1 -21.438559 -3.573494 -3.737585 # CA 
386 6 1 -21.170580 -2.450386 -4.553575 # CA 
387 6 1 -19.830694 -2.032341 -4.754894 # CA 
388 6 1 -19.562719 -0.694122 -5.124218 # CA 
389 6 1 -18.222837 -0.231995 -5.165811 # CA 
390 6 1 -17.954859 1.150658 -5.041369 # CA 
391 6 2 -27.066069 -5.087921 -0.923321 # CF 
392 6 2 -26.798094 -4.658928 -2.243620 # CF 
393 6 2 -25.458208 -4.439056 -2.652211 # CF 
394 6 2 -25.190233 -3.573494 -3.737585 # CF 
395 6 2 -23.850348 -3.224075 -4.042864 # CF 
396 6 2 -23.582373 -2.032341 -4.754894 # CF 
397 6 1 -22.242487 -1.597931 -4.917930 # CA 
398 6 1 -21.974512 -0.231995 -5.165811 # CA 
399 6 1 -20.634626 0.231995 -5.165811 # CA 
400 6 1 -20.366652 1.597931 -4.917930 # CA 
401 6 1 -19.026766 2.032341 -4.754894 # CA 
402 6 1 -18.758787 3.224075 -4.042864 # CA 
403 6 1 -17.418905 3.573494 -3.737585 # CA 
404 6 1 -17.150930 4.439056 -2.652211 # CA 
405 6 2 -27.870001 -4.183441 -3.039448 # CF 
406 6 2 -27.602026 -3.224075 -4.042864 # CF 
407 6 2 -26.262140 -2.848701 -4.315593 # CF 
408 6 2 -25.994162 -1.597931 -4.917930 # CF 
409 6 2 -24.654280 -1.150658 -5.041369 # CF 
410 6 2 -24.386301 0.231995 -5.165811 # CF 
411 6 2 -23.046419 0.694122 -5.124218 # CF 
412 6 1 -22.778440 2.032341 -4.754894 # CA 
413 6 1 -21.438559 2.450386 -4.553575 # CA 
414 6 1 -21.170580 3.573494 -3.737585 # CA 
415 6 1 -19.830694 3.894150 -3.402213 # CA 
416 6 1 -19.562719 4.658928 -2.243620 # CA 
417 6 1 -18.222837 4.841286 -1.816965 # CA 
418 6 1 -17.954859 5.150200 -0.463526 # CA 
419 6 2 -27.066069 -0.694122 -5.124218 # CF 
420 6 2 -26.798094 0.694122 -5.124218 # CF 
421 6 2 -25.458208 1.150658 -5.041369 # CF 
422 6 2 -25.190233 2.450386 -4.553575 # CF 
423 6 2 -23.850348 2.848701 -4.315593 # CF 
424 6 2 -23.582373 3.894150 -3.402213 # CF 
425 6 1 -22.242487 4.183441 -3.039448 # CA 
426 6 1 -21.974512 4.841286 -1.816965 # CA 
427 6 1 -20.634626 4.984665 -1.375681 # CA 
428 6 1 -20.366652 5.171021 0.000000 # CA 
429 6 2 -27.870001 1.597931 -4.917930 # CF 
430 6 2 -27.602026 2.848701 -4.315593 # CF 
431 6 2 -26.262140 3.224075 -4.042864 # CF 
432 6 2 -25.994162 4.183441 -3.039448 # CF 
433 6 2 -24.654280 4.439056 -2.652211 # CF 
434 6 2 -24.386301 4.984665 -1.375681 # CF 
435 6 2 -23.046419 5.087921 -0.923321 # CF 
436 6 1 -22.778440 5.150200 0.463526 # CA 
437 6 2 -27.066069 4.658928 -2.243620 # CF 
438 6 2 -26.798094 5.087921 -0.923321 # CF 
439 6 2 -25.458208 5.150200 -0.463526 # CF 
440 6 2 -25.190233 5.087921 0.923321 # CF 
441 6 1 -7.771739 5.150200 0.463526 # CA 
442 6 1 -7.503762 4.841286 1.816965 # CA 
443 6 1 -6.163879 4.658928 2.243620 # CA 
444 6 1 -5.895902 3.894150 3.402213 # CA 
445 6 1 -10.183530 5.087921 0.923321 # CA 
446 6 1 -9.915555 4.658928 2.243620 # CA 
447 6 1 -8.575669 4.439056 2.652211 # CA 
448 6 1 -8.307693 3.573494 3.737585 # CA 
449 6 1 -6.967809 3.224075 4.042864 # CA 
450 6 1 -6.699832 2.032341 4.754894 # CA 
451 6 1 -12.595323 4.984665 1.375681 # CA 
452 6 1 -12.327344 4.439056 2.652211 # CA 
453 6 1 -10.987462 4.183441 3.039448 # CA 
454 6 1 -10.719482 3.224075 4.042864 # CA 
455 6 1 -9.379600 2.848701 4.315593 # CA 
456 6 1 -9.111623 1.597931 4.917930 # CA 
457 6 1 -7.771739 1.150658 5.041369 # CA 
458 6 1 -7.503762 -0.231995 5.165811 # CA 
459 6 1 -6.163879 -0.694122 5.124218 # CA 
460 6 1 -5.895902 -2.032341 4.754894 # CA 
461 6 1 -16.614973 5.171021 0.000000 # CA 
462 6 1 -16.346998 4.984665 1.375681 # CA 
463 6 1 -15.007112 4.841286 1.816965 # CA 
464 6 1 -14.739137 4.183441 3.039448 # CA 
465 6 1 -13.399251 3.894150 3.402213 # CA 
466 6 1 -13.131276 2.848701 4.315593 # CA 
467 6 1 -11.791390 2.450386 4.553575 # CA 
468 6 1 -11.523412 1.150658 5.041369 # CA 
469 6 1 -10.183530 0.694122 5.124218 # CA 
470 6 1 -9.915555 -0.694122 5.124218 # CA 
471 6 1 -8.575669 -1.150658 5.041369 # CA 
472 6 1 -8.307693 -2.450386 4.553575 # CA 
473 6 1 -6.967809 -2.848701 4.315593 # CA 
474 6 1 -6.699832 -3.894142 3.402213 # CA 
475 6 1 -15.811044 3.573494 3.737585 # CA 
476 6 1 -15.543065 2.450386 4.553575 # CA 
477 6 1 -14.203183 2.032341 4.754894 # CA 
478 6 1 -13.935205 0.694122 5.124218 # CA 
479 6 1 -12.595323 0.231995 5.165811 # CA 
480 6 1 -12.327344 -1.150658 5.041369 # CA 
481 6 1 -10.987462 -1.597931 4.917930 # CA 
482 6 1 -10.719482 -2.848701 4.315593 # CA 
483 6 1 -9.379600 -3.224075 4.042864 # CA 
484 6 1 -9.111623 -4.183441 3.039448 # CA 
485 6 1 -7.771739 -4.439056 2.652211 # CA 
486 6 1 -7.503762 -4.984665 1.375681 # CA 
487 6 1 -6.163879 -5.087921 0.923321 # CA 
488 6 1 -5.895902 -5.150200 -0.463526 # CA 
489 6 1 -16.614973 1.597931 4.917930 # CA 
490 6 1 -16.346998 0.231995 5.165811 # CA 
491 6 1 -15.007112 -0.231995 5.165811 # CA 
492 6 1 -14.739137 -1.597931 4.917930 # CA 
493 6 1 -13.399251 -2.032341 4.754894 # CA 
494 6 1 -13.131276 -3.224075 4.042864 # CA 
495 6 1 -11.791390 -3.573494 3.737585 # CA 
496 6 1 -11.523412 -4.439056 2.652211 # CA 
497 6 1 -10.183530 -4.658928 2.243620 # CA 
498 6 1 -9.915555 -5.087921 0.923321 # CA 
499 6 1 -8.575669 -5.150200 0.463526 # CA 
500 6 1 -8.307693 -5.087921 -0.923321 # CA 
501 6 1 -6.967809 -4.984665 -1.375681 # CA 
502 6 1 -6.699832 -4.439056 -2.652211 # CA 
503 6 1 -15.811044 -2.450386 4.553575 # CA 
504 6 1 -15.543065 -3.573494 3.737585 # CA 
505 6 1 -14.203183 -3.894142 3.402213 # CA 
506 6 1 -13.935205 -4.658928 2.243620 # CA 
507 6 1 -12.595323 -4.841286 1.816965 # CA 
508 6 1 -12.327344 -5.150200 0.463526 # CA 
509 6 1 -10.987462 -5.171021 0.000000 # CA 
510 6 1 -10.719482 -4.984665 -1.375681 # CA 
511 6 1 -9.379600 -4.841286 -1.816965 # CA 
512 6 1 -9.111623 -4.183441 -3.039448 # CA 
513 6 1 -7.771739 -3.894142 -3.402213 # CA 
514 6 1 -7.503762 -2.848701 -4.315593 # CA 
515 6 1 -6.163879 -2.450386 -4.553575 # CA 
516 6 1 -5.895902 -1.150658 -5.041369 # CA 
517 6 1 -16.614973 -4.183441 3.039448 # CA 
518 6 1 -16.346998 -4.841286 1.816965 # CA 
519 6 1 -15.007112 -4.984665 1.375681 # CA 
520 6 1 -14.739137 -5.171021 0.000000 # CA 
521 6 1 -13.399251 -5.150200 -0.463526 # CA 
522 6 1 -13.131276 -4.841286 -1.816965 # CA 
523 6 1 -11.791390 -4.658928 -2.243620 # CA 
524 6 1 -11.523412 -3.894142 -3.402213 # CA 
525 6 1 -10.183530 -3.573494 -3.737585 # CA 
526 6 1 -9.915555 -2.450386 -4.553575 # CA 
527 6 1 -8.575669 -2.032341 -4.754894 # CA 
528 6 1 -8.307693 -0.694122 -5.124218 # CA 
529 6 1 -6.967809 -0.231995 -5.165811 # CA 
530 6 1 -6.699832 1.150658 -5.041369 # CA 
531 6 1 -15.811044 -5.087921 -0.923321 # CA 
532 6 1 -15.543065 -4.658928 -2.243620 # CA 
533 6 1 -14.203183 -4.439056 -2.652211 # CA 
534 6 1 -13.935205 -3.573494 -3.737585 # CA 
535 6 1 -12.595323 -3.224075 -4.042864 # CA 
536 6 1 -12.327344 -2.032341 -4.754894 # CA 
537 6 1 -10.987462 -1.597931 -4.917930 # CA 
538 6 1 -10.719482 -0.231995 -5.165811 # CA 
539 6 1 -9.379600 0.231995 -5.165811 # CA 
540 6 1 -9.111623 1.597931 -4.917930 # CA 
541 6 1 -7.771739 2.032341 -4.754894 # CA 
542 6 1 -7.503762 3.224075 -4.042864 # CA 
543 6 1 -6.163879 3.573494 -3.737585 # CA 
544 6 1 -5.895902 4.439056 -2.652211 # CA 
545 6 1 -16.614973 -4.183441 -3.039448 # CA 
546 6 1 -16.346998 -3.224075 -4.042864 # CA 
547 6 1 -15.007112 -2.848701 -4.315593 # CA 
548 6 1 -14.739137 -1.597931 -4.917930 # CA 
549 6 1 -13.399251 -1.150658 -5.041369 # CA 
550 6 1 -13.131276 0.231995 -5.165811 # CA 
551 6 1 -11.791390 0.694122 -5.124218 # CA 
552 6 1 -11.523412 2.032341 -4.754894 # CA 
553 6 1 -10.183530 2.450386 -4.553575 # CA 
554 6 1 -9.915555 3.573494 -3.737585 # CA 
555 6 1 -8.575669 3.894150 -3.402213 # CA 
556 6 1 -8.307693 4.658928 -2.243620 # CA 
557 6 1 -6.967809 4.841286 -1.816965 # CA 
558 6 1 -6.699832 5.150200 -0.463526 # CA 
559 6 1 -15.811044 -0.694122 -5.124218 # CA 
560 6 1 -15.543065 0.694122 -5.124218 # CA 
561 6 1 -14.203183 1.150658 -5.041369 # CA 
562 6 1 -13.935205 2.450386 -4.553575 # CA 
563 6 1 -12.595323 2.848701 -4.315593 # CA 
564 6 1 -12.327344 3.894150 -3.402213 # CA 
565 6 1 -10.987462 4.183441 -3.039448 # CA 
566 6 1 -10.719482 4.841286 -1.816965 # CA 
567 6 1 -9.379600 4.984665 -1.375681 # CA 
568 6 1 -9.111623 5.171021 0.000000 # CA 
569 6 1 -16.614973 1.597931 -4.917930 # CA 
570 6 1 -16.346998 2.848701 -4.315593 # CA 
571 6 1 -15.007112 3.224075 -4.042864 # CA 
572 6 1 -14.739137 4.183441 -3.039448 # CA 
573 6 1 -13.399251 4.439056 -2.652211 # CA 
574 6 1 -13.131276 4.984665 -1.375681 # CA 
575 6 1 -11.791390 5.087921 -0.923321 # CA 
576 6 1 -11.523412 5.150200 0.463526 # CA 
577 6 1 -15.811044 4.658928 -2.243620 # CA 
578 6 1 -15.543065 5.087921 -0.923321 # CA 
579 6 1 -14.203183 5.150200 -0.463526 # CA 
580 6 1 -13.935205 5.087921 0.923321 # CA 
581 6 1 3.483287 5.150200 0.463526 # CA 
582 6 1 3.751262 4.841286 1.816965 # CA 
583 6 1 5.091147 4.658928 2.243620 # CA 
584 6 1 5.359126 3.894150 3.402213 # CA 
585 6 1 1.071498 5.087921 0.923321 # CA 
586 6 1 1.339473 4.658928 2.243620 # CA 
587 6 1 2.679355 4.439056 2.652211 # CA 
588 6 1 2.947333 3.573494 3.737585 # CA 
589 6 1 4.287219 3.224075 4.042864 # CA 
590 6 1 4.555194 2.032341 4.754894 # CA 
591 6 1 -1.340295 4.984665 1.375681 # CA 
592 6 1 -1.072318 4.439056 2.652211 # CA 
593 6 1 0.267566 4.183441 3.039448 # CA 
594 6 1 0.535540 3.224075 4.042864 # CA 
595 6 1 1.875426 2.848701 4.315593 # CA 
596 6 1 2.143405 1.597931 4.917930 # CA 
597 6 1 3.483287 1.150658 5.041369 # CA 
598 6 1 3.751262 -0.231995 5.165811 # CA 
599 6 1 5.091147 -0.694122 5.124218 # CA 
600 6 1 5.359126 -2.032341 4.754894 # CA 
601 6 1 -5.359948 5.171021 0.000000 # CA 
602 6 1 -5.091972 4.984665 1.375681 # CA 
603 6 1 -3.752088 4.841286 1.816965 # CA 
604 6 1 -3.484111 4.183441 3.039448 # CA 
605 6 1 -2.144225 3.894150 3.402213 # CA 
606 6 1 -1.876248 2.848701 4.315593 # CA 
607 6 1 -0.536367 2.450386 4.553575 # CA 
608 6 1 -0.268388 1.150658 5.041369 # CA 
609 6 1 1.071498 0.694122 5.124218 # CA 
610 6 1 1.339473 -0.694122 5.124218 # CA 
611 6 1 2.679355 -1.150658 5.041369 # CA 
612 6 1 2.947333 -2.450386 4.553575 # CA 
613 6 1 4.287219 -2.848701 4.315593 # CA 
614 6 1 4.555194 -3.894142 3.402213 # CA 
615 6 1 -4.556018 3.573494 3.737585 # CA 
616 6 1 -4.288041 2.450386 4.553575 # CA 
617 6 1 -2.948157 2.032341 4.754894 # CA 
618 6 1 -2.680181 0.694122 5.124218 # CA 
619 6 1 -1.340295 0.231995 5.165811 # CA 
620 6 1 -1.072318 -1.150658 5.041369 # CA 
621 6 1 0.267566 -1.597931 4.917930 # CA 
622 6 1 0.535540 -2.848701 4.315593 # CA 
623 6 1 1.875426 -3.224075 4.042864 # CA 
624 6 1 2.143405 -4.183441 3.039448 # CA 
625 6 1 3.483287 -4.439056 2.652211 # CA 
626 6 1 3.751262 -4.984665 1.375681 # CA 
627 6 1 5.091147 -5.087921 0.923321 # CA 
628 6 1 5.359126 -5.150200 -0.463526 # CA 
629 6 1 -5.359948 1.597931 4.917930 # CA 
630 6 1 -5.091972 0.231995 5.165811 # CA 
631 6 1 -3.752088 -0.231995 5.165811 # CA 
632 6 1 -3.484111 -1.597931 4.917930 # CA 
633 6 1 -2.144225 -2.032341 4.754894 # CA 
634 6 1 -1.876248 -3.224075 4.042864 # CA 
635 6 1 -0.536367 -3.573494 3.737585 # CA 
636 6 1 -0.268388 -4.439056 2.652211 # CA 
637 6 1 1.071498 -4.658928 2.243620 # CA 
638 6 1 1.339473 -5.087921 0.923321 # CA 
639 6 1 2.679355 -5.150200 0.463526 # CA 
640 6 1 2.947333 -5.087921 -0.923321 # CA 
641 6 1 4.287219 -4.984665 -1.375681 # CA 
642 6 1 4.555194 -4.439056 -2.652211 # CA 
643 6 1 -4.556018 -2.450386 4.553575 # CA 
644 6 1 -4.288041 -3.573494 3.737585 # CA 
645 6 1 -2.948157 -3.894142 3.402213 # CA 
646 6 1 -2.680181 -4.658928 2.243620 # CA 
647 6 1 -1.340295 -4.841286 1.816965 # CA 
648 6 1 -1.072318 -5.150200 0.463526 # CA 
649 6 1 0.267566 -5.171021 0.000000 # CA 
650 6 1 0.535540 -4.984665 -1.375681 # CA 
651 6 1 1.875426 -4.841286 -1.816965 # CA 
652 6 1 2.143405 -4.183441 -3.039448 # CA 
653 6 1 3.483287 -3.894142 -3.402213 # CA 
654 6 1 3.751262 -2.848701 -4.315593 # CA 
655 6 1 5.091147 -2.450386 -4.553575 # CA 
656 6 1 5.359126 -1.150658 -5.041369 # CA 
657 6 1 -5.359948 -4.183441 3.039448 # CA 
658 6 1 -5.091972 -4.841286 1.816965 # CA 
659 6 1 -3.752088 -4.984665 1.375681 # CA 
660 6 1 -3.484111 -5.171021 0.000000 # CA 
661 6 1 -2.144225 -5.150200 -0.463526 # CA 
662 6 1 -1.876248 -4.841286 -1.816965 # CA 
663 6 1 -0.536367 -4.658928 -2.243620 # CA 
664 6 1 -0.268388 -3.894142 -3.402213 # CA 
665 6 1 1.071498 -3.573494 -3.737585 # CA 
666 6 1 1.339473 -2.450386 -4.553575 # CA 
667 6 1 2.679355 -2.032341 -4.754894 # CA 
668 6 1 2.947333 -0.694122 -5.124218 # CA 
669 6 1 4.287219 -0.231995 -5.165811 # CA 
670 6 1 4.555194 1.150658 -5.041369 # CA 
671 6 1 -4.556018 -5.087921 -0.923321 # CA 
672 6 1 -4.288041 -4.658928 -2.243620 # CA 
673 6 1 -2.948157 -4.439056 -2.652211 # CA 
674 6 1 -2.680181 -3.573494 -3.737585 # CA 
675 6 1 -1.340295 -3.224075 -4.042864 # CA 
676 6 1 -1.072318 -2.032341 -4.754894 # CA 
677 6 1 0.267566 -1.597931 -4.917930 # CA 
678 6 1 0.535540 -0.231995 -5.165811 # CA 
679 6 1 1.875426 0.231995 -5.165811 # CA 
680 6 1 2.143405 1.597931 -4.917930 # CA 
681 6 1 3.483287 2.032341 -4.754894 # CA 
682 6 1 3.751262 3.224075 -4.042864 # CA 
683 6 1 5.091147 3.573494 -3.737585 # CA 
684 6 1 5.359126 4.439056 -2.652211 # CA 
685 6 1 -5.359948 -4.183441 -3.039448 # CA 