# AuO example

960 atoms
2 atom types

0 26.15618 xlo xhi
0 21.54252 ylo yhi
0 24.00246 zlo zhi

Masses

1 15.9994
2 196.9665

Atoms

   1 2 0.0  0.77942   3.90147   0.45327
   2 2 0.0  0.77942   3.90147   4.45368
   3 2 0.0  0.77942   3.90147   8.45409
   4 2 0.0  0.77942   3.90147  12.45450
   5 2 0.0  0.77942   3.90147  16.45491
   6 2 0.0  0.77942   3.90147  20.45532
   7 2 0.0  0.77942  14.67273   0.45327
   8 2 0.0  0.77942  14.67273   4.45368
   9 2 0.0  0.77942  14.67273   8.45409
  10 2 0.0  0.77942  14.67273  12.45450
  11 2 0.0  0.77942  14.67273  16.45491
  12 2 0.0  0.77942  14.67273  20.45532
  13 2 0.0 13.85751   3.90147   0.45327
  14 2 0.0 13.85751   3.90147   4.45368
  15 2 0.0 13.85751   3.90147   8.45409
  16 2 0.0 13.85751   3.90147  12.45450
  17 2 0.0 13.85751   3.90147  16.45491
  18 2 0.0 13.85751   3.90147  20.45532
  19 2 0.0 13.85751  14.67273   0.45327
  20 2 0.0 13.85751  14.67273   4.45368
  21 2 0.0 13.85751  14.67273   8.45409
  22 2 0.0 13.85751  14.67273  12.45450
  23 2 0.0 13.85751  14.67273  16.45491
  24 2 0.0 13.85751  14.67273  20.45532
  25 2 0.0  5.87820   1.58345   0.45499
  26 2 0.0  5.87820   1.58345   4.45540
  27 2 0.0  5.87820   1.58345   8.45581
  28 2 0.0  5.87820   1.58345  12.45622
  29 2 0.0  5.87820   1.58345  16.45663
  30 2 0.0  5.87820   1.58345  20.45704
  31 2 0.0  5.87820  12.35471   0.45499
  32 2 0.0  5.87820  12.35471   4.45540
  33 2 0.0  5.87820  12.35471   8.45581
  34 2 0.0  5.87820  12.35471  12.45622
  35 2 0.0  5.87820  12.35471  16.45663
  36 2 0.0  5.87820  12.35471  20.45704
  37 2 0.0 18.95629   1.58345   0.45499
  38 2 0.0 18.95629   1.58345   4.45540
  39 2 0.0 18.95629   1.58345   8.45581
  40 2 0.0 18.95629   1.58345  12.45622
  41 2 0.0 18.95629   1.58345  16.45663
  42 2 0.0 18.95629   1.58345  20.45704
  43 2 0.0 18.95629  12.35471   0.45499
  44 2 0.0 18.95629  12.35471   4.45540
  45 2 0.0 18.95629  12.35471   8.45581
  46 2 0.0 18.95629  12.35471  12.45622
  47 2 0.0 18.95629  12.35471  16.45663
  48 2 0.0 18.95629  12.35471  20.45704
  49 2 0.0  7.31156   9.28890   0.45901
  50 2 0.0  7.31156   9.28890   4.45942
  51 2 0.0  7.31156   9.28890   8.45983
  52 2 0.0  7.31156   9.28890  12.46024
  53 2 0.0  7.31156   9.28890  16.46065
  54 2 0.0  7.31156   9.28890  20.46106
  55 2 0.0  7.31156  20.06016   0.45901
  56 2 0.0  7.31156  20.06016   4.45942
  57 2 0.0  7.31156  20.06016   8.45983
  58 2 0.0  7.31156  20.06016  12.46024
  59 2 0.0  7.31156  20.06016  16.46065
  60 2 0.0  7.31156  20.06016  20.46106
  61 2 0.0 20.38965   9.28890   0.45901
  62 2 0.0 20.38965   9.28890   4.45942
  63 2 0.0 20.38965   9.28890   8.45983
  64 2 0.0 20.38965   9.28890  12.46024
  65 2 0.0 20.38965   9.28890  16.46065
  66 2 0.0 20.38965   9.28890  20.46106
  67 2 0.0 20.38965  20.06016   0.45901
  68 2 0.0 20.38965  20.06016   4.45942
  69 2 0.0 20.38965  20.06016   8.45983
  70 2 0.0 20.38965  20.06016  12.46024
  71 2 0.0 20.38965  20.06016  16.46065
  72 2 0.0 20.38965  20.06016  20.46106
  73 2 0.0 12.41979   6.96450   0.45374
  74 2 0.0 12.41979   6.96450   4.45415
  75 2 0.0 12.41979   6.96450   8.45456
  76 2 0.0 12.41979   6.96450  12.45497
  77 2 0.0 12.41979   6.96450  16.45538
  78 2 0.0 12.41979   6.96450  20.45579
  79 2 0.0 12.41979  17.73576   0.45374
  80 2 0.0 12.41979  17.73576   4.45415
  81 2 0.0 12.41979  17.73576   8.45456
  82 2 0.0 12.41979  17.73576  12.45497
  83 2 0.0 12.41979  17.73576  16.45538
  84 2 0.0 12.41979  17.73576  20.45579
  85 2 0.0 25.49788   6.96450   0.45374
  86 2 0.0 25.49788   6.96450   4.45415
  87 2 0.0 25.49788   6.96450   8.45456
  88 2 0.0 25.49788   6.96450  12.45497
  89 2 0.0 25.49788   6.96450  16.45538
  90 2 0.0 25.49788   6.96450  20.45579
  91 2 0.0 25.49788  17.73576   0.45374
  92 2 0.0 25.49788  17.73576   4.45415
  93 2 0.0 25.49788  17.73576   8.45456
  94 2 0.0 25.49788  17.73576  12.45497
  95 2 0.0 25.49788  17.73576  16.45538
  96 2 0.0 25.49788  17.73576  20.45579
  97 2 0.0  2.60605   6.59314   1.46285
  98 2 0.0  2.60605   6.59314   5.46326
  99 2 0.0  2.60605   6.59314   9.46367
 100 2 0.0  2.60605   6.59314  13.46408
 101 2 0.0  2.60605   6.59314  17.46449
 102 2 0.0  2.60605   6.59314  21.46490
 103 2 0.0  2.60605  17.36440   1.46285
 104 2 0.0  2.60605  17.36440   5.46326
 105 2 0.0  2.60605  17.36440   9.46367
 106 2 0.0  2.60605  17.36440  13.46408
 107 2 0.0  2.60605  17.36440  17.46449
 108 2 0.0  2.60605  17.36440  21.46490
 109 2 0.0 15.68414   6.59314   1.46285
 110 2 0.0 15.68414   6.59314   5.46326
 111 2 0.0 15.68414   6.59314   9.46367
 112 2 0.0 15.68414   6.59314  13.46408
 113 2 0.0 15.68414   6.59314  17.46449
 114 2 0.0 15.68414   6.59314  21.46490
 115 2 0.0 15.68414  17.36440   1.46285
 116 2 0.0 15.68414  17.36440   5.46326
 117 2 0.0 15.68414  17.36440   9.46367
 118 2 0.0 15.68414  17.36440  13.46408
 119 2 0.0 15.68414  17.36440  17.46449
 120 2 0.0 15.68414  17.36440  21.46490
 121 2 0.0  4.04063   9.65127   1.45129
 122 2 0.0  4.04063   9.65127   5.45170
 123 2 0.0  4.04063   9.65127   9.45211
 124 2 0.0  4.04063   9.65127  13.45252
 125 2 0.0  4.04063   9.65127  17.45293
 126 2 0.0  4.04063   9.65127  21.45334
 127 2 0.0  4.04063  20.42253   1.45129
 128 2 0.0  4.04063  20.42253   5.45170
 129 2 0.0  4.04063  20.42253   9.45211
 130 2 0.0  4.04063  20.42253  13.45252
 131 2 0.0  4.04063  20.42253  17.45293
 132 2 0.0  4.04063  20.42253  21.45334
 133 2 0.0 17.11872   9.65127   1.45129
 134 2 0.0 17.11872   9.65127   5.45170
 135 2 0.0 17.11872   9.65127   9.45211
 136 2 0.0 17.11872   9.65127  13.45252
 137 2 0.0 17.11872   9.65127  17.45293
 138 2 0.0 17.11872   9.65127  21.45334
 139 2 0.0 17.11872  20.42253   1.45129
 140 2 0.0 17.11872  20.42253   5.45170
 141 2 0.0 17.11872  20.42253   9.45211
 142 2 0.0 17.11872  20.42253  13.45252
 143 2 0.0 17.11872  20.42253  17.45293
 144 2 0.0 17.11872  20.42253  21.45334
 145 2 0.0  9.15245   1.21648   1.46125
 146 2 0.0  9.15245   1.21648   5.46166
 147 2 0.0  9.15245   1.21648   9.46207
 148 2 0.0  9.15245   1.21648  13.46248
 149 2 0.0  9.15245   1.21648  17.46289
 150 2 0.0  9.15245   1.21648  21.46330
 151 2 0.0  9.15245  11.98774   1.46125
 152 2 0.0  9.15245  11.98774   5.46166
 153 2 0.0  9.15245  11.98774   9.46207
 154 2 0.0  9.15245  11.98774  13.46248
 155 2 0.0  9.15245  11.98774  17.46289
 156 2 0.0  9.15245  11.98774  21.46330
 157 2 0.0 22.23054   1.21648   1.46125
 158 2 0.0 22.23054   1.21648   5.46166
 159 2 0.0 22.23054   1.21648   9.46207
 160 2 0.0 22.23054   1.21648  13.46248
 161 2 0.0 22.23054   1.21648  17.46289
 162 2 0.0 22.23054   1.21648  21.46330
 163 2 0.0 22.23054  11.98774   1.46125
 164 2 0.0 22.23054  11.98774   5.46166
 165 2 0.0 22.23054  11.98774   9.46207
 166 2 0.0 22.23054  11.98774  13.46248
 167 2 0.0 22.23054  11.98774  17.46289
 168 2 0.0 22.23054  11.98774  21.46330
 169 2 0.0 10.59067   4.27600   1.45909
 170 2 0.0 10.59067   4.27600   5.45950
 171 2 0.0 10.59067   4.27600   9.45991
 172 2 0.0 10.59067   4.27600  13.46032
 173 2 0.0 10.59067   4.27600  17.46073
 174 2 0.0 10.59067   4.27600  21.46114
 175 2 0.0 10.59067  15.04726   1.45909
 176 2 0.0 10.59067  15.04726   5.45950
 177 2 0.0 10.59067  15.04726   9.45991
 178 2 0.0 10.59067  15.04726  13.46032
 179 2 0.0 10.59067  15.04726  17.46073
 180 2 0.0 10.59067  15.04726  21.46114
 181 2 0.0 23.66876   4.27600   1.45909
 182 2 0.0 23.66876   4.27600   5.45950
 183 2 0.0 23.66876   4.27600   9.45991
 184 2 0.0 23.66876   4.27600  13.46032
 185 2 0.0 23.66876   4.27600  17.46073
 186 2 0.0 23.66876   4.27600  21.46114
 187 2 0.0 23.66876  15.04726   1.45909
 188 2 0.0 23.66876  15.04726   5.45950
 189 2 0.0 23.66876  15.04726   9.45991
 190 2 0.0 23.66876  15.04726  13.46032
 191 2 0.0 23.66876  15.04726  17.46073
 192 2 0.0 23.66876  15.04726  21.46114
 193 2 0.0  0.77139   9.29276   2.45924
 194 2 0.0  0.77139   9.29276   6.45965
 195 2 0.0  0.77139   9.29276  10.46006
 196 2 0.0  0.77139   9.29276  14.46047
 197 2 0.0  0.77139   9.29276  18.46088
 198 2 0.0  0.77139   9.29276  22.46129
 199 2 0.0  0.77139  20.06402   2.45924
 200 2 0.0  0.77139  20.06402   6.45965
 201 2 0.0  0.77139  20.06402  10.46006
 202 2 0.0  0.77139  20.06402  14.46047
 203 2 0.0  0.77139  20.06402  18.46088
 204 2 0.0  0.77139  20.06402  22.46129
 205 2 0.0 13.84948   9.29276   2.45924
 206 2 0.0 13.84948   9.29276   6.45965
 207 2 0.0 13.84948   9.29276  10.46006
 208 2 0.0 13.84948   9.29276  14.46047
 209 2 0.0 13.84948   9.29276  18.46088
 210 2 0.0 13.84948   9.29276  22.46129
 211 2 0.0 13.84948  20.06402   2.45924
 212 2 0.0 13.84948  20.06402   6.45965
 213 2 0.0 13.84948  20.06402  10.46006
 214 2 0.0 13.84948  20.06402  14.46047
 215 2 0.0 13.84948  20.06402  18.46088
 216 2 0.0 13.84948  20.06402  22.46129
 217 2 0.0  5.88406   6.96241   2.45124
 218 2 0.0  5.88406   6.96241   6.45165
 219 2 0.0  5.88406   6.96241  10.45206
 220 2 0.0  5.88406   6.96241  14.45247
 221 2 0.0  5.88406   6.96241  18.45288
 222 2 0.0  5.88406   6.96241  22.45329
 223 2 0.0  5.88406  17.73367   2.45124
 224 2 0.0  5.88406  17.73367   6.45165
 225 2 0.0  5.88406  17.73367  10.45206
 226 2 0.0  5.88406  17.73367  14.45247
 227 2 0.0  5.88406  17.73367  18.45288
 228 2 0.0  5.88406  17.73367  22.45329
 229 2 0.0 18.96215   6.96241   2.45124
 230 2 0.0 18.96215   6.96241   6.45165
 231 2 0.0 18.96215   6.96241  10.45206
 232 2 0.0 18.96215   6.96241  14.45247
 233 2 0.0 18.96215   6.96241  18.45288
 234 2 0.0 18.96215   6.96241  22.45329
 235 2 0.0 18.96215  17.73367   2.45124
 236 2 0.0 18.96215  17.73367   6.45165
 237 2 0.0 18.96215  17.73367  10.45206
 238 2 0.0 18.96215  17.73367  14.45247
 239 2 0.0 18.96215  17.73367  18.45288
 240 2 0.0 18.96215  17.73367  22.45329
 241 2 0.0  7.31681   3.89957   2.45495
 242 2 0.0  7.31681   3.89957   6.45536
 243 2 0.0  7.31681   3.89957  10.45577
 244 2 0.0  7.31681   3.89957  14.45618
 245 2 0.0  7.31681   3.89957  18.45659
 246 2 0.0  7.31681   3.89957  22.45700
 247 2 0.0  7.31681  14.67083   2.45495
 248 2 0.0  7.31681  14.67083   6.45536
 249 2 0.0  7.31681  14.67083  10.45577
 250 2 0.0  7.31681  14.67083  14.45618
 251 2 0.0  7.31681  14.67083  18.45659
 252 2 0.0  7.31681  14.67083  22.45700
 253 2 0.0 20.39490   3.89957   2.45495
 254 2 0.0 20.39490   3.89957   6.45536
 255 2 0.0 20.39490   3.89957  10.45577
 256 2 0.0 20.39490   3.89957  14.45618
 257 2 0.0 20.39490   3.89957  18.45659
 258 2 0.0 20.39490   3.89957  22.45700
 259 2 0.0 20.39490  14.67083   2.45495
 260 2 0.0 20.39490  14.67083   6.45536
 261 2 0.0 20.39490  14.67083  10.45577
 262 2 0.0 20.39490  14.67083  14.45618
 263 2 0.0 20.39490  14.67083  18.45659
 264 2 0.0 20.39490  14.67083  22.45700
 265 2 0.0 12.41545   1.58199   2.45788
 266 2 0.0 12.41545   1.58199   6.45829
 267 2 0.0 12.41545   1.58199  10.45870
 268 2 0.0 12.41545   1.58199  14.45911
 269 2 0.0 12.41545   1.58199  18.45952
 270 2 0.0 12.41545   1.58199  22.45993
 271 2 0.0 12.41545  12.35325   2.45788
 272 2 0.0 12.41545  12.35325   6.45829
 273 2 0.0 12.41545  12.35325  10.45870
 274 2 0.0 12.41545  12.35325  14.45911
 275 2 0.0 12.41545  12.35325  18.45952
 276 2 0.0 12.41545  12.35325  22.45993
 277 2 0.0 25.49354   1.58199   2.45788
 278 2 0.0 25.49354   1.58199   6.45829
 279 2 0.0 25.49354   1.58199  10.45870
 280 2 0.0 25.49354   1.58199  14.45911
 281 2 0.0 25.49354   1.58199  18.45952
 282 2 0.0 25.49354   1.58199  22.45993
 283 2 0.0 25.49354  12.35325   2.45788
 284 2 0.0 25.49354  12.35325   6.45829
 285 2 0.0 25.49354  12.35325  10.45870
 286 2 0.0 25.49354  12.35325  14.45911
 287 2 0.0 25.49354  12.35325  18.45952
 288 2 0.0 25.49354  12.35325  22.45993
 289 2 0.0  2.61333   1.21002   3.45056
 290 2 0.0  2.61333   1.21002   7.45097
 291 2 0.0  2.61333   1.21002  11.45138
 292 2 0.0  2.61333   1.21002  15.45179
 293 2 0.0  2.61333   1.21002  19.45220
 294 2 0.0  2.61333   1.21002  23.45261
 295 2 0.0  2.61333  11.98128   3.45056
 296 2 0.0  2.61333  11.98128   7.45097
 297 2 0.0  2.61333  11.98128  11.45138
 298 2 0.0  2.61333  11.98128  15.45179
 299 2 0.0  2.61333  11.98128  19.45220
 300 2 0.0  2.61333  11.98128  23.45261
 301 2 0.0 15.69142   1.21002   3.45056
 302 2 0.0 15.69142   1.21002   7.45097
 303 2 0.0 15.69142   1.21002  11.45138
 304 2 0.0 15.69142   1.21002  15.45179
 305 2 0.0 15.69142   1.21002  19.45220
 306 2 0.0 15.69142   1.21002  23.45261
 307 2 0.0 15.69142  11.98128   3.45056
 308 2 0.0 15.69142  11.98128   7.45097
 309 2 0.0 15.69142  11.98128  11.45138
 310 2 0.0 15.69142  11.98128  15.45179
 311 2 0.0 15.69142  11.98128  19.45220
 312 2 0.0 15.69142  11.98128  23.45261
 313 2 0.0  4.05043   4.27475   3.45652
 314 2 0.0  4.05043   4.27475   7.45693
 315 2 0.0  4.05043   4.27475  11.45734
 316 2 0.0  4.05043   4.27475  15.45775
 317 2 0.0  4.05043   4.27475  19.45816
 318 2 0.0  4.05043   4.27475  23.45857
 319 2 0.0  4.05043  15.04601   3.45652
 320 2 0.0  4.05043  15.04601   7.45693
 321 2 0.0  4.05043  15.04601  11.45734
 322 2 0.0  4.05043  15.04601  15.45775
 323 2 0.0  4.05043  15.04601  19.45816
 324 2 0.0  4.05043  15.04601  23.45857
 325 2 0.0 17.12852   4.27475   3.45652
 326 2 0.0 17.12852   4.27475   7.45693
 327 2 0.0 17.12852   4.27475  11.45734
 328 2 0.0 17.12852   4.27475  15.45775
 329 2 0.0 17.12852   4.27475  19.45816
 330 2 0.0 17.12852   4.27475  23.45857
 331 2 0.0 17.12852  15.04601   3.45652
 332 2 0.0 17.12852  15.04601   7.45693
 333 2 0.0 17.12852  15.04601  11.45734
 334 2 0.0 17.12852  15.04601  15.45775
 335 2 0.0 17.12852  15.04601  19.45816
 336 2 0.0 17.12852  15.04601  23.45857
 337 2 0.0  9.14989   6.59661   3.46322
 338 2 0.0  9.14989   6.59661   7.46363
 339 2 0.0  9.14989   6.59661  11.46404
 340 2 0.0  9.14989   6.59661  15.46445
 341 2 0.0  9.14989   6.59661  19.46486
 342 2 0.0  9.14989   6.59661  23.46527
 343 2 0.0  9.14989  17.36787   3.46322
 344 2 0.0  9.14989  17.36787   7.46363
 345 2 0.0  9.14989  17.36787  11.46404
 346 2 0.0  9.14989  17.36787  15.46445
 347 2 0.0  9.14989  17.36787  19.46486
 348 2 0.0  9.14989  17.36787  23.46527
 349 2 0.0 22.22798   6.59661   3.46322
 350 2 0.0 22.22798   6.59661   7.46363
 351 2 0.0 22.22798   6.59661  11.46404
 352 2 0.0 22.22798   6.59661  15.46445
 353 2 0.0 22.22798   6.59661  19.46486
 354 2 0.0 22.22798   6.59661  23.46527
 355 2 0.0 22.22798  17.36787   3.46322
 356 2 0.0 22.22798  17.36787   7.46363
 357 2 0.0 22.22798  17.36787  11.46404
 358 2 0.0 22.22798  17.36787  15.46445
 359 2 0.0 22.22798  17.36787  19.46486
 360 2 0.0 22.22798  17.36787  23.46527
 361 2 0.0 10.58421   9.65736   3.45503
 362 2 0.0 10.58421   9.65736   7.45544
 363 2 0.0 10.58421   9.65736  11.45585
 364 2 0.0 10.58421   9.65736  15.45626
 365 2 0.0 10.58421   9.65736  19.45667
 366 2 0.0 10.58421   9.65736  23.45708
 367 2 0.0 10.58421  20.42862   3.45503
 368 2 0.0 10.58421  20.42862   7.45544
 369 2 0.0 10.58421  20.42862  11.45585
 370 2 0.0 10.58421  20.42862  15.45626
 371 2 0.0 10.58421  20.42862  19.45667
 372 2 0.0 10.58421  20.42862  23.45708
 373 2 0.0 23.66230   9.65736   3.45503
 374 2 0.0 23.66230   9.65736   7.45544
 375 2 0.0 23.66230   9.65736  11.45585
 376 2 0.0 23.66230   9.65736  15.45626
 377 2 0.0 23.66230   9.65736  19.45667
 378 2 0.0 23.66230   9.65736  23.45708
 379 2 0.0 23.66230  20.42862   3.45503
 380 2 0.0 23.66230  20.42862   7.45544
 381 2 0.0 23.66230  20.42862  11.45585
 382 2 0.0 23.66230  20.42862  15.45626
 383 2 0.0 23.66230  20.42862  19.45667
 384 2 0.0 23.66230  20.42862  23.45708
 385 1 0.0  2.40629   5.02168   0.26814
 386 1 0.0  2.40629   5.02168   4.26855
 387 1 0.0  2.40629   5.02168   8.26896
 388 1 0.0  2.40629   5.02168  12.26937
 389 1 0.0  2.40629   5.02168  16.26978
 390 1 0.0  2.40629   5.02168  20.27019
 391 1 0.0  2.40629  15.79294   0.26814
 392 1 0.0  2.40629  15.79294   4.26855
 393 1 0.0  2.40629  15.79294   8.26896
 394 1 0.0  2.40629  15.79294  12.26937
 395 1 0.0  2.40629  15.79294  16.26978
 396 1 0.0  2.40629  15.79294  20.27019
 397 1 0.0 15.48438   5.02168   0.26814
 398 1 0.0 15.48438   5.02168   4.26855
 399 1 0.0 15.48438   5.02168   8.26896
 400 1 0.0 15.48438   5.02168  12.26937
 401 1 0.0 15.48438   5.02168  16.26978
 402 1 0.0 15.48438   5.02168  20.27019
 403 1 0.0 15.48438  15.79294   0.26814
 404 1 0.0 15.48438  15.79294   4.26855
 405 1 0.0 15.48438  15.79294   8.26896
 406 1 0.0 15.48438  15.79294  12.26937
 407 1 0.0 15.48438  15.79294  16.26978
 408 1 0.0 15.48438  15.79294  20.27019
 409 1 0.0  4.25927   0.45535   0.26653
 410 1 0.0  4.25927   0.45535   4.26694
 411 1 0.0  4.25927   0.45535   8.26735
 412 1 0.0  4.25927   0.45535  12.26776
 413 1 0.0  4.25927   0.45535  16.26817
 414 1 0.0  4.25927   0.45535  20.26858
 415 1 0.0  4.25927  11.22661   0.26653
 416 1 0.0  4.25927  11.22661   4.26694
 417 1 0.0  4.25927  11.22661   8.26735
 418 1 0.0  4.25927  11.22661  12.26776
 419 1 0.0  4.25927  11.22661  16.26817
 420 1 0.0  4.25927  11.22661  20.26858
 421 1 0.0 17.33736   0.45535   0.26653
 422 1 0.0 17.33736   0.45535   4.26694
 423 1 0.0 17.33736   0.45535   8.26735
 424 1 0.0 17.33736   0.45535  12.26776
 425 1 0.0 17.33736   0.45535  16.26817
 426 1 0.0 17.33736   0.45535  20.26858
 427 1 0.0 17.33736  11.22661   0.26653
 428 1 0.0 17.33736  11.22661   4.26694
 429 1 0.0 17.33736  11.22661   8.26735
 430 1 0.0 17.33736  11.22661  12.26776
 431 1 0.0 17.33736  11.22661  16.26817
 432 1 0.0 17.33736  11.22661  20.26858
 433 1 0.0  8.93563  10.41252   0.27776
 434 1 0.0  8.93563  10.41252   4.27817
 435 1 0.0  8.93563  10.41252   8.27858
 436 1 0.0  8.93563  10.41252  12.27899
 437 1 0.0  8.93563  10.41252  16.27940
 438 1 0.0  8.93563  10.41252  20.27981
 439 1 0.0  8.93563  21.18378   0.27776
 440 1 0.0  8.93563  21.18378   4.27817
 441 1 0.0  8.93563  21.18378   8.27858
 442 1 0.0  8.93563  21.18378  12.27899
 443 1 0.0  8.93563  21.18378  16.27940
 444 1 0.0  8.93563  21.18378  20.27981
 445 1 0.0 22.01372  10.41252   0.27776
 446 1 0.0 22.01372  10.41252   4.27817
 447 1 0.0 22.01372  10.41252   8.27858
 448 1 0.0 22.01372  10.41252  12.27899
 449 1 0.0 22.01372  10.41252  16.27940
 450 1 0.0 22.01372  10.41252  20.27981
 451 1 0.0 22.01372  21.18378   0.27776
 452 1 0.0 22.01372  21.18378   4.27817
 453 1 0.0 22.01372  21.18378   8.27858
 454 1 0.0 22.01372  21.18378  12.27899
 455 1 0.0 22.01372  21.18378  16.27940
 456 1 0.0 22.01372  21.18378  20.27981
 457 1 0.0 10.79899   5.84619   0.26954
 458 1 0.0 10.79899   5.84619   4.26995
 459 1 0.0 10.79899   5.84619   8.27036
 460 1 0.0 10.79899   5.84619  12.27077
 461 1 0.0 10.79899   5.84619  16.27118
 462 1 0.0 10.79899   5.84619  20.27159
 463 1 0.0 10.79899  16.61745   0.26954
 464 1 0.0 10.79899  16.61745   4.26995
 465 1 0.0 10.79899  16.61745   8.27036
 466 1 0.0 10.79899  16.61745  12.27077
 467 1 0.0 10.79899  16.61745  16.27118
 468 1 0.0 10.79899  16.61745  20.27159
 469 1 0.0 23.87708   5.84619   0.26954
 470 1 0.0 23.87708   5.84619   4.26995
 471 1 0.0 23.87708   5.84619   8.27036
 472 1 0.0 23.87708   5.84619  12.27077
 473 1 0.0 23.87708   5.84619  16.27118
 474 1 0.0 23.87708   5.84619  20.27159
 475 1 0.0 23.87708  16.61745   0.26954
 476 1 0.0 23.87708  16.61745   4.26995
 477 1 0.0 23.87708  16.61745   8.27036
 478 1 0.0 23.87708  16.61745  12.27077
 479 1 0.0 23.87708  16.61745  16.27118
 480 1 0.0 23.87708  16.61745  20.27159
 481 1 0.0  0.01449   0.03439   3.19604
 482 1 0.0  0.01449   0.03439   7.19645
 483 1 0.0  0.01449   0.03439  11.19686
 484 1 0.0  0.01449   0.03439  15.19727
 485 1 0.0  0.01449   0.03439  19.19768
 486 1 0.0  0.01449   0.03439  23.19809
 487 1 0.0  0.01449  10.80565   3.19604
 488 1 0.0  0.01449  10.80565   7.19645
 489 1 0.0  0.01449  10.80565  11.19686
 490 1 0.0  0.01449  10.80565  15.19727
 491 1 0.0  0.01449  10.80565  19.19768
 492 1 0.0  0.01449  10.80565  23.19809
 493 1 0.0 13.09258   0.03439   3.19604
 494 1 0.0 13.09258   0.03439   7.19645
 495 1 0.0 13.09258   0.03439  11.19686
 496 1 0.0 13.09258   0.03439  15.19727
 497 1 0.0 13.09258   0.03439  19.19768
 498 1 0.0 13.09258   0.03439  23.19809
 499 1 0.0 13.09258  10.80565   3.19604
 500 1 0.0 13.09258  10.80565   7.19645
 501 1 0.0 13.09258  10.80565  11.19686
 502 1 0.0 13.09258  10.80565  15.19727
 503 1 0.0 13.09258  10.80565  19.19768
 504 1 0.0 13.09258  10.80565  23.19809
 505 1 0.0  6.63513   5.44766   3.20516
 506 1 0.0  6.63513   5.44766   7.20557
 507 1 0.0  6.63513   5.44766  11.20598
 508 1 0.0  6.63513   5.44766  15.20639
 509 1 0.0  6.63513   5.44766  19.20680
 510 1 0.0  6.63513   5.44766  23.20721
 511 1 0.0  6.63513  16.21892   3.20516
 512 1 0.0  6.63513  16.21892   7.20557
 513 1 0.0  6.63513  16.21892  11.20598
 514 1 0.0  6.63513  16.21892  15.20639
 515 1 0.0  6.63513  16.21892  19.20680
 516 1 0.0  6.63513  16.21892  23.20721
 517 1 0.0 19.71322   5.44766   3.20516
 518 1 0.0 19.71322   5.44766   7.20557
 519 1 0.0 19.71322   5.44766  11.20598
 520 1 0.0 19.71322   5.44766  15.20639
 521 1 0.0 19.71322   5.44766  19.20680
 522 1 0.0 19.71322   5.44766  23.20721
 523 1 0.0 19.71322  16.21892   3.20516
 524 1 0.0 19.71322  16.21892   7.20557
 525 1 0.0 19.71322  16.21892  11.20598
 526 1 0.0 19.71322  16.21892  15.20639
 527 1 0.0 19.71322  16.21892  19.20680
 528 1 0.0 19.71322  16.21892  23.20721
 529 1 0.0  0.97894   2.32820   3.25912
 530 1 0.0  0.97894   2.32820   7.25953
 531 1 0.0  0.97894   2.32820  11.25994
 532 1 0.0  0.97894   2.32820  15.26035
 533 1 0.0  0.97894   2.32820  19.26076
 534 1 0.0  0.97894   2.32820  23.26117
 535 1 0.0  0.97894  13.09946   3.25912
 536 1 0.0  0.97894  13.09946   7.25953
 537 1 0.0  0.97894  13.09946  11.25994
 538 1 0.0  0.97894  13.09946  15.26035
 539 1 0.0  0.97894  13.09946  19.26076
 540 1 0.0  0.97894  13.09946  23.26117
 541 1 0.0 14.05703   2.32820   3.25912
 542 1 0.0 14.05703   2.32820   7.25953
 543 1 0.0 14.05703   2.32820  11.25994
 544 1 0.0 14.05703   2.32820  15.26035
 545 1 0.0 14.05703   2.32820  19.26076
 546 1 0.0 14.05703   2.32820  23.26117
 547 1 0.0 14.05703  13.09946   3.25912
 548 1 0.0 14.05703  13.09946   7.25953
 549 1 0.0 14.05703  13.09946  11.25994
 550 1 0.0 14.05703  13.09946  15.26035
 551 1 0.0 14.05703  13.09946  19.26076
 552 1 0.0 14.05703  13.09946  23.26117
 553 1 0.0  5.67462   3.15365   3.26750
 554 1 0.0  5.67462   3.15365   7.26791
 555 1 0.0  5.67462   3.15365  11.26832
 556 1 0.0  5.67462   3.15365  15.26873
 557 1 0.0  5.67462   3.15365  19.26914
 558 1 0.0  5.67462   3.15365  23.26955
 559 1 0.0  5.67462  13.92491   3.26750
 560 1 0.0  5.67462  13.92491   7.26791
 561 1 0.0  5.67462  13.92491  11.26832
 562 1 0.0  5.67462  13.92491  15.26873
 563 1 0.0  5.67462  13.92491  19.26914
 564 1 0.0  5.67462  13.92491  23.26955
 565 1 0.0 18.75271   3.15365   3.26750
 566 1 0.0 18.75271   3.15365   7.26791
 567 1 0.0 18.75271   3.15365  11.26832
 568 1 0.0 18.75271   3.15365  15.26873
 569 1 0.0 18.75271   3.15365  19.26914
 570 1 0.0 18.75271   3.15365  23.26955
 571 1 0.0 18.75271  13.92491   3.26750
 572 1 0.0 18.75271  13.92491   7.26791
 573 1 0.0 18.75271  13.92491  11.26832
 574 1 0.0 18.75271  13.92491  15.26873
 575 1 0.0 18.75271  13.92491  19.26914
 576 1 0.0 18.75271  13.92491  23.26955
 577 1 0.0  7.52710   7.72075   3.27371
 578 1 0.0  7.52710   7.72075   7.27412
 579 1 0.0  7.52710   7.72075  11.27453
 580 1 0.0  7.52710   7.72075  15.27494
 581 1 0.0  7.52710   7.72075  19.27535
 582 1 0.0  7.52710   7.72075  23.27576
 583 1 0.0  7.52710  18.49201   3.27371
 584 1 0.0  7.52710  18.49201   7.27412
 585 1 0.0  7.52710  18.49201  11.27453
 586 1 0.0  7.52710  18.49201  15.27494
 587 1 0.0  7.52710  18.49201  19.27535
 588 1 0.0  7.52710  18.49201  23.27576
 589 1 0.0 20.60519   7.72075   3.27371
 590 1 0.0 20.60519   7.72075   7.27412
 591 1 0.0 20.60519   7.72075  11.27453
 592 1 0.0 20.60519   7.72075  15.27494
 593 1 0.0 20.60519   7.72075  19.27535
 594 1 0.0 20.60519   7.72075  23.27576
 595 1 0.0 20.60519  18.49201   3.27371
 596 1 0.0 20.60519  18.49201   7.27412
 597 1 0.0 20.60519  18.49201  11.27453
 598 1 0.0 20.60519  18.49201  15.27494
 599 1 0.0 20.60519  18.49201  19.27535
 600 1 0.0 20.60519  18.49201  23.27576
 601 1 0.0 12.20630   8.53114   3.27367
 602 1 0.0 12.20630   8.53114   7.27408
 603 1 0.0 12.20630   8.53114  11.27449
 604 1 0.0 12.20630   8.53114  15.27490
 605 1 0.0 12.20630   8.53114  19.27531
 606 1 0.0 12.20630   8.53114  23.27572
 607 1 0.0 12.20630  19.30240   3.27367
 608 1 0.0 12.20630  19.30240   7.27408
 609 1 0.0 12.20630  19.30240  11.27449
 610 1 0.0 12.20630  19.30240  15.27490
 611 1 0.0 12.20630  19.30240  19.27531
 612 1 0.0 12.20630  19.30240  23.27572
 613 1 0.0 25.28439   8.53114   3.27367
 614 1 0.0 25.28439   8.53114   7.27408
 615 1 0.0 25.28439   8.53114  11.27449
 616 1 0.0 25.28439   8.53114  15.27490
 617 1 0.0 25.28439   8.53114  19.27531
 618 1 0.0 25.28439   8.53114  23.27572
 619 1 0.0 25.28439  19.30240   3.27367
 620 1 0.0 25.28439  19.30240   7.27408
 621 1 0.0 25.28439  19.30240  11.27449
 622 1 0.0 25.28439  19.30240  15.27490
 623 1 0.0 25.28439  19.30240  19.27531
 624 1 0.0 25.28439  19.30240  23.27572
 625 1 0.0  3.29130   8.13961   2.20571
 626 1 0.0  3.29130   8.13961   6.20612
 627 1 0.0  3.29130   8.13961  10.20653
 628 1 0.0  3.29130   8.13961  14.20694
 629 1 0.0  3.29130   8.13961  18.20735
 630 1 0.0  3.29130   8.13961  22.20776
 631 1 0.0  3.29130  18.91087   2.20571
 632 1 0.0  3.29130  18.91087   6.20612
 633 1 0.0  3.29130  18.91087  10.20653
 634 1 0.0  3.29130  18.91087  14.20694
 635 1 0.0  3.29130  18.91087  18.20735
 636 1 0.0  3.29130  18.91087  22.20776
 637 1 0.0 16.36939   8.13961   2.20571
 638 1 0.0 16.36939   8.13961   6.20612
 639 1 0.0 16.36939   8.13961  10.20653
 640 1 0.0 16.36939   8.13961  14.20694
 641 1 0.0 16.36939   8.13961  18.20735
 642 1 0.0 16.36939   8.13961  22.20776
 643 1 0.0 16.36939  18.91087   2.20571
 644 1 0.0 16.36939  18.91087   6.20612
 645 1 0.0 16.36939  18.91087  10.20653
 646 1 0.0 16.36939  18.91087  14.20694
 647 1 0.0 16.36939  18.91087  18.20735
 648 1 0.0 16.36939  18.91087  22.20776
 649 1 0.0  9.88992   2.73138   2.20039
 650 1 0.0  9.88992   2.73138   6.20080
 651 1 0.0  9.88992   2.73138  10.20121
 652 1 0.0  9.88992   2.73138  14.20162
 653 1 0.0  9.88992   2.73138  18.20203
 654 1 0.0  9.88992   2.73138  22.20244
 655 1 0.0  9.88992  13.50264   2.20039
 656 1 0.0  9.88992  13.50264   6.20080
 657 1 0.0  9.88992  13.50264  10.20121
 658 1 0.0  9.88992  13.50264  14.20162
 659 1 0.0  9.88992  13.50264  18.20203
 660 1 0.0  9.88992  13.50264  22.20244
 661 1 0.0 22.96801   2.73138   2.20039
 662 1 0.0 22.96801   2.73138   6.20080
 663 1 0.0 22.96801   2.73138  10.20121
 664 1 0.0 22.96801   2.73138  14.20162
 665 1 0.0 22.96801   2.73138  18.20203
 666 1 0.0 22.96801   2.73138  22.20244
 667 1 0.0 22.96801  13.50264   2.20039
 668 1 0.0 22.96801  13.50264   6.20080
 669 1 0.0 22.96801  13.50264  10.20121
 670 1 0.0 22.96801  13.50264  14.20162
 671 1 0.0 22.96801  13.50264  18.20203
 672 1 0.0 22.96801  13.50264  22.20244
 673 1 0.0  2.40454  10.40844   2.26094
 674 1 0.0  2.40454  10.40844   6.26135
 675 1 0.0  2.40454  10.40844  10.26176
 676 1 0.0  2.40454  10.40844  14.26217
 677 1 0.0  2.40454  10.40844  18.26258
 678 1 0.0  2.40454  10.40844  22.26299
 679 1 0.0  2.40454  21.17970   2.26094
 680 1 0.0  2.40454  21.17970   6.26135
 681 1 0.0  2.40454  21.17970  10.26176
 682 1 0.0  2.40454  21.17970  14.26217
 683 1 0.0  2.40454  21.17970  18.26258
 684 1 0.0  2.40454  21.17970  22.26299
 685 1 0.0 15.48263  10.40844   2.26094
 686 1 0.0 15.48263  10.40844   6.26135
 687 1 0.0 15.48263  10.40844  10.26176
 688 1 0.0 15.48263  10.40844  14.26217
 689 1 0.0 15.48263  10.40844  18.26258
 690 1 0.0 15.48263  10.40844  22.26299
 691 1 0.0 15.48263  21.17970   2.26094
 692 1 0.0 15.48263  21.17970   6.26135
 693 1 0.0 15.48263  21.17970  10.26176
 694 1 0.0 15.48263  21.17970  14.26217
 695 1 0.0 15.48263  21.17970  18.26258
 696 1 0.0 15.48263  21.17970  22.26299
 697 1 0.0  4.25179   5.84358   2.27094
 698 1 0.0  4.25179   5.84358   6.27135
 699 1 0.0  4.25179   5.84358  10.27176
 700 1 0.0  4.25179   5.84358  14.27217
 701 1 0.0  4.25179   5.84358  18.27258
 702 1 0.0  4.25179   5.84358  22.27299
 703 1 0.0  4.25179  16.61484   2.27094
 704 1 0.0  4.25179  16.61484   6.27135
 705 1 0.0  4.25179  16.61484  10.27176
 706 1 0.0  4.25179  16.61484  14.27217
 707 1 0.0  4.25179  16.61484  18.27258
 708 1 0.0  4.25179  16.61484  22.27299
 709 1 0.0 17.32988   5.84358   2.27094
 710 1 0.0 17.32988   5.84358   6.27135
 711 1 0.0 17.32988   5.84358  10.27176
 712 1 0.0 17.32988   5.84358  14.27217
 713 1 0.0 17.32988   5.84358  18.27258
 714 1 0.0 17.32988   5.84358  22.27299
 715 1 0.0 17.32988  16.61484   2.27094
 716 1 0.0 17.32988  16.61484   6.27135
 717 1 0.0 17.32988  16.61484  10.27176
 718 1 0.0 17.32988  16.61484  14.27217
 719 1 0.0 17.32988  16.61484  18.27258
 720 1 0.0 17.32988  16.61484  22.27299
 721 1 0.0  8.94042   5.02200   2.26904
 722 1 0.0  8.94042   5.02200   6.26945
 723 1 0.0  8.94042   5.02200  10.26986
 724 1 0.0  8.94042   5.02200  14.27027
 725 1 0.0  8.94042   5.02200  18.27068
 726 1 0.0  8.94042   5.02200  22.27109
 727 1 0.0  8.94042  15.79326   2.26904
 728 1 0.0  8.94042  15.79326   6.26945
 729 1 0.0  8.94042  15.79326  10.26986
 730 1 0.0  8.94042  15.79326  14.27027
 731 1 0.0  8.94042  15.79326  18.27068
 732 1 0.0  8.94042  15.79326  22.27109
 733 1 0.0 22.01851   5.02200   2.26904
 734 1 0.0 22.01851   5.02200   6.26945
 735 1 0.0 22.01851   5.02200  10.26986
 736 1 0.0 22.01851   5.02200  14.27027
 737 1 0.0 22.01851   5.02200  18.27068
 738 1 0.0 22.01851   5.02200  22.27109
 739 1 0.0 22.01851  15.79326   2.26904
 740 1 0.0 22.01851  15.79326   6.26945
 741 1 0.0 22.01851  15.79326  10.26986
 742 1 0.0 22.01851  15.79326  14.27027
 743 1 0.0 22.01851  15.79326  18.27068
 744 1 0.0 22.01851  15.79326  22.27109
 745 1 0.0 10.79544   0.45724   2.27723
 746 1 0.0 10.79544   0.45724   6.27764