LAMMPS (8 Mar 2018)
  using 1 OpenMP thread(s) per MPI task
# REAX potential for AuO system
# .....

units		real

atom_style	charge
read_data	data.AuO
  orthogonal box = (0 0 0) to (26.1562 21.5425 24.0025)
  2 by 1 by 2 MPI processor grid
  reading atoms ...
  960 atoms

pair_style	reax/c lmp_control
pair_coeff	* * ffield.reax.AuO O Au
Reading potential file ffield.reax.AuO with DATE: 2011-02-18

neighbor	2 bin
neigh_modify	every 10 delay 0 check no

fix		1 all nve
fix             2 all qeq/reax 1 0.0 10.0 1e-6 param.qeq
fix             3 all temp/berendsen 500.0 500.0 100.0

timestep	0.25

#dump		1 all atom 30 dump.reax.auo

run		100
Neighbor list info ...
  update every 10 steps, delay 0 steps, check no
  max neighbors/atom: 2000, page size: 100000
  master list distance cutoff = 12
  ghost atom cutoff = 12
  binsize = 6, bins = 5 4 5
  2 neighbor lists, perpetual/occasional/extra = 2 0 0
  (1) pair reax/c, perpetual
      attributes: half, newton off, ghost
      pair build: half/bin/newtoff/ghost
      stencil: half/ghost/bin/3d/newtoff
      bin: standard
  (2) fix qeq/reax, perpetual, copy from (1)
      attributes: half, newton off, ghost
      pair build: copy
      stencil: none
      bin: none
Per MPI rank memory allocation (min/avg/max) = 87.17 | 87.17 | 87.17 Mbytes
Step Temp E_pair E_mol TotEng Press 
       0            0   -72201.743            0   -72201.743    -166.2027 
     100    69.043379    -72076.31            0   -71878.943    22701.771 
Loop time of 8.44797 on 4 procs for 100 steps with 960 atoms

Performance: 0.256 ns/day, 93.866 hours/ns, 11.837 timesteps/s
96.5% CPU use with 4 MPI tasks x 1 OpenMP threads

MPI task timing breakdown:
Section |  min time  |  avg time  |  max time  |%varavg| %total
---------------------------------------------------------------
Pair    | 7.3702     | 7.3757     | 7.3879     |   0.3 | 87.31
Neigh   | 0.28875    | 0.29449    | 0.29747    |   0.6 |  3.49
Comm    | 0.015008   | 0.027055   | 0.032681   |   4.3 |  0.32
Output  | 2.4319e-05 | 2.8551e-05 | 3.8624e-05 |   0.0 |  0.00
Modify  | 0.74721    | 0.74985    | 0.75539    |   0.4 |  8.88
Other   |            | 0.0008975  |            |       |  0.01

Nlocal:    240 ave 240 max 240 min
Histogram: 4 0 0 0 0 0 0 0 0 0
Nghost:    3981 ave 3981 max 3981 min
Histogram: 4 0 0 0 0 0 0 0 0 0
Neighs:    105979 ave 105979 max 105979 min
Histogram: 4 0 0 0 0 0 0 0 0 0

Total # of neighbors = 423916
Ave neighs/atom = 441.579
Neighbor list builds = 10
Dangerous builds not checked

Please see the log.cite file for references relevant to this simulation

Total wall time: 0:00:08
