LAMMPS H2O data file
 
3 atoms
 
2 atom types

-10.0 10.0 xlo xhi
-10.0 10.0 ylo yhi
-10.0 10.0 zlo zhi

Masses

1  15.994915008544922
2  1.0078250169754028
 
Atoms
 
1 1 0.0  0.0        0.0
2 2 0.0  0.756723  -0.585799
3 2 0.0 -0.756723  -0.585799
