 argument  1 = nwchem_lammps.nw



============================== echo of input deck ==============================
echo

memory global 40 mb stack 23 mb heap 5 mb

geometry units angstrom noautosym nocenter
O  0.00197082 0.0012463 -0.00298048
H  -0.0432066 0.769363 -0.596119
H  0.0119282 -0.789143 -0.528177
end

scf
 vectors input nwchem_lammps.movecs
end

dft
 vectors input nwchem_lammps.movecs
end

basis
  O library 6-31g*
  H library 6-31g*
end

scf
 maxiter 100
end

#dft
# xc b3lyp
#end

task scf gradient
#task dft gradient
================================================================================


                                         
                                         


              Northwest Computational Chemistry Package (NWChem) 6.8
              ------------------------------------------------------


                    Environmental Molecular Sciences Laboratory
                       Pacific Northwest National Laboratory
                                Richland, WA 99352

                              Copyright (c) 1994-2018
                       Pacific Northwest National Laboratory
                            Battelle Memorial Institute

             NWChem is an open-source computational chemistry package
                        distributed under the terms of the
                      Educational Community License (ECL) 2.0
             A copy of the license is included with this distribution
                              in the LICENSE.TXT file

                                  ACKNOWLEDGMENT
                                  --------------

            This software and its documentation were developed at the
            EMSL at Pacific Northwest National Laboratory, a multiprogram
            national laboratory, operated for the U.S. Department of Energy
            by Battelle under Contract Number DE-AC05-76RL01830. Support
            for this work was provided by the Department of Energy Office
            of Biological and Environmental Research, Office of Basic
            Energy Sciences, and the Office of Advanced Scientific Computing.


           Job information
           ---------------

    hostname        = almondjoy
    program         = /home/jboschen/nwchem-6.8.1-release/bin/LINUX64/nwchem
    date            = Fri Jan 31 00:31:00 2020

    compiled        = Tue_Oct_01_13:20:43_2019
    source          = /home/jboschen/nwchem-6.8.1-release
    nwchem branch   = Development
    nwchem revision = N/A
    ga revision     = 5.6.5
    use scalapack   = F
    input           = nwchem_lammps.nw
    prefix          = nwchem_lammps.
    data base       = ./nwchem_lammps.db
    status          = restart
    nproc           =        1
    time left       =     -1s



           Memory information
           ------------------

    heap     =     655358 doubles =      5.0 Mbytes
    stack    =    3014651 doubles =     23.0 Mbytes
    global   =    5242880 doubles =     40.0 Mbytes (distinct from heap & stack)
    total    =    8912889 doubles =     68.0 Mbytes
    verify   = yes
    hardfail = no 


           Directory information
           ---------------------

  0 permanent = .
  0 scratch   = .


           Previous task information
           -------------------------

    Theory    = scf                             
    Operation = gradient                      
    Status    = ok                            
    Qmmm      = F
    Ignore    = F


           Geometries in the database
           --------------------------

       Name                              Natoms  Last Modified
       --------------------------------  ------  ------------------------
    1  geometry                               3  Fri Jan 31 00:30:59 2020  

  The geometry named "geometry" is the default for restart



           Basis sets in the database
           --------------------------

       Name                              Natoms  Last Modified
        --------------------------------  ------  ------------------------
    1  ao basis                               2  Fri Jan 31 00:30:59 2020  

  The basis set named "ao basis" is the default AO basis for restart




                                NWChem Input Module
                                -------------------



 Scaling coordinates for geometry "geometry" by  1.889725989
 (inverse scale =  0.529177249)


          ------
          auto-z
          ------
  no constraints, skipping    0.0000000000000000     
  no constraints, skipping    0.0000000000000000     


                             Geometry "geometry" -> ""
                             -------------------------

 Output coordinates in angstroms (scale by  1.889725989 to convert to a.u.)

  No.       Tag          Charge          X              Y              Z
 ---- ---------------- ---------- -------------- -------------- --------------
    1 O                    8.0000     0.00197082     0.00124630    -0.00298048
    2 H                    1.0000    -0.04320660     0.76936300    -0.59611900
    3 H                    1.0000     0.01192820    -0.78914300    -0.52817700

      Atomic Mass 
      ----------- 

      O                 15.994910
      H                  1.007825


 Effective nuclear repulsion energy (a.u.)       9.1573270473

            Nuclear Dipole moment (a.u.) 
            ----------------------------
        X                 Y               Z
 ---------------- ---------------- ----------------
    -0.0293131272    -0.0185374561    -2.1696696942



                                Z-matrix (autoz)
                                -------- 

 Units are Angstrom for bonds and degrees for angles

      Type          Name      I     J     K     L     M      Value
      ----------- --------  ----- ----- ----- ----- ----- ----------
    1 Stretch                  1     2                       0.97152
    2 Stretch                  1     3                       0.94902
    3 Bend                     2     1     3               108.72901


            XYZ format geometry
            -------------------
     3
 geometry
 O                     0.00197082     0.00124630    -0.00298048
 H                    -0.04320660     0.76936300    -0.59611900
 H                     0.01192820    -0.78914300    -0.52817700

 ==============================================================================
                                internuclear distances
 ------------------------------------------------------------------------------
       center one      |      center two      | atomic units |  angstroms
 ------------------------------------------------------------------------------
    2 H                |   1 O                |     1.83591  |     0.97152
    3 H                |   1 O                |     1.79339  |     0.94902
 ------------------------------------------------------------------------------
                         number of included internuclear distances:          2
 ==============================================================================



 ==============================================================================
                                 internuclear angles
 ------------------------------------------------------------------------------
        center 1       |       center 2       |       center 3       |  degrees
 ------------------------------------------------------------------------------
    2 H                |   1 O                |   3 H                |   108.73
 ------------------------------------------------------------------------------
                            number of included internuclear angles:          1
 ==============================================================================



                      Basis "ao basis" -> "" (cartesian)
                      -----
  O (Oxygen)
  ----------
            Exponent  Coefficients 
       -------------- ---------------------------------------------------------
  1 S  5.48467170E+03  0.001831
  1 S  8.25234950E+02  0.013950
  1 S  1.88046960E+02  0.068445
  1 S  5.29645000E+01  0.232714
  1 S  1.68975700E+01  0.470193
  1 S  5.79963530E+00  0.358521

  2 S  1.55396160E+01 -0.110778
  2 S  3.59993360E+00 -0.148026
  2 S  1.01376180E+00  1.130767

  3 P  1.55396160E+01  0.070874
  3 P  3.59993360E+00  0.339753
  3 P  1.01376180E+00  0.727159

  4 S  2.70005800E-01  1.000000

  5 P  2.70005800E-01  1.000000

  6 D  8.00000000E-01  1.000000

  H (Hydrogen)
  ------------
            Exponent  Coefficients 
       -------------- ---------------------------------------------------------
  1 S  1.87311370E+01  0.033495
  1 S  2.82539370E+00  0.234727
  1 S  6.40121700E-01  0.813757

  2 S  1.61277800E-01  1.000000



 Summary of "ao basis" -> "" (cartesian)
 ------------------------------------------------------------------------------
       Tag                 Description            Shells   Functions and Types
 ---------------- ------------------------------  ------  ---------------------
 O                           6-31g*                  6       15   3s2p1d
 H                           6-31g*                  2        2   2s


                                 NWChem SCF Module
                                 -----------------



  ao basis        = "ao basis"
  functions       =    19
  atoms           =     3
  closed shells   =     5
  open shells     =     0
  charge          =   0.00
  wavefunction    = RHF 
  input vectors   = ./nwchem_lammps.movecs
  output vectors  = ./nwchem_lammps.movecs
  use symmetry    = F
  symmetry adapt  = F


 Summary of "ao basis" -> "ao basis" (cartesian)
 ------------------------------------------------------------------------------
       Tag                 Description            Shells   Functions and Types
 ---------------- ------------------------------  ------  ---------------------
 O                           6-31g*                  6       15   3s2p1d
 H                           6-31g*                  2        2   2s



 Forming initial guess at       0.0s


 Loading old vectors from job with title :




 Starting SCF solution at       0.0s



 ----------------------------------------------
         Quadratically convergent ROHF

 Convergence threshold     :          1.000E-04
 Maximum no. of iterations :          100
 Final Fock-matrix accuracy:          1.000E-07
 ----------------------------------------------


 #quartets = 1.540D+03 #integrals = 1.424D+04 #direct =  0.0% #cached =100.0%


 Integral file          = ./nwchem_lammps.aoints.0
 Record size in doubles =    65536    No. of integs per rec  =    43688
 Max. records in memory =        2    Max. records in file   =  1392051
 No. of bits per label  =        8    No. of bits per value  =       64


              iter       energy          gnorm     gmax       time
             ----- ------------------- --------- --------- --------
                 1      -76.0095751323  4.63D-02  1.64D-02      0.1
                 2      -76.0097628164  8.13D-04  2.83D-04      0.1
                 3      -76.0097629130  3.92D-06  1.55D-06      0.1


       Final RHF  results 
       ------------------ 

         Total SCF energy =    -76.009762913030
      One-electron energy =   -123.002897732381
      Two-electron energy =     37.835807772101
 Nuclear repulsion energy =      9.157327047250

        Time for solution =      0.0s


             Final eigenvalues
             -----------------

              1      
    1  -20.5584
    2   -1.3367
    3   -0.7128
    4   -0.5617
    5   -0.4959
    6    0.2104
    7    0.3038
    8    1.0409
    9    1.1202
   10    1.1606
   11    1.1691
   12    1.3840
   13    1.4192
   14    2.0312
   15    2.0334

                       ROHF Final Molecular Orbital Analysis
                       -------------------------------------

 Vector    2  Occ=2.000000D+00  E=-1.336749D+00
              MO Center= -2.8D-03, -1.3D-02, -1.7D-01, r^2= 5.1D-01
   Bfn.  Coefficient  Atom+Function         Bfn.  Coefficient  Atom+Function  
  ----- ------------  ---------------      ----- ------------  ---------------
     2      0.476636  1 O  s                  6      0.442369  1 O  s          
     1     -0.210214  1 O  s          

 Vector    3  Occ=2.000000D+00  E=-7.127948D-01
              MO Center= -4.9D-03,  3.9D-03, -2.1D-01, r^2= 7.8D-01
   Bfn.  Coefficient  Atom+Function         Bfn.  Coefficient  Atom+Function  
  ----- ------------  ---------------      ----- ------------  ---------------
     4      0.504894  1 O  py                 8      0.303932  1 O  py         
    18     -0.234724  3 H  s                 16      0.229765  2 H  s          

 Vector    4  Occ=2.000000D+00  E=-5.617306D-01
              MO Center=  3.6D-03,  9.0D-03,  5.6D-02, r^2= 6.9D-01
   Bfn.  Coefficient  Atom+Function         Bfn.  Coefficient  Atom+Function  
  ----- ------------  ---------------      ----- ------------  ---------------
     5      0.559565  1 O  pz                 9      0.410981  1 O  pz         
     6      0.315892  1 O  s                  2      0.157960  1 O  s          

 Vector    5  Occ=2.000000D+00  E=-4.959173D-01
              MO Center=  1.4D-03,  6.9D-05, -2.2D-02, r^2= 6.0D-01
   Bfn.  Coefficient  Atom+Function         Bfn.  Coefficient  Atom+Function  
  ----- ------------  ---------------      ----- ------------  ---------------
     3      0.638390  1 O  px                 7      0.511530  1 O  px         

 Vector    6  Occ=0.000000D+00  E= 2.103822D-01
              MO Center= -2.3D-02,  3.5D-02, -7.3D-01, r^2= 2.6D+00
   Bfn.  Coefficient  Atom+Function         Bfn.  Coefficient  Atom+Function  
  ----- ------------  ---------------      ----- ------------  ---------------
     6      1.416869  1 O  s                 17     -1.068330  2 H  s          
    19     -1.014775  3 H  s                  9     -0.490951  1 O  pz         
     5     -0.212990  1 O  pz         

 Vector    7  Occ=0.000000D+00  E= 3.037943D-01
              MO Center= -1.8D-02, -8.9D-02, -7.1D-01, r^2= 2.8D+00
   Bfn.  Coefficient  Atom+Function         Bfn.  Coefficient  Atom+Function  
  ----- ------------  ---------------      ----- ------------  ---------------
    19     -1.426837  3 H  s                 17      1.332767  2 H  s          
     8     -0.842141  1 O  py                 4     -0.327553  1 O  py         

 Vector    8  Occ=0.000000D+00  E= 1.040852D+00
              MO Center= -7.4D-03,  1.3D-01, -1.6D-01, r^2= 1.4D+00
   Bfn.  Coefficient  Atom+Function         Bfn.  Coefficient  Atom+Function  
  ----- ------------  ---------------      ----- ------------  ---------------
    16      0.931594  2 H  s                 18     -0.747590  3 H  s          
     8     -0.655817  1 O  py                17     -0.523035  2 H  s          
    19      0.366407  3 H  s                 14     -0.357109  1 O  dyz        

 Vector    9  Occ=0.000000D+00  E= 1.120172D+00
              MO Center= -6.8D-03, -2.9D-02, -3.1D-01, r^2= 1.5D+00
   Bfn.  Coefficient  Atom+Function         Bfn.  Coefficient  Atom+Function  
  ----- ------------  ---------------      ----- ------------  ---------------
     6      1.145090  1 O  s                 18      0.841596  3 H  s          
     2     -0.727471  1 O  s                 16      0.684927  2 H  s          
     9      0.559191  1 O  pz                19     -0.546678  3 H  s          
    17     -0.538778  2 H  s                 10     -0.344609  1 O  dxx        
    15     -0.250035  1 O  dzz        

 Vector   10  Occ=0.000000D+00  E= 1.160603D+00
              MO Center=  1.2D-02, -4.3D-02,  2.5D-01, r^2= 1.0D+00
   Bfn.  Coefficient  Atom+Function         Bfn.  Coefficient  Atom+Function  
  ----- ------------  ---------------      ----- ------------  ---------------
     6      1.137949  1 O  s                  5     -0.844233  1 O  pz         
     9      0.595088  1 O  pz                 2     -0.475986  1 O  s          
    18     -0.455932  3 H  s                 16     -0.357325  2 H  s          
    13     -0.317117  1 O  dyy               15     -0.196968  1 O  dzz        

 Vector   11  Occ=0.000000D+00  E= 1.169054D+00
              MO Center=  1.9D-03,  1.2D-03, -6.4D-03, r^2= 1.1D+00
   Bfn.  Coefficient  Atom+Function         Bfn.  Coefficient  Atom+Function  
  ----- ------------  ---------------      ----- ------------  ---------------
     7     -1.034653  1 O  px                 3      0.962043  1 O  px         

 Vector   12  Occ=0.000000D+00  E= 1.384034D+00
              MO Center=  6.0D-04, -2.6D-03, -5.0D-02, r^2= 1.4D+00
   Bfn.  Coefficient  Atom+Function         Bfn.  Coefficient  Atom+Function  
  ----- ------------  ---------------      ----- ------------  ---------------
     8      1.557767  1 O  py                 4     -1.035829  1 O  py         
    17     -0.900920  2 H  s                 19      0.901756  3 H  s          

 Vector   13  Occ=0.000000D+00  E= 1.419205D+00
              MO Center= -1.3D-02, -4.9D-02, -5.2D-01, r^2= 1.4D+00
   Bfn.  Coefficient  Atom+Function         Bfn.  Coefficient  Atom+Function  
  ----- ------------  ---------------      ----- ------------  ---------------
     6      3.605136  1 O  s                  2     -1.454853  1 O  s          
     9     -1.107532  1 O  pz                19     -0.874208  3 H  s          
    17     -0.757016  2 H  s                 13     -0.634436  1 O  dyy        
     5      0.516593  1 O  pz                15     -0.401100  1 O  dzz        
    10     -0.319873  1 O  dxx               16     -0.260650  2 H  s          

 Vector   14  Occ=0.000000D+00  E= 2.031234D+00
              MO Center=  1.9D-03,  2.3D-03, -3.0D-03, r^2= 6.1D-01
   Bfn.  Coefficient  Atom+Function         Bfn.  Coefficient  Atom+Function  
  ----- ------------  ---------------      ----- ------------  ---------------
    11      1.727083  1 O  dxy        

 Vector   15  Occ=0.000000D+00  E= 2.033369D+00
              MO Center=  3.4D-03,  3.4D-03,  4.3D-02, r^2= 6.2D-01
   Bfn.  Coefficient  Atom+Function         Bfn.  Coefficient  Atom+Function  
  ----- ------------  ---------------      ----- ------------  ---------------
    15      1.012642  1 O  dzz               13     -0.512441  1 O  dyy        
    10     -0.438481  1 O  dxx                6     -0.226567  1 O  s          


 center of mass
 --------------
 x =  -0.00000001 y =  -0.00000003 z =  -0.12388979

 moments of inertia (a.u.)
 ------------------
           6.378705068992           0.153373998471          -0.069687034145
           0.153373998471           2.014476065716           0.150739744400
          -0.069687034145           0.150739744400           4.379134195179

  Mulliken analysis of the total density
  --------------------------------------

    Atom       Charge   Shell Charges
 -----------   ------   -------------------------------------------------------
    1 O    8     8.87   2.00  0.90  2.90  0.92  2.08  0.08
    2 H    1     0.56   0.46  0.11
    3 H    1     0.56   0.47  0.10

       Multipole analysis of the density wrt the origin
       ------------------------------------------------

     L   x y z        total         open         nuclear
     -   - - -        -----         ----         -------
     0   0 0 0     -0.000000      0.000000     10.000000

     1   1 0 0     -0.026417      0.000000     -0.029313
     1   0 1 0     -0.023604      0.000000     -0.018537
     1   0 0 1     -0.846090      0.000000     -2.169670

     2   2 0 0     -5.373227      0.000000      0.007286
     2   1 1 0     -0.085617      0.000000     -0.152252
     2   1 0 1      0.038215      0.000000      0.069311
     2   0 2 0     -2.927589      0.000000      4.337695
     2   0 1 1     -0.071410      0.000000     -0.149465
     2   0 0 2     -4.159949      0.000000      2.265483


 Parallel integral file used       1 records with       0 large values

                              NWChem Gradients Module
                              -----------------------



  wavefunction    =   RHF     



                         RHF ENERGY GRADIENTS

    atom               coordinates                        gradient
                 x          y          z           x          y          z
   1 O       0.003724   0.002355  -0.005632    0.000909  -0.019294   0.007866
   2 H      -0.081649   1.453885  -1.126502   -0.001242   0.025549  -0.011605
   3 H       0.022541  -1.491264  -0.998110    0.000333  -0.006255   0.003739

                 ----------------------------------------
                 |  Time  |  1-e(secs)   |  2-e(secs)   |
                 ----------------------------------------
                 |  CPU   |       0.00   |       0.03   |
                 ----------------------------------------
                 |  WALL  |       0.00   |       0.03   |
                 ----------------------------------------

 Task  times  cpu:        0.1s     wall:        0.1s


                                NWChem Input Module
                                -------------------


 Summary of allocated global arrays
-----------------------------------
  No active global arrays



                         GA Statistics for process    0
                         ------------------------------

       create   destroy   get      put      acc     scatter   gather  read&inc
calls:  182      182     2869      728      468        0        0       68     
number of processes/call 1.00e+00 1.00e+00 1.00e+00 0.00e+00 0.00e+00
bytes total:             6.18e+05 3.56e+05 1.04e+05 0.00e+00 0.00e+00 5.44e+02
bytes remote:            0.00e+00 0.00e+00 0.00e+00 0.00e+00 0.00e+00 0.00e+00
Max memory consumed for GA by this process: 39432 bytes

MA_summarize_allocated_blocks: starting scan ...
MA_summarize_allocated_blocks: scan completed: 0 heap blocks, 0 stack blocks
MA usage statistics:

	allocation statistics:
					      heap	     stack
					      ----	     -----
	current number of blocks	         0	         0
	maximum number of blocks	        18	        28
	current total bytes		         0	         0
	maximum total bytes		   1060104	  16000888
	maximum total K-bytes		      1061	     16001
	maximum total M-bytes		         2	        17


                                     CITATION
                                     --------
                Please cite the following reference when publishing
                           results obtained with NWChem:

                 M. Valiev, E.J. Bylaska, N. Govind, K. Kowalski,
              T.P. Straatsma, H.J.J. van Dam, D. Wang, J. Nieplocha,
                        E. Apra, T.L. Windus, W.A. de Jong
                 "NWChem: a comprehensive and scalable open-source
                  solution for large scale molecular simulations"
                      Comput. Phys. Commun. 181, 1477 (2010)
                           doi:10.1016/j.cpc.2010.04.018

                                      AUTHORS
                                      -------
          E. Apra, E. J. Bylaska, W. A. de Jong, N. Govind, K. Kowalski,
       T. P. Straatsma, M. Valiev, H. J. J. van Dam, D. Wang, T. L. Windus,
        J. Hammond, J. Autschbach, K. Bhaskaran-Nair, J. Brabec, K. Lopata,
    S. A. Fischer, S. Krishnamoorthy, M. Jacquelin, W. Ma, M. Klemm, O. Villa,
      Y. Chen, V. Anisimov, F. Aquino, S. Hirata, M. T. Hackler, V. Konjkov,
            D. Mejia-Rodriguez, T. Risthaus, M. Malagoli, A. Marenich,
   A. Otero-de-la-Roza, J. Mullin, P. Nichols, R. Peverati, J. Pittner, Y. Zhao,
        P.-D. Fan, A. Fonari, M. J. Williamson, R. J. Harrison, J. R. Rehr,
      M. Dupuis, D. Silverstein, D. M. A. Smith, J. Nieplocha, V. Tipparaju,
    M. Krishnan, B. E. Van Kuiken, A. Vazquez-Mayagoitia, L. Jensen, M. Swart,
      Q. Wu, T. Van Voorhis, A. A. Auer, M. Nooijen, L. D. Crosby, E. Brown,
      G. Cisneros, G. I. Fann, H. Fruchtl, J. Garza, K. Hirao, R. A. Kendall,
      J. A. Nichols, K. Tsemekhman, K. Wolinski, J. Anchell, D. E. Bernholdt,
      P. Borowski, T. Clark, D. Clerc, H. Dachsel, M. J. O. Deegan, K. Dyall,
    D. Elwood, E. Glendening, M. Gutowski, A. C. Hess, J. Jaffe, B. G. Johnson,
     J. Ju, R. Kobayashi, R. Kutteh, Z. Lin, R. Littlefield, X. Long, B. Meng,
      T. Nakajima, S. Niu, L. Pollack, M. Rosing, K. Glaesemann, G. Sandrone,
      M. Stave, H. Taylor, G. Thomas, J. H. van Lenthe, A. T. Wong, Z. Zhang.

 Total times  cpu:        0.1s     wall:        0.2s
