 argument  1 = nwchem_lammps.nw



============================== echo of input deck ==============================
echo

memory global 40 mb stack 23 mb heap 5 mb

geometry units angstrom noautosym nocenter
O  -0.00836667 0.0010006 0.0866404
H  0.0968795 0.837453 -0.346117
H  0.0114839 -0.638453 -0.612122
end

scf
 vectors input nwchem_lammps.movecs
end

dft
 vectors input nwchem_lammps.movecs
end

basis
  O library 6-31g*
  H library 6-31g*
end

scf
 maxiter 100
end

#dft
# xc b3lyp
#end

task scf gradient
#task dft gradient
================================================================================


                                         
                                         


              Northwest Computational Chemistry Package (NWChem) 6.8
              ------------------------------------------------------


                    Environmental Molecular Sciences Laboratory
                       Pacific Northwest National Laboratory
                                Richland, WA 99352

                              Copyright (c) 1994-2018
                       Pacific Northwest National Laboratory
                            Battelle Memorial Institute

             NWChem is an open-source computational chemistry package
                        distributed under the terms of the
                      Educational Community License (ECL) 2.0
             A copy of the license is included with this distribution
                              in the LICENSE.TXT file

                                  ACKNOWLEDGMENT
                                  --------------

            This software and its documentation were developed at the
            EMSL at Pacific Northwest National Laboratory, a multiprogram
            national laboratory, operated for the U.S. Department of Energy
            by Battelle under Contract Number DE-AC05-76RL01830. Support
            for this work was provided by the Department of Energy Office
            of Biological and Environmental Research, Office of Basic
            Energy Sciences, and the Office of Advanced Scientific Computing.


           Job information
           ---------------

    hostname        = almondjoy
    program         = /home/jboschen/nwchem-6.8.1-release/bin/LINUX64/nwchem
    date            = Fri Jan 31 00:33:40 2020

    compiled        = Tue_Oct_01_13:20:43_2019
    source          = /home/jboschen/nwchem-6.8.1-release
    nwchem branch   = Development
    nwchem revision = N/A
    ga revision     = 5.6.5
    use scalapack   = F
    input           = nwchem_lammps.nw
    prefix          = nwchem_lammps.
    data base       = ./nwchem_lammps.db
    status          = restart
    nproc           =        1
    time left       =     -1s



           Memory information
           ------------------

    heap     =     655358 doubles =      5.0 Mbytes
    stack    =    3014651 doubles =     23.0 Mbytes
    global   =    5242880 doubles =     40.0 Mbytes (distinct from heap & stack)
    total    =    8912889 doubles =     68.0 Mbytes
    verify   = yes
    hardfail = no 


           Directory information
           ---------------------

  0 permanent = .
  0 scratch   = .


           Previous task information
           -------------------------

    Theory    = scf                             
    Operation = gradient                      
    Status    = ok                            
    Qmmm      = F
    Ignore    = F


           Geometries in the database
           --------------------------

       Name                              Natoms  Last Modified
       --------------------------------  ------  ------------------------
    1  geometry                               3  Fri Jan 31 00:33:40 2020  

  The geometry named "geometry" is the default for restart



           Basis sets in the database
           --------------------------

       Name                              Natoms  Last Modified
        --------------------------------  ------  ------------------------
    1  ao basis                               2  Fri Jan 31 00:33:40 2020  

  The basis set named "ao basis" is the default AO basis for restart




                                NWChem Input Module
                                -------------------



 Scaling coordinates for geometry "geometry" by  1.889725989
 (inverse scale =  0.529177249)


          ------
          auto-z
          ------
  no constraints, skipping    0.0000000000000000     
  no constraints, skipping    0.0000000000000000     


                             Geometry "geometry" -> ""
                             -------------------------

 Output coordinates in angstroms (scale by  1.889725989 to convert to a.u.)

  No.       Tag          Charge          X              Y              Z
 ---- ---------------- ---------- -------------- -------------- --------------
    1 O                    8.0000    -0.00836667     0.00100060     0.08664040
    2 H                    1.0000     0.09687950     0.83745300    -0.34611700
    3 H                    1.0000     0.01148390    -0.63845300    -0.61212200

      Atomic Mass 
      ----------- 

      O                 15.994910
      H                  1.007825


 Effective nuclear repulsion energy (a.u.)       9.2881144400

            Nuclear Dipole moment (a.u.) 
            ----------------------------
        X                 Y               Z
 ---------------- ---------------- ----------------
     0.0782914233     0.3911823503    -0.5009962172



                                Z-matrix (autoz)
                                -------- 

 Units are Angstrom for bonds and degrees for angles

      Type          Name      I     J     K     L     M      Value
      ----------- --------  ----- ----- ----- ----- ----- ----------
    1 Stretch                  1     2                       0.94763
    2 Stretch                  1     3                       0.94740
    3 Bend                     2     1     3               104.86952


            XYZ format geometry
            -------------------
     3
 geometry
 O                    -0.00836667     0.00100060     0.08664040
 H                     0.09687950     0.83745300    -0.34611700
 H                     0.01148390    -0.63845300    -0.61212200

 ==============================================================================
                                internuclear distances
 ------------------------------------------------------------------------------
       center one      |      center two      | atomic units |  angstroms
 ------------------------------------------------------------------------------
    2 H                |   1 O                |     1.79077  |     0.94763
    3 H                |   1 O                |     1.79032  |     0.94740
 ------------------------------------------------------------------------------
                         number of included internuclear distances:          2
 ==============================================================================



 ==============================================================================
                                 internuclear angles
 ------------------------------------------------------------------------------
        center 1       |       center 2       |       center 3       |  degrees
 ------------------------------------------------------------------------------
    2 H                |   1 O                |   3 H                |   104.87
 ------------------------------------------------------------------------------
                            number of included internuclear angles:          1
 ==============================================================================



                      Basis "ao basis" -> "" (cartesian)
                      -----
  O (Oxygen)
  ----------
            Exponent  Coefficients 
       -------------- ---------------------------------------------------------
  1 S  5.48467170E+03  0.001831
  1 S  8.25234950E+02  0.013950
  1 S  1.88046960E+02  0.068445
  1 S  5.29645000E+01  0.232714
  1 S  1.68975700E+01  0.470193
  1 S  5.79963530E+00  0.358521

  2 S  1.55396160E+01 -0.110778
  2 S  3.59993360E+00 -0.148026
  2 S  1.01376180E+00  1.130767

  3 P  1.55396160E+01  0.070874
  3 P  3.59993360E+00  0.339753
  3 P  1.01376180E+00  0.727159

  4 S  2.70005800E-01  1.000000

  5 P  2.70005800E-01  1.000000

  6 D  8.00000000E-01  1.000000

  H (Hydrogen)
  ------------
            Exponent  Coefficients 
       -------------- ---------------------------------------------------------
  1 S  1.87311370E+01  0.033495
  1 S  2.82539370E+00  0.234727
  1 S  6.40121700E-01  0.813757

  2 S  1.61277800E-01  1.000000



 Summary of "ao basis" -> "" (cartesian)
 ------------------------------------------------------------------------------
       Tag                 Description            Shells   Functions and Types
 ---------------- ------------------------------  ------  ---------------------
 O                           6-31g*                  6       15   3s2p1d
 H                           6-31g*                  2        2   2s


                                 NWChem SCF Module
                                 -----------------



  ao basis        = "ao basis"
  functions       =    19
  atoms           =     3
  closed shells   =     5
  open shells     =     0
  charge          =   0.00
  wavefunction    = RHF 
  input vectors   = ./nwchem_lammps.movecs
  output vectors  = ./nwchem_lammps.movecs
  use symmetry    = F
  symmetry adapt  = F


 Summary of "ao basis" -> "ao basis" (cartesian)
 ------------------------------------------------------------------------------
       Tag                 Description            Shells   Functions and Types
 ---------------- ------------------------------  ------  ---------------------
 O                           6-31g*                  6       15   3s2p1d
 H                           6-31g*                  2        2   2s



 Forming initial guess at       0.0s


 Loading old vectors from job with title :




 Starting SCF solution at       0.0s



 ----------------------------------------------
         Quadratically convergent ROHF

 Convergence threshold     :          1.000E-04
 Maximum no. of iterations :          100
 Final Fock-matrix accuracy:          1.000E-07
 ----------------------------------------------


 #quartets = 1.540D+03 #integrals = 1.424D+04 #direct =  0.0% #cached =100.0%


 Integral file          = ./nwchem_lammps.aoints.0
 Record size in doubles =    65536    No. of integs per rec  =    43688
 Max. records in memory =        2    Max. records in file   =  1392051
 No. of bits per label  =        8    No. of bits per value  =       64


              iter       energy          gnorm     gmax       time
             ----- ------------------- --------- --------- --------
                 1      -76.0107350035  4.75D-05  2.49D-05      0.1


       Final RHF  results 
       ------------------ 

         Total SCF energy =    -76.010735003510
      One-electron energy =   -123.220958992568
      Two-electron energy =     37.922109549024
 Nuclear repulsion energy =      9.288114440035

        Time for solution =      0.0s


             Final eigenvalues
             -----------------

              1      
    1  -20.5583
    2   -1.3466
    3   -0.7130
    4   -0.5721
    5   -0.4985
    6    0.2129
    7    0.3068
    8    1.0286
    9    1.1338
   10    1.1678
   11    1.1807
   12    1.3845
   13    1.4334
   14    2.0187
   15    2.0311

                       ROHF Final Molecular Orbital Analysis
                       -------------------------------------

 Vector    2  Occ=2.000000D+00  E=-1.346587D+00
              MO Center=  1.1D-02,  3.1D-02, -8.5D-02, r^2= 5.0D-01
   Bfn.  Coefficient  Atom+Function         Bfn.  Coefficient  Atom+Function  
  ----- ------------  ---------------      ----- ------------  ---------------
     2      0.475648  1 O  s                  6      0.435095  1 O  s          
     1     -0.209463  1 O  s          

 Vector    3  Occ=2.000000D+00  E=-7.129747D-01
              MO Center=  1.5D-02,  3.8D-02, -1.3D-01, r^2= 7.6D-01
   Bfn.  Coefficient  Atom+Function         Bfn.  Coefficient  Atom+Function  
  ----- ------------  ---------------      ----- ------------  ---------------
     4      0.500246  1 O  py                 8      0.299047  1 O  py         
    16      0.232138  2 H  s                 18     -0.232195  3 H  s          

 Vector    4  Occ=2.000000D+00  E=-5.720760D-01
              MO Center= -1.5D-02, -9.7D-03,  1.5D-01, r^2= 6.8D-01
   Bfn.  Coefficient  Atom+Function         Bfn.  Coefficient  Atom+Function  
  ----- ------------  ---------------      ----- ------------  ---------------
     5      0.545527  1 O  pz                 9      0.395332  1 O  pz         
     6      0.326735  1 O  s                  2      0.164593  1 O  s          

 Vector    5  Occ=2.000000D+00  E=-4.984552D-01
              MO Center= -6.2D-03,  4.4D-03,  6.7D-02, r^2= 6.0D-01
   Bfn.  Coefficient  Atom+Function         Bfn.  Coefficient  Atom+Function  
  ----- ------------  ---------------      ----- ------------  ---------------
     3      0.634559  1 O  px                 7      0.507891  1 O  px         

 Vector    6  Occ=0.000000D+00  E= 2.128732D-01
              MO Center=  7.5D-02,  1.3D-01, -6.6D-01, r^2= 2.6D+00
   Bfn.  Coefficient  Atom+Function         Bfn.  Coefficient  Atom+Function  
  ----- ------------  ---------------      ----- ------------  ---------------
     6      1.437795  1 O  s                 17     -1.050892  2 H  s          
    19     -1.050374  3 H  s                  9     -0.494696  1 O  pz         
     5     -0.208359  1 O  pz         

 Vector    7  Occ=0.000000D+00  E= 3.067764D-01
              MO Center=  7.1D-02,  1.3D-01, -6.3D-01, r^2= 2.7D+00
   Bfn.  Coefficient  Atom+Function         Bfn.  Coefficient  Atom+Function  
  ----- ------------  ---------------      ----- ------------  ---------------
    17      1.413885  2 H  s                 19     -1.414835  3 H  s          
     8     -0.824411  1 O  py                 4     -0.320355  1 O  py         

 Vector    8  Occ=0.000000D+00  E= 1.028607D+00
              MO Center=  7.1D-03,  2.6D-02, -5.2D-02, r^2= 1.4D+00
   Bfn.  Coefficient  Atom+Function         Bfn.  Coefficient  Atom+Function  
  ----- ------------  ---------------      ----- ------------  ---------------
    16      0.839269  2 H  s                 18     -0.838060  3 H  s          
     8     -0.692349  1 O  py                17     -0.426291  2 H  s          
    19      0.425092  3 H  s                 14     -0.319117  1 O  dyz        

 Vector    9  Occ=0.000000D+00  E= 1.133833D+00
              MO Center= -2.7D-02, -2.9D-02,  2.6D-01, r^2= 1.5D+00
   Bfn.  Coefficient  Atom+Function         Bfn.  Coefficient  Atom+Function  
  ----- ------------  ---------------      ----- ------------  ---------------
     6      1.621086  1 O  s                  2     -0.910150  1 O  s          
     9      0.744864  1 O  pz                16      0.490586  2 H  s          
    18      0.491102  3 H  s                  5     -0.484186  1 O  pz         
    17     -0.426087  2 H  s                 19     -0.425823  3 H  s          
    10     -0.375325  1 O  dxx               15     -0.317874  1 O  dzz        

 Vector   10  Occ=0.000000D+00  E= 1.167849D+00
              MO Center= -8.0D-03,  1.6D-03,  8.3D-02, r^2= 1.1D+00
   Bfn.  Coefficient  Atom+Function         Bfn.  Coefficient  Atom+Function  
  ----- ------------  ---------------      ----- ------------  ---------------
     7     -1.028149  1 O  px                 3      0.955686  1 O  px         

 Vector   11  Occ=0.000000D+00  E= 1.180721D+00
              MO Center=  1.8D-02,  4.2D-02, -1.5D-01, r^2= 1.1D+00
   Bfn.  Coefficient  Atom+Function         Bfn.  Coefficient  Atom+Function  
  ----- ------------  ---------------      ----- ------------  ---------------
    16      0.710073  2 H  s                 18      0.711177  3 H  s          
     5      0.704677  1 O  pz                17     -0.389719  2 H  s          
    19     -0.389376  3 H  s                  6     -0.326170  1 O  s          
     9     -0.288739  1 O  pz                13      0.229749  1 O  dyy        

 Vector   12  Occ=0.000000D+00  E= 1.384514D+00
              MO Center= -7.4D-04,  1.3D-02,  1.8D-02, r^2= 1.4D+00
   Bfn.  Coefficient  Atom+Function         Bfn.  Coefficient  Atom+Function  
  ----- ------------  ---------------      ----- ------------  ---------------
     8      1.510506  1 O  py                 4     -1.021750  1 O  py         
    17     -0.934844  2 H  s                 19      0.935260  3 H  s          
     9      0.272171  1 O  pz                 5     -0.184286  1 O  pz         

 Vector   13  Occ=0.000000D+00  E= 1.433397D+00
              MO Center=  4.7D-02,  8.7D-02, -4.1D-01, r^2= 1.4D+00
   Bfn.  Coefficient  Atom+Function         Bfn.  Coefficient  Atom+Function  
  ----- ------------  ---------------      ----- ------------  ---------------
     6      3.628985  1 O  s                  2     -1.436467  1 O  s          
     9     -1.143870  1 O  pz                17     -0.805578  2 H  s          
    19     -0.806493  3 H  s                 13     -0.635948  1 O  dyy        
     5      0.489050  1 O  pz                15     -0.410417  1 O  dzz        
    16     -0.312860  2 H  s                 18     -0.312722  3 H  s          

 Vector   14  Occ=0.000000D+00  E= 2.018721D+00
              MO Center= -1.4D-02, -7.1D-03,  1.3D-01, r^2= 6.2D-01
   Bfn.  Coefficient  Atom+Function         Bfn.  Coefficient  Atom+Function  
  ----- ------------  ---------------      ----- ------------  ---------------
    15      0.947149  1 O  dzz               14     -0.531399  1 O  dyz        
    13     -0.526961  1 O  dyy               10     -0.358371  1 O  dxx        
    12     -0.297495  1 O  dxz                6     -0.233087  1 O  s          

 Vector   15  Occ=0.000000D+00  E= 2.031133D+00
              MO Center= -8.4D-03,  1.0D-03,  8.7D-02, r^2= 6.1D-01
   Bfn.  Coefficient  Atom+Function         Bfn.  Coefficient  Atom+Function  
  ----- ------------  ---------------      ----- ------------  ---------------
    11      1.681563  1 O  dxy               12      0.314688  1 O  dxz        


 center of mass
 --------------
 x =  -0.00258245 y =   0.02272235 z =   0.04407491

 moments of inertia (a.u.)
 ------------------
           6.155330507195          -0.266185800841           0.185335033231
          -0.266185800841           2.211585220634          -0.350250164177
           0.185335033231          -0.350250164177           4.020009073007

  Mulliken analysis of the total density
  --------------------------------------

    Atom       Charge   Shell Charges
 -----------   ------   -------------------------------------------------------
    1 O    8     8.87   2.00  0.90  2.91  0.91  2.06  0.08
    2 H    1     0.57   0.47  0.10
    3 H    1     0.57   0.47  0.10

       Multipole analysis of the density wrt the origin
       ------------------------------------------------

     L   x y z        total         open         nuclear
     -   - - -        -----         ----         -------
     0   0 0 0     -0.000000      0.000000     10.000000

     1   1 0 0      0.094145      0.000000      0.078291
     1   0 1 0      0.148179      0.000000      0.391182
     1   0 0 1     -0.851621      0.000000     -0.500996

     2   2 0 0     -5.338111      0.000000      0.035987
     2   1 1 0      0.149191      0.000000      0.263306
     2   1 0 1     -0.084723      0.000000     -0.165556
     2   0 2 0     -3.114464      0.000000      3.960160
     2   0 1 1      0.205130      0.000000      0.362991
     2   0 0 2     -4.329185      0.000000      1.980308


 Parallel integral file used       1 records with       0 large values

                              NWChem Gradients Module
                              -----------------------



  wavefunction    =   RHF     



                         RHF ENERGY GRADIENTS

    atom               coordinates                        gradient
                 x          y          z           x          y          z
   1 O      -0.015811   0.001891   0.163727   -0.000201  -0.000505   0.001671
   2 H       0.183076   1.582557  -0.654066    0.000065  -0.000505  -0.001056
   3 H       0.021701  -1.206501  -1.156743    0.000136   0.001011  -0.000616

                 ----------------------------------------
                 |  Time  |  1-e(secs)   |  2-e(secs)   |
                 ----------------------------------------
                 |  CPU   |       0.00   |       0.03   |
                 ----------------------------------------
                 |  WALL  |       0.00   |       0.03   |
                 ----------------------------------------

 Task  times  cpu:        0.1s     wall:        0.1s


                                NWChem Input Module
                                -------------------


 Summary of allocated global arrays
-----------------------------------
  No active global arrays



                         GA Statistics for process    0
                         ------------------------------

       create   destroy   get      put      acc     scatter   gather  read&inc
calls:   46       46     2296      477       27        0        0       68     
number of processes/call 1.00e+00 1.00e+00 1.00e+00 0.00e+00 0.00e+00
bytes total:             2.70e+05 1.39e+05 2.27e+04 0.00e+00 0.00e+00 5.44e+02
bytes remote:            0.00e+00 0.00e+00 0.00e+00 0.00e+00 0.00e+00 0.00e+00
Max memory consumed for GA by this process: 37544 bytes

MA_summarize_allocated_blocks: starting scan ...
MA_summarize_allocated_blocks: scan completed: 0 heap blocks, 0 stack blocks
MA usage statistics:

	allocation statistics:
					      heap	     stack
					      ----	     -----
	current number of blocks	         0	         0
	maximum number of blocks	        18	        28
	current total bytes		         0	         0
	maximum total bytes		   1060104	  16000888
	maximum total K-bytes		      1061	     16001
	maximum total M-bytes		         2	        17


                                     CITATION
                                     --------
                Please cite the following reference when publishing
                           results obtained with NWChem:

                 M. Valiev, E.J. Bylaska, N. Govind, K. Kowalski,
              T.P. Straatsma, H.J.J. van Dam, D. Wang, J. Nieplocha,
                        E. Apra, T.L. Windus, W.A. de Jong
                 "NWChem: a comprehensive and scalable open-source
                  solution for large scale molecular simulations"
                      Comput. Phys. Commun. 181, 1477 (2010)
                           doi:10.1016/j.cpc.2010.04.018

                                      AUTHORS
                                      -------
          E. Apra, E. J. Bylaska, W. A. de Jong, N. Govind, K. Kowalski,
       T. P. Straatsma, M. Valiev, H. J. J. van Dam, D. Wang, T. L. Windus,
        J. Hammond, J. Autschbach, K. Bhaskaran-Nair, J. Brabec, K. Lopata,
    S. A. Fischer, S. Krishnamoorthy, M. Jacquelin, W. Ma, M. Klemm, O. Villa,
      Y. Chen, V. Anisimov, F. Aquino, S. Hirata, M. T. Hackler, V. Konjkov,
            D. Mejia-Rodriguez, T. Risthaus, M. Malagoli, A. Marenich,
   A. Otero-de-la-Roza, J. Mullin, P. Nichols, R. Peverati, J. Pittner, Y. Zhao,
        P.-D. Fan, A. Fonari, M. J. Williamson, R. J. Harrison, J. R. Rehr,
      M. Dupuis, D. Silverstein, D. M. A. Smith, J. Nieplocha, V. Tipparaju,
    M. Krishnan, B. E. Van Kuiken, A. Vazquez-Mayagoitia, L. Jensen, M. Swart,
      Q. Wu, T. Van Voorhis, A. A. Auer, M. Nooijen, L. D. Crosby, E. Brown,
      G. Cisneros, G. I. Fann, H. Fruchtl, J. Garza, K. Hirao, R. A. Kendall,
      J. A. Nichols, K. Tsemekhman, K. Wolinski, J. Anchell, D. E. Bernholdt,
      P. Borowski, T. Clark, D. Clerc, H. Dachsel, M. J. O. Deegan, K. Dyall,
    D. Elwood, E. Glendening, M. Gutowski, A. C. Hess, J. Jaffe, B. G. Johnson,
     J. Ju, R. Kobayashi, R. Kutteh, Z. Lin, R. Littlefield, X. Long, B. Meng,
      T. Nakajima, S. Niu, L. Pollack, M. Rosing, K. Glaesemann, G. Sandrone,
      M. Stave, H. Taylor, G. Thomas, J. H. van Lenthe, A. T. Wong, Z. Zhang.

 Total times  cpu:        0.1s     wall:        0.1s
