LAMMPS description

     512      atoms    
       0      bonds    
       0      angles   
       0      dihedrals
       0      impropers

       1      atom types    
       0      bond types    
       0      angle types   
       0      dihedral types
       0      improper types


  0.0000000      21.848000     xlo xhi
  0.0000000      21.848000     ylo yhi
  0.0000000      21.848000     zlo zhi

 Atoms

      1      1      1      0.0000000      6.2030000      5.5980000     12.9980000
      2      2      1      0.0000000     21.3100000      5.6310000     21.1380000
      3      3      1      0.0000000     19.5320000      6.1170000      3.6940000
      4      4      1      0.0000000      4.3700000     14.0260000      0.0900000
      5      5      1      0.0000000     10.1930000      7.4590000      2.3530000
      6      6      1      0.0000000     17.5070000     14.1860000      3.6790000
      7      7      1      0.0000000     11.2050000     15.9160000     15.0480000
      8      8      1      0.0000000      8.6050000     19.8970000     21.0040000
      9      9      1      0.0000000     15.0360000     17.5650000      1.3640000
     10     10      1      0.0000000     12.0450000      3.3600000      7.2720000
     11     11      1      0.0000000      7.1330000     17.4130000     18.0480000
     12     12      1      0.0000000      8.7340000      6.3830000      3.8480000
     13     13      1      0.0000000     13.0940000      3.2490000      3.5840000
     14     14      1      0.0000000     11.3200000      7.2770000     20.4120000
     15     15      1      0.0000000     19.7770000      8.9110000      0.3000000
     16     16      1      0.0000000     11.9710000     20.8500000      1.5140000
     17     17      1      0.0000000     10.4480000     10.3650000     15.4040000
     18     18      1      0.0000000      9.2060000      9.4670000     10.2240000
     19     19      1      0.0000000      8.4360000     13.6240000     17.6570000
     20     20      1      0.0000000     18.2020000     21.1230000      0.1380000
     21     21      1      0.0000000      3.2970000     19.5740000     14.7410000
     22     22      1      0.0000000     12.5330000     17.3580000      7.5960000
     23     23      1      0.0000000      1.4040000     18.1060000      3.1510000
     24     24      1      0.0000000     17.7440000     13.1530000     16.7940000
     25     25      1      0.0000000     12.1070000     12.6630000     18.0340000
     26     26      1      0.0000000      8.7270000     17.1140000     10.4200000
     27     27      1      0.0000000     13.2330000     16.0380000     13.9210000
     28     28      1      0.0000000     15.2360000     14.8650000      7.0150000
     29     29      1      0.0000000      5.5190000     20.8660000     19.9260000
     30     30      1      0.0000000     16.5810000      9.7460000     15.1710000
     31     31      1      0.0000000      2.0500000     13.8550000     21.8010000
     32     32      1      0.0000000     21.2670000     20.8970000     13.6740000
     33     33      1      0.0000000      9.6900000      6.7650000      0.1950000
     34     34      1      0.0000000     11.2570000     13.2440000      2.8190000
     35     35      1      0.0000000     10.7810000     12.7310000     12.1920000
     36     36      1      0.0000000     16.2630000      7.4100000      1.5360000
     37     37      1      0.0000000     19.6100000     18.1440000     19.6830000
     38     38      1      0.0000000      8.1790000      0.1200000     10.1620000
     39     39      1      0.0000000     17.0520000     20.4210000     15.0450000
     40     40      1      0.0000000     12.3690000     12.6710000      4.8320000
     41     41      1      0.0000000      7.8300000     16.6790000     14.2470000
     42     42      1      0.0000000      1.6790000      9.9500000      1.2660000
     43     43      1      0.0000000     16.6160000     14.6580000     13.2790000
     44     44      1      0.0000000     13.7430000     11.9730000     21.5360000
     45     45      1      0.0000000      5.2590000     15.1850000      9.5720000
     46     46      1      0.0000000     20.5980000     14.7930000     20.4140000
     47     47      1      0.0000000      1.5640000     16.8080000     13.0450000
     48     48      1      0.0000000     21.3670000     11.4610000     20.6420000
     49     49      1      0.0000000     14.5890000      5.9510000      7.1950000
     50     50      1      0.0000000      1.0870000     13.5410000     11.3300000
     51     51      1      0.0000000      6.2040000      4.8970000     16.9420000
     52     52      1      0.0000000      0.4800000      4.1450000      0.8710000
     53     53      1      0.0000000      2.0120000      5.7530000      1.8950000
     54     54      1      0.0000000      9.8460000     19.1320000      7.3060000
     55     55      1      0.0000000     18.3760000     21.3430000      4.0940000
     56     56      1      0.0000000      5.2900000      6.5400000      5.3620000
     57     57      1      0.0000000      1.4110000      6.5750000      4.0580000
     58     58      1      0.0000000     16.1600000     15.1390000     11.0380000
     59     59      1      0.0000000     21.0670000     18.3830000      8.6900000
     60     60      1      0.0000000     18.0250000     17.7750000      1.4340000
     61     61      1      0.0000000     19.0570000     16.2190000      6.6410000
     62     62      1      0.0000000      5.1170000     16.5510000     11.5540000
     63     63      1      0.0000000     14.4810000      7.8720000     12.6320000
     64     64      1      0.0000000     11.7990000     10.9690000     13.5430000
     65     65      1      0.0000000     11.2980000     18.5410000      1.5740000
     66     66      1      0.0000000     16.1280000     19.0390000     19.6440000
     67     67      1      0.0000000      6.0950000      7.0580000      9.6530000
     68     68      1      0.0000000      5.3890000     20.2540000     10.7060000
     69     69      1      0.0000000     17.9160000     18.9070000     21.1540000
     70     70      1      0.0000000     13.0780000      2.1790000     17.4030000
     71     71      1      0.0000000      8.0450000     14.3440000     14.0640000
     72     72      1      0.0000000     14.4380000      6.8780000     14.6950000
     73     73      1      0.0000000      0.4570000     21.6180000      8.3670000
     74     74      1      0.0000000      6.4350000     16.9720000     21.7330000
     75     75      1      0.0000000      8.0530000      4.0310000     20.1860000
     76     76      1      0.0000000      6.8130000     19.7870000     12.5790000
     77     77      1      0.0000000     19.0490000     10.8480000      6.0760000
     78     78      1      0.0000000      2.2540000      7.7370000      0.5320000
     79     79      1      0.0000000     16.3920000      9.0880000      3.1430000
     80     80      1      0.0000000      2.3620000      2.5500000      7.5690000
     81     81      1      0.0000000     16.4560000     18.5670000      3.1120000
     82     82      1      0.0000000      8.9560000     21.0830000     12.3020000
     83     83      1      0.0000000     20.5540000      8.9280000      5.9480000
     84     84      1      0.0000000     13.5930000      8.4890000     16.2370000
     85     85      1      0.0000000      9.5270000     18.0720000      3.0190000
     86     86      1      0.0000000     11.3690000     15.3870000      7.1310000
     87     87      1      0.0000000      8.3670000     13.3960000     11.8610000
     88     88      1      0.0000000     14.6370000     11.4110000     11.4870000
     89     89      1      0.0000000      8.4720000     16.0650000      2.4300000
     90     90      1      0.0000000      8.2360000      5.2200000     18.1710000
     91     91      1      0.0000000     11.0620000      2.8760000      0.4170000
     92     92      1      0.0000000     14.0830000      1.3550000     14.0190000
     93     93      1      0.0000000     20.5600000      4.1900000     19.4660000
     94     94      1      0.0000000      4.6340000     13.0980000     10.3670000
     95     95      1      0.0000000     19.9860000     15.5670000     11.7860000
     96     96      1      0.0000000     21.5070000      4.1860000     14.8350000
     97     97      1      0.0000000      3.3000000     11.2060000      2.5350000
     98     98      1      0.0000000     19.2680000     21.0240000     10.9110000
     99     99      1      0.0000000     12.2370000     19.4650000     19.9000000
    100    100      1      0.0000000      8.3790000      9.6670000     14.5440000
    101    101      1      0.0000000      5.4520000     19.1660000      5.6940000
    102    102      1      0.0000000     15.8720000     15.4140000      0.3070000
    103    103      1      0.0000000      6.9830000     19.1480000      0.5830000
    104    104      1      0.0000000      7.9760000     18.3420000      8.5250000
    105    105      1      0.0000000     13.9710000      6.7570000      1.1860000
    106    106      1      0.0000000     18.7050000      7.2110000      9.2350000
    107    107      1      0.0000000      3.2430000     13.6330000     12.1990000
    108    108      1      0.0000000      1.9830000     10.8340000      5.4640000
    109    109      1      0.0000000     16.5770000      5.0400000     11.4490000
    110    110      1      0.0000000      9.5130000      6.2390000     14.3030000
    111    111      1      0.0000000     14.1990000      4.0910000     16.7750000
    112    112      1      0.0000000      8.0160000      3.5600000      2.0280000
    113    113      1      0.0000000      7.9650000     12.1700000      7.8050000
    114    114      1      0.0000000      0.3770000      0.0320000     15.5780000
    115    115      1      0.0000000     19.0860000     17.5690000     12.6230000
    116    116      1      0.0000000     17.2970000     16.8030000     13.9660000
    117    117      1      0.0000000      6.7180000     10.5880000     19.5790000
    118    118      1      0.0000000     21.3930000     21.2940000      6.2410000
    119    119      1      0.0000000     16.0260000     18.7640000     13.6100000
    120    120      1      0.0000000      3.1880000      2.1990000     18.5690000
    121    121      1      0.0000000     20.7860000     13.7840000      4.4870000
    122    122      1      0.0000000     18.3540000     11.7960000     11.0710000
    123    123      1      0.0000000     19.3210000      0.4960000      5.9630000
    124    124      1      0.0000000      3.7260000     13.4120000     18.4840000
    125    125      1      0.0000000      4.4280000      4.9270000     18.4730000
    126    126      1      0.0000000      2.7040000     21.7660000     15.2940000
    127    127      1      0.0000000      9.3640000     14.3230000      3.7130000
    128    128      1      0.0000000     20.5800000      3.3360000      7.9310000
    129    129      1      0.0000000      2.4060000      4.1320000     17.3120000
    130    130      1      0.0000000      0.9210000      2.6080000     11.0930000
    131    131      1      0.0000000     13.7900000      9.5610000      8.2490000
    132    132      1      0.0000000      5.5210000      8.6760000      2.5590000
    133    133      1      0.0000000     11.1320000     11.1160000      6.1310000
    134    134      1      0.0000000      1.6180000      6.5650000     10.7690000
    135    135      1      0.0000000     21.0480000     17.3880000      3.1250000
    136    136      1      0.0000000      2.5950000     13.3430000      3.3870000
    137    137      1      0.0000000      1.8600000      4.7830000     14.1190000
    138    138      1      0.0000000      1.2420000     12.9340000      9.0760000
    139    139      1      0.0000000      2.2650000      8.2300000      7.4350000
    140    140      1      0.0000000     10.9360000     17.8140000     10.9520000
    141    141      1      0.0000000     10.3160000     13.8030000     14.5060000
    142    142      1      0.0000000     11.0500000      2.5760000     12.8090000
    143    143      1      0.0000000     18.3430000     15.3950000     10.0190000
    144    144      1      0.0000000      8.2990000      0.3320000      5.4980000
    145    145      1      0.0000000     17.9730000      3.4330000     17.4260000
    146    146      1      0.0000000      0.8080000      7.5530000     20.4740000
    147    147      1      0.0000000     20.6320000     14.4730000      6.7080000
    148    148      1      0.0000000     19.3400000      2.8450000      5.9340000
    149    149      1      0.0000000      5.2100000      0.9290000      6.2580000
    150    150      1      0.0000000      8.6370000      4.0920000      9.2870000
    151    151      1      0.0000000     16.5730000      2.0050000      1.7720000
    152    152      1      0.0000000     14.6570000     14.1440000     14.4910000
    153    153      1      0.0000000     11.1610000      6.0610000     15.8870000
    154    154      1      0.0000000      3.8100000      4.2040000      2.1350000
    155    155      1      0.0000000     18.6920000     11.8180000     18.5170000
    156    156      1      0.0000000     20.4240000     10.6340000     10.7960000
    157    157      1      0.0000000      8.9050000      9.9220000     20.2310000
    158    158      1      0.0000000      7.7940000     19.5410000      2.7410000
    159    159      1      0.0000000      2.7600000     18.2100000      9.0140000
    160    160      1      0.0000000     11.7480000      5.0280000      4.3170000
    161    161      1      0.0000000     20.6470000      3.0010000      2.1470000
    162    162      1      0.0000000      6.5680000     11.9510000     11.1410000
    163    163      1      0.0000000     18.0300000      5.6700000     13.1650000
    164    164      1      0.0000000     15.8950000     17.4810000     17.7940000
    165    165      1      0.0000000      0.6840000     12.2180000      4.0930000
    166    166      1      0.0000000      0.9170000      0.0080000      0.9710000
    167    167      1      0.0000000      1.5850000     18.4470000     16.1470000
    168    168      1      0.0000000     13.1970000      2.0830000      5.6040000
    169    169      1      0.0000000     13.4220000      1.6690000     19.6280000
    170    170      1      0.0000000      7.2980000     15.5410000      6.4330000
    171    171      1      0.0000000     11.8930000      0.1240000      5.2450000
    172    172      1      0.0000000     21.5410000      5.4260000      7.3690000
    173    173      1      0.0000000      6.2310000     17.4900000      7.1340000
    174    174      1      0.0000000     20.3880000     18.7320000     14.2000000
    175    175      1      0.0000000     15.0410000     20.5060000      3.2370000
    176    176      1      0.0000000     19.8180000      7.0070000      7.1800000
    177    177      1      0.0000000      8.4660000      2.7180000      5.7470000
    178    178      1      0.0000000      5.4480000     10.4180000      6.1220000
    179    179      1      0.0000000     10.8570000      0.2910000      3.1650000
    180    180      1      0.0000000      7.1820000     12.9370000     19.5560000
    181    181      1      0.0000000     21.6620000     11.8360000     12.5450000
    182    182      1      0.0000000     10.9080000     11.2050000      1.6360000
    183    183      1      0.0000000     11.2840000      8.4420000     16.6070000
    184    184      1      0.0000000      8.0040000      7.5690000     15.4890000
    185    185      1      0.0000000      8.0790000      6.2840000      8.6400000
    186    186      1      0.0000000     18.9520000     12.1530000      4.0530000
    187    187      1      0.0000000     10.3010000     12.0820000      8.1320000
    188    188      1      0.0000000     14.4560000     11.6780000      4.7170000
    189    189      1      0.0000000      7.1020000     21.2750000     15.8180000
    190    190      1      0.0000000     13.1170000     20.7170000      9.0870000
    191    191      1      0.0000000      5.3560000      2.2610000     12.5060000
    192    192      1      0.0000000     17.3690000     11.1000000      2.4870000
    193    193      1      0.0000000     15.9510000      5.0030000     20.2280000
    194    194      1      0.0000000      3.3320000     11.8950000      8.8170000
    195    195      1      0.0000000      8.2450000      1.7100000     19.8310000
    196    196      1      0.0000000      9.0600000     15.9380000     18.2990000
    197    197      1      0.0000000     10.3120000     12.4780000     16.5400000
    198    198      1      0.0000000     21.2690000      2.1440000     16.1630000
    199    199      1      0.0000000     20.7920000     11.3890000      2.6870000
    200    200      1      0.0000000      5.5190000     10.8650000     12.9180000
    201    201      1      0.0000000     13.1600000     14.6530000      5.7980000
    202    202      1      0.0000000      9.4110000      4.0280000      3.9640000
    203    203      1      0.0000000     10.1160000     21.3800000      6.7070000
    204    204      1      0.0000000     18.8050000     17.5440000      8.7540000
    205    205      1      0.0000000      0.2690000     20.1700000     17.2400000
    206    206      1      0.0000000     14.6190000     13.4340000     10.3480000
    207    207      1      0.0000000     14.9800000      3.6520000      2.2770000
    208    208      1      0.0000000     10.4210000      1.4390000     14.8540000
    209    209      1      0.0000000      2.8950000      8.5990000     11.0640000
    210    210      1      0.0000000      8.3350000      0.6070000     14.2020000
    211    211      1      0.0000000      5.6790000      2.9730000     15.7800000
    212    212      1      0.0000000      7.9000000      8.2920000     21.6460000
    213    213      1      0.0000000      1.7820000     17.8720000      5.4810000
    214    214      1      0.0000000      7.1130000      2.5790000     13.9770000
    215    215      1      0.0000000     14.4580000      4.6660000      0.2210000
    216    216      1      0.0000000      2.6400000      9.9660000     17.7570000
    217    217      1      0.0000000     12.9280000     10.2110000     10.3600000
    218    218      1      0.0000000      0.5090000      2.0800000      8.8230000
    219    219      1      0.0000000      0.9650000     20.6540000     11.9240000
    220    220      1      0.0000000     19.5740000     21.0310000      2.1230000
    221    221      1      0.0000000     18.6770000      7.8820000     12.9890000
    222    222      1      0.0000000     17.1700000      3.9160000      5.7110000
    223    223      1      0.0000000      7.0920000     12.0700000      1.6960000
    224    224      1      0.0000000      2.6840000     17.0880000      1.3490000
    225    225      1      0.0000000      5.4860000     16.7240000     19.5970000
    226    226      1      0.0000000     16.3220000      3.8420000     15.8790000
    227    227      1      0.0000000      3.8940000      2.4920000      0.4900000
    228    228      1      0.0000000     13.2430000      3.5150000     13.0570000
    229    229      1      0.0000000     13.3010000     21.5940000     12.5150000
    230    230      1      0.0000000      4.9010000     11.9630000      0.9870000
    231    231      1      0.0000000     12.6700000     14.8980000     18.4670000
    232    232      1      0.0000000      6.4220000      6.6170000      3.2980000
    233    233      1      0.0000000     16.6360000      5.9910000     15.0630000
    234    234      1      0.0000000     17.9000000     15.3980000      1.6090000
    235    235      1      0.0000000     18.1580000      0.8480000      9.7210000
    236    236      1      0.0000000     20.2850000      4.8230000     12.9090000
    237    237      1      0.0000000      1.6610000      2.7360000      5.3350000
    238    238      1      0.0000000      5.8340000      0.9980000     16.9740000
    239    239      1      0.0000000      9.0090000      7.7870000      5.7310000
    240    240      1      0.0000000     16.1890000      4.3150000      7.8490000
    241    241      1      0.0000000     16.5840000      8.9600000     12.9530000
    242    242      1      0.0000000      4.8520000     10.4780000     21.0310000
    243    243      1      0.0000000      2.7810000     16.7740000     17.2520000
    244    244      1      0.0000000     19.7990000     10.0200000     15.9170000
    245    245      1      0.0000000      3.1690000      7.6710000      5.2800000
    246    246      1      0.0000000     15.1980000      2.3520000      8.6870000
    247    247      1      0.0000000     16.3130000      2.2040000     14.2110000
    248    248      1      0.0000000      6.3140000      2.9350000      6.7010000
    249    249      1      0.0000000      8.2590000      4.5060000     13.2730000
    250    250      1      0.0000000     13.9300000     18.2210000     14.4470000
    251    251      1      0.0000000     20.2210000      7.9620000     14.8160000
    252    252      1      0.0000000      1.6700000     11.5910000     21.3490000
    253    253      1      0.0000000     11.2380000     16.3450000     17.3670000
    254    254      1      0.0000000      2.0800000     20.2850000      2.3410000
    255    255      1      0.0000000     13.5570000     16.5190000      4.3840000
    256    256      1      0.0000000      7.4220000     19.6120000     18.9900000
    257    257      1      0.0000000     12.9300000     16.8740000      2.1540000
    258    258      1      0.0000000     14.8300000     17.0150000     10.5830000
    259    259      1      0.0000000      9.9680000     16.3050000     20.5360000
    260    260      1      0.0000000     20.9510000     14.9180000     15.5360000
    261    261      1      0.0000000     21.2710000      0.7830000      2.5700000
    262    262      1      0.0000000      7.5010000     11.4110000      5.6070000
    263    263      1      0.0000000     15.1820000     11.1410000      6.9920000
    264    264      1      0.0000000     12.3430000      6.8350000      2.9520000
    265    265      1      0.0000000     15.6910000     17.3040000      4.9430000
    266    266      1      0.0000000      6.2450000      1.4930000     10.4630000
    267    267      1      0.0000000     15.3140000     20.7570000     16.6390000
    268    268      1      0.0000000     18.2310000     18.8700000     10.8220000
    269    269      1      0.0000000     19.9080000      8.2790000     11.0020000
    270    270      1      0.0000000     16.2580000      5.0600000      3.6820000
    271    271      1      0.0000000      3.6660000     15.6980000     13.3000000
    272    272      1      0.0000000     21.3440000      9.2620000      2.0490000
    273    273      1      0.0000000     21.6340000     20.9700000     20.9670000
    274    274      1      0.0000000     20.4570000      2.7200000     11.7840000
    275    275      1      0.0000000      4.3450000     15.9260000     15.6130000
    276    276      1      0.0000000     18.5090000      3.3140000      1.1410000
    277    277      1      0.0000000      0.4070000     15.7920000     11.2970000
    278    278      1      0.0000000     13.3440000      8.1980000      4.5520000
    279    279      1      0.0000000      8.5380000     21.6840000      3.2560000
    280    280      1      0.0000000      2.2890000      0.7680000     11.6890000
    281    281      1      0.0000000     21.5990000     18.8900000      6.4050000
    282    282      1      0.0000000     14.9140000      7.5570000      8.8670000
    283    283      1      0.0000000     21.3690000     18.6450000     21.2590000
    284    284      1      0.0000000     10.9470000      5.8950000     10.8840000
    285    285      1      0.0000000      2.6280000     15.7990000      6.4350000
    286    286      1      0.0000000     11.9940000     15.1200000     20.8540000
    287    287      1      0.0000000     16.6450000     10.2270000     10.9850000
    288    288      1      0.0000000     13.0310000      2.8900000      9.3200000
    289    289      1      0.0000000     12.4260000     19.8280000     13.6940000
    290    290      1      0.0000000     19.8890000     19.6500000     17.8410000
    291    291      1      0.0000000      4.0230000      9.6810000      4.2830000
    292    292      1      0.0000000      2.6590000     21.3600000      4.2810000
    293    293      1      0.0000000      6.4930000      3.2770000      9.0110000
    294    294      1      0.0000000     21.3560000     20.3330000     10.0560000
    295    295      1      0.0000000     14.3030000     20.6610000      0.9740000
    296    296      1      0.0000000      4.4890000      8.4620000      0.4180000
    297    297      1      0.0000000      6.5630000      7.5730000     11.8490000
    298    298      1      0.0000000      3.4090000      1.4420000     13.6640000
    299    299      1      0.0000000     15.6340000      1.9640000      5.3770000
    300    300      1      0.0000000     11.9210000      0.8170000      9.6710000
    301    301      1      0.0000000     20.9660000      9.2330000     20.1270000
    302    302      1      0.0000000      1.6280000      6.2090000      8.4340000
    303    303      1      0.0000000      0.5530000      9.8060000      7.0560000
    304    304      1      0.0000000     11.5710000     18.9280000      8.9830000
    305    305      1      0.0000000      4.2490000      7.9910000     14.8160000
    306    306      1      0.0000000     19.7300000     12.4900000      7.6500000
    307    307      1      0.0000000     10.8450000     14.1880000      9.0020000
    308    308      1      0.0000000     10.8070000     11.1620000     10.2560000
    309    309      1      0.0000000      4.7040000      8.6980000     12.6030000
    310    310      1      0.0000000      3.7570000     12.0590000      6.5220000
    311    311      1      0.0000000      9.7910000      2.9010000      7.6620000
    312    312      1      0.0000000      3.7810000     14.0810000      5.2770000
    313    313      1      0.0000000      4.0640000     19.1000000      1.8260000
    314    314      1      0.0000000     21.7520000     10.6160000     14.7710000
    315    315      1      0.0000000      1.3090000     11.5200000     16.3780000
    316    316      1      0.0000000      5.1840000     20.6560000      0.4260000
    317    317      1      0.0000000     10.7630000      2.3920000     17.0100000
    318    318      1      0.0000000      4.7970000     15.9920000      1.2450000
    319    319      1      0.0000000     11.1370000      0.4590000     11.8330000
    320    320      1      0.0000000     14.5870000     13.6170000      1.1610000
    321    321      1      0.0000000      9.8660000      0.7940000      8.6450000
    322    322      1      0.0000000     17.7650000     19.2430000      7.2990000
    323    323      1      0.0000000      6.0610000      1.2430000     19.3000000
    324    324      1      0.0000000     18.2200000     12.8760000     13.2170000
    325    325      1      0.0000000     18.0460000     13.1700000      9.1450000
    326    326      1      0.0000000      3.3530000      3.3130000     15.2040000
    327    327      1      0.0000000     10.4090000     19.4890000     16.3660000
    328    328      1      0.0000000     15.6710000      1.1260000     19.9260000
    329    329      1      0.0000000     10.8900000      7.3650000      7.1060000
    330    330      1      0.0000000     13.4480000     20.2870000      5.0130000
    331    331      1      0.0000000     16.0530000      0.3050000      0.2340000
    332    332      1      0.0000000      9.8430000     17.8410000     14.6670000
    333    333      1      0.0000000     13.0150000     10.2370000      1.1400000
    334    334      1      0.0000000      4.2090000     16.6330000      8.0040000
    335    335      1      0.0000000      4.5530000      4.3630000     11.8090000
    336    336      1      0.0000000     12.4370000     18.2310000      5.4180000
    337    337      1      0.0000000      4.6660000      4.4220000      5.9770000
    338    338      1      0.0000000      9.5670000      9.6790000      2.7600000
    339    339      1      0.0000000     17.6640000     17.0250000     16.2770000
    340    340      1      0.0000000     20.3640000     13.8280000     13.4210000
    341    341      1      0.0000000     10.0140000      7.4130000      9.2700000
    342    342      1      0.0000000      2.1350000      7.0370000     14.8450000
    343    343      1      0.0000000     10.1280000     17.9060000      5.2690000
    344    344      1      0.0000000      9.9640000     11.7180000     21.3790000
    345    345      1      0.0000000      3.9300000     18.4910000     10.9740000
    346    346      1      0.0000000      4.4370000      0.9780000      3.9700000
    347    347      1      0.0000000      3.3540000     11.6180000     13.2880000
    348    348      1      0.0000000     10.1490000      8.5100000     18.7440000
    349    349      1      0.0000000     20.0030000     12.0850000      0.6000000
    350    350      1      0.0000000      8.1370000      7.5880000     17.8300000
    351    351      1      0.0000000      4.9940000      4.9580000      9.5900000
    352    352      1      0.0000000      5.3170000     14.3610000     19.8350000
    353    353      1      0.0000000      9.3030000     10.0320000      5.0540000
    354    354      1      0.0000000     15.9060000     19.0210000     11.2850000
    355    355      1      0.0000000      4.7750000      3.1100000     20.1740000
    356    356      1      0.0000000     12.3120000      9.1080000      6.4970000
    357    357      1      0.0000000     10.4810000      4.6620000     17.6350000
    358    358      1      0.0000000      4.7080000     13.6970000     16.3300000
    359    359      1      0.0000000     12.2970000      5.5490000      6.5760000
    360    360      1      0.0000000     17.9900000      5.6590000      1.9370000