LAMMPS description

       8      atoms    
       0      bonds    
       0      angles   
       0      dihedrals
       0      impropers

       1      atom types    
       0      bond types    
       0      angle types   
       0      dihedral types
       0      improper types


  0.0000000      5.4310000     xlo xhi
  0.0000000      5.4310000     ylo yhi
  0.0000000      5.4310000     zlo zhi

 Atoms

      1      1      1      0.0000000      0.0000000      0.0000000      0.0000000
      2      2      1      0.0000000      1.3577500      1.3577500      1.3572000
      3      3      1      0.0000000      2.7155000      2.7155000      0.0000000
      4      4      1      0.0000000      4.0732500      4.0732500      1.3572000
      5      5      1      0.0000000      2.7155000      0.0000000      2.7144000
      6      6      1      0.0000000      4.0732500      1.3577500      4.0732500
      7      7      1      0.0000000      0.0000000      2.7155000      2.7155000
      8      8      1      0.0000000      1.3577500      4.0732500      4.0732500
