LAMMPS description

     216      atoms    
       0      bonds    
       0      angles   
       0      dihedrals
       0      impropers

       1      atom types    
       0      bond types    
       0      angle types   
       0      dihedral types
       0      improper types


  0.0000000      16.293000     xlo xhi
  0.0000000      16.293000     ylo yhi
  0.0000000      16.293000     zlo zhi

 Atoms

      1      1      1      0.0000000      0.0000000      0.0000000      0.0000000
      2      2      1      0.0000000      0.0000000      2.7160000      2.7160000
      3      3      1      0.0000000      2.7160000      2.7160000      0.0000000
      4      4      1      0.0000000      2.7160000      0.0000000      2.7160000
      5      5      1      0.0000000      4.0730000      1.3580000      4.0730000
      6      6      1      0.0000000      1.3580000      1.3580000      1.3580000
      7      7      1      0.0000000      1.3580000      4.0730000      4.0730000
      8      8      1      0.0000000      4.0730000      4.0730000      1.3580000
      9      9      1      0.0000000      0.0000000      0.0000000      5.4310000
     10     10      1      0.0000000      0.0000000      2.7160000      8.1460000
     11     11      1      0.0000000      2.7160000      2.7160000      5.4310000
     12     12      1      0.0000000      2.7160000      0.0000000      8.1460000
     13     13      1      0.0000000      4.0730000      1.3580000      9.5040000
     14     14      1      0.0000000      1.3580000      1.3580000      6.7890000
     15     15      1      0.0000000      1.3580000      4.0730000      9.5040000
     16     16      1      0.0000000      4.0730000      4.0730000      6.7890000
     17     17      1      0.0000000      0.0000000      0.0000000     10.8620000
     18     18      1      0.0000000      0.0000000      2.7160000     13.5780000
     19     19      1      0.0000000      2.7160000      2.7160000     10.8620000
     20     20      1      0.0000000      2.7160000      0.0000000     13.5780000
     21     21      1      0.0000000      4.0730000      1.3580000     14.9350000
     22     22      1      0.0000000      1.3580000      1.3580000     12.2200000
     23     23      1      0.0000000      1.3580000      4.0730000     14.9350000
     24     24      1      0.0000000      4.0730000      4.0730000     12.2200000
     25     25      1      0.0000000      0.0000000      5.4310000      0.0000000
     26     26      1      0.0000000      0.0000000      8.1460000      2.7160000
     27     27      1      0.0000000      2.7160000      8.1460000      0.0000000
     28     28      1      0.0000000      2.7160000      5.4310000      2.7160000
     29     29      1      0.0000000      4.0730000      6.7890000      4.0730000
     30     30      1      0.0000000      1.3580000      6.7890000      1.3580000
     31     31      1      0.0000000      1.3580000      9.5040000      4.0730000
     32     32      1      0.0000000      4.0730000      9.5040000      1.3580000
     33     33      1      0.0000000      0.0000000      5.4310000      5.4310000
     34     34      1      0.0000000      0.0000000      8.1460000      8.1460000
     35     35      1      0.0000000      2.7160000      8.1460000      5.4310000
     36     36      1      0.0000000      2.7160000      5.4310000      8.1460000
     37     37      1      0.0000000      4.0730000      6.7890000      9.5040000
     38     38      1      0.0000000      1.3580000      6.7890000      6.7890000
     39     39      1      0.0000000      1.3580000      9.5040000      9.5040000
     40     40      1      0.0000000      4.0730000      9.5040000      6.7890000
     41     41      1      0.0000000      0.0000000      5.4310000     10.8620000
     42     42      1      0.0000000      0.0000000      8.1460000     13.5780000
     43     43      1      0.0000000      2.7160000      8.1460000     10.8620000
     44     44      1      0.0000000      2.7160000      5.4310000     13.5780000
     45     45      1      0.0000000      4.0730000      6.7890000     14.9350000
     46     46      1      0.0000000      1.3580000      6.7890000     12.2200000
     47     47      1      0.0000000      1.3580000      9.5040000     14.9350000
     48     48      1      0.0000000      4.0730000      9.5040000     12.2200000
     49     49      1      0.0000000      0.0000000     10.8620000      0.0000000
     50     50      1      0.0000000      0.0000000     13.5780000      2.7160000
     51     51      1      0.0000000      2.7160000     13.5780000      0.0000000
     52     52      1      0.0000000      2.7160000     10.8620000      2.7160000
     53     53      1      0.0000000      4.0730000     12.2200000      4.0730000
     54     54      1      0.0000000      1.3580000     12.2200000      1.3580000
     55     55      1      0.0000000      1.3580000     14.9350000      4.0730000
     56     56      1      0.0000000      4.0730000     14.9350000      1.3580000
     57     57      1      0.0000000      0.0000000     10.8620000      5.4310000
     58     58      1      0.0000000      0.0000000     13.5780000      8.1460000
     59     59      1      0.0000000      2.7160000     13.5780000      5.4310000
     60     60      1      0.0000000      2.7160000     10.8620000      8.1460000
     61     61      1      0.0000000      4.0730000     12.2200000      9.5040000
     62     62      1      0.0000000      1.3580000     12.2200000      6.7890000
     63     63      1      0.0000000      1.3580000     14.9350000      9.5040000
     64     64      1      0.0000000      4.0730000     14.9350000      6.7890000
     65     65      1      0.0000000      0.0000000     10.8620000     10.8620000
     66     66      1      0.0000000      0.0000000     13.5780000     13.5780000
     67     67      1      0.0000000      2.7160000     13.5780000     10.8620000
     68     68      1      0.0000000      2.7160000     10.8620000     13.5780000
     69     69      1      0.0000000      4.0730000     12.2200000     14.9350000
     70     70      1      0.0000000      1.3580000     12.2200000     12.2200000
     71     71      1      0.0000000      1.3580000     14.9350000     14.9350000
     72     72      1      0.0000000      4.0730000     14.9350000     12.2200000
     73     73      1      0.0000000      5.4310000      0.0000000      0.0000000
     74     74      1      0.0000000      5.4310000      2.7160000      2.7160000
     75     75      1      0.0000000      8.1460000      2.7160000      0.0000000
     76     76      1      0.0000000      8.1460000      0.0000000      2.7160000
     77     77      1      0.0000000      9.5040000      1.3580000      4.0730000
     78     78      1      0.0000000      6.7890000      1.3580000      1.3580000
     79     79      1      0.0000000      6.7890000      4.0730000      4.0730000
     80     80      1      0.0000000      9.5040000      4.0730000      1.3580000
     81     81      1      0.0000000      5.4310000      0.0000000      5.4310000
     82     82      1      0.0000000      5.4310000      2.7160000      8.1460000
     83     83      1      0.0000000      8.1460000      2.7160000      5.4310000
     84     84      1      0.0000000      8.1460000      0.0000000      8.1460000
     85     85      1      0.0000000      9.5040000      1.3580000      9.5040000
     86     86      1      0.0000000      6.7890000      1.3580000      6.7890000
     87     87      1      0.0000000      6.7890000      4.0730000      9.5040000
     88     88      1      0.0000000      9.5040000      4.0730000      6.7890000
     89     89      1      0.0000000      5.4310000      0.0000000     10.8620000
     90     90      1      0.0000000      5.4310000      2.7160000     13.5780000
     91     91      1      0.0000000      8.1460000      2.7160000     10.8620000
     92     92      1      0.0000000      8.1460000      0.0000000     13.5780000
     93     93      1      0.0000000      9.5040000      1.3580000     14.9350000
     94     94      1      0.0000000      6.7890000      1.3580000     12.2200000
     95     95      1      0.0000000      6.7890000      4.0730000     14.9350000
     96     96      1      0.0000000      9.5040000      4.0730000     12.2200000
     97     97      1      0.0000000      5.4310000      5.4310000      0.0000000
     98     98      1      0.0000000      5.4310000      8.1460000      2.7160000
     99     99      1      0.0000000      8.1460000      8.1460000      0.0000000
    100    100      1      0.0000000      8.1460000      5.4310000      2.7160000
    101    101      1      0.0000000      9.5040000      6.7890000      4.0730000
    102    102      1      0.0000000      6.7890000      6.7890000      1.3580000
    103    103      1      0.0000000      6.7890000      9.5040000      4.0730000
    104    104      1      0.0000000      9.5040000      9.5040000      1.3580000
    105    105      1      0.0000000      5.4310000      5.4310000      5.4310000
    106    106      1      0.0000000      5.4310000      8.1460000      8.1460000
    107    107      1      0.0000000      8.1460000      8.1460000      5.4310000
    108    108      1      0.0000000      8.1460000      5.4310000      8.1460000
    109    109      1      0.0000000      9.5040000      6.7890000      9.5040000
    110    110      1      0.0000000      6.7890000      6.7890000      6.7890000
    111    111      1      0.0000000      6.7890000      9.5040000      9.5040000
    112    112      1      0.0000000      9.5040000      9.5040000      6.7890000
    113    113      1      0.0000000      5.4310000      5.4310000     10.8620000
    114    114      1      0.0000000      5.4310000      8.1460000     13.5780000
    115    115      1      0.0000000      8.1460000      8.1460000     10.8620000
    116    116      1      0.0000000      8.1460000      5.4310000     13.5780000
    117    117      1      0.0000000      9.5040000      6.7890000     14.9350000
    118    118      1      0.0000000      6.7890000      6.7890000     12.2200000
    119    119      1      0.0000000      6.7890000      9.5040000     14.9350000
    120    120      1      0.0000000      9.5040000      9.5040000     12.2200000
    121    121      1      0.0000000      5.4310000     10.8620000      0.0000000
    122    122      1      0.0000000      5.4310000     13.5780000      2.7160000
    123    123      1      0.0000000      8.1460000     13.5780000      0.0000000
    124    124      1      0.0000000      8.1460000     10.8620000      2.7160000
    125    125      1      0.0000000      9.5040000     12.2200000      4.0730000
    126    126      1      0.0000000      6.7890000     12.2200000      1.3580000
    127    127      1      0.0000000      6.7890000     14.9350000      4.0730000
    128    128      1      0.0000000      9.5040000     14.9350000      1.3580000
    129    129      1      0.0000000      5.4310000     10.8620000      5.4310000
    130    130      1      0.0000000      5.4310000     13.5780000      8.1460000
    131    131      1      0.0000000      8.1460000     13.5780000      5.4310000
    132    132      1      0.0000000      8.1460000     10.8620000      8.1460000
    133    133      1      0.0000000      9.5040000     12.2200000      9.5040000
    134    134      1      0.0000000      6.7890000     12.2200000      6.7890000
    135    135      1      0.0000000      6.7890000     14.9350000      9.5040000
    136    136      1      0.0000000      9.5040000     14.9350000      6.7890000
    137    137      1      0.0000000      5.4310000     10.8620000     10.8620000
    138    138      1      0.0000000      5.4310000     13.5780000     13.5780000
    139    139      1      0.0000000      8.1460000     13.5780000     10.8620000
    140    140      1      0.0000000      8.1460000     10.8620000     13.5780000
    141    141      1      0.0000000      9.5040000     12.2200000     14.9350000
    142    142      1      0.0000000      6.7890000     12.2200000     12.2200000
    143    143      1      0.0000000      6.7890000     14.9350000     14.9350000
    144    144      1      0.0000000      9.5040000     14.9350000     12.2200000
    145    145      1      0.0000000     10.8620000      0.0000000      0.0000000
    146    146      1      0.0000000     10.8620000      2.7160000      2.7160000
    147    147      1      0.0000000     13.5780000      2.7160000      0.0000000
    148    148      1      0.0000000     13.5780000      0.0000000      2.7160000
    149    149      1      0.0000000     14.9350000      1.3580000      4.0730000
    150    150      1      0.0000000     12.2200000      1.3580000      1.3580000
    151    151      1      0.0000000     12.2200000      4.0730000      4.0730000
    152    152      1      0.0000000     14.9350000      4.0730000      1.3580000
    153    153      1      0.0000000     10.8620000      0.0000000      5.4310000
    154    154      1      0.0000000     10.8620000      2.7160000      8.1460000
    155    155      1      0.0000000     13.5780000      2.7160000      5.4310000
    156    156      1      0.0000000     13.5780000      0.0000000      8.1460000
    157    157      1      0.0000000     14.9350000      1.3580000      9.5040000
    158    158      1      0.0000000     12.2200000      1.3580000      6.7890000
    159    159      1      0.0000000     12.2200000      4.0730000      9.5040000
    160    160      1      0.0000000     14.9350000      4.0730000      6.7890000
    161    161      1      0.0000000     10.8620000      0.0000000     10.8620000
    162    162      1      0.0000000     10.8620000      2.7160000     13.5780000
    163    163      1      0.0000000     13.5780000      2.7160000     10.8620000
    164    164      1      0.0000000     13.5780000      0.0000000     13.5780000
    165    165      1      0.0000000     14.9350000      1.3580000     14.9350000
    166    166      1      0.0000000     12.2200000      1.3580000     12.2200000
    167    167      1      0.0000000     12.2200000      4.0730000     14.9350000
    168    168      1      0.0000000     14.9350000      4.0730000     12.2200000
    169    169      1      0.0000000     10.8620000      5.4310000      0.0000000
    170    170      1      0.0000000     10.8620000      8.1460000      2.7160000
    171    171      1      0.0000000     13.5780000      8.1460000      0.0000000
    172    172      1      0.0000000     13.5780000      5.4310000      2.7160000
    173    173      1      0.0000000     14.9350000      6.7890000      4.0730000
    174    174      1      0.0000000     12.2200000      6.7890000      1.3580000
    175    175      1      0.0000000     12.2200000      9.5040000      4.0730000
    176    176      1      0.0000000     14.9350000      9.5040000      1.3580000
    177    177      1      0.0000000     10.8620000      5.4310000      5.4310000
    178    178      1      0.0000000     10.8620000      8.1460000      8.1460000
    179    179      1      0.0000000     13.5780000      8.1460000      5.4310000
    180    180      1      0.0000000     13.5780000      5.4310000      8.1460000
    181    181      1      0.0000000     14.9350000      6.7890000      9.5040000
    182    182      1      0.0000000     12.2200000      6.7890000      6.7890000
    183    183      1      0.0000000     12.2200000      9.5040000      9.5040000
    184    184      1      0.0000000     14.9350000      9.5040000      6.7890000
    185    185      1      0.0000000     10.8620000      5.4310000     10.8620000
    186    186      1      0.0000000     10.8620000      8.1460000     13.5780000
    187    187      1      0.0000000     13.5780000      8.1460000     10.8620000
    188    188      1      0.0000000     13.5780000      5.4310000     13.5780000
    189    189      1      0.0000000     14.9350000      6.7890000     14.9350000
    190    190      1      0.0000000     12.2200000      6.7890000     12.2200000
    191    191      1      0.0000000     12.2200000      9.5040000     14.9350000
    192    192      1      0.0000000     14.9350000      9.5040000     12.2200000
    193    193      1      0.0000000     10.8620000     10.8620000      0.0000000
    194    194      1      0.0000000     10.8620000     13.5780000      2.7160000
    195    195      1      0.0000000     13.5780000     13.5780000      0.0000000
    196    196      1      0.0000000     13.5780000     10.8620000      2.7160000
    197    197      1      0.0000000     14.9350000     12.2200000      4.0730000
    198    198      1      0.0000000     12.2200000     12.2200000      1.3580000
    199    199      1      0.0000000     12.2200000     14.9350000      4.0730000
    200    200      1      0.0000000     14.9350000     14.9350000      1.3580000
    201    201      1      0.0000000     10.8620000     10.8620000      5.4310000
    202    202      1      0.0000000     10.8620000     13.5780000      8.1460000
    203    203      1      0.0000000     13.5780000     13.5780000      5.4310000
    204    204      1      0.0000000     13.5780000     10.8620000      8.1460000
    205    205      1      0.0000000     14.9350000     12.2200000      9.5040000
    206    206      1      0.0000000     12.2200000     12.2200000      6.7890000
    207    207      1      0.0000000     12.2200000     14.9350000      9.5040000
    208    208      1      0.0000000     14.9350000     14.9350000      6.7890000
    209    209      1      0.0000000     10.8620000     10.8620000     10.8620000
    210    210      1      0.0000000     10.8620000     13.5780000     13.5780000
    211    211      1      0.0000000     13.5780000     13.5780000     10.8620000
    212    212      1      0.0000000     13.5780000     10.8620000     13.5780000
    213    213      1      0.0000000     14.9350000     12.2200000     14.9350000
    214    214      1      0.0000000     12.2200000     12.2200000     12.2200000
    215    215      1      0.0000000     12.2200000     14.9350000     14.9350000
    216    216      1      0.0000000     14.9350000     14.9350000     12.2200000

