LAMMPS (27 May 2021)
variable number	equal 2
variable ofreq	equal 1000
variable efreq	equal 1000
variable T      equal 0.1

units lj

dimension 3

newton off

boundary  p p p

atom_style hybrid bond ellipsoid oxdna
WARNING: Atom style hybrid defines both, per-type and per-atom masses; both must be set, but only per-atom masses will be used (../atom_vec_hybrid.cpp:157)
atom_modify sort 0 1.0

# Pair interactions require lists of neighbours to be calculated
neighbor 2.0 bin
neigh_modify every 1 delay 0 check yes

read_data data.duplex2
Reading data file ...
  orthogonal box = (-20.000000 -20.000000 -20.000000) to (20.000000 20.000000 20.000000)
  1 by 2 by 2 MPI processor grid
  reading atoms ...
  16 atoms
  reading velocities ...
  16 velocities
  scanning bonds ...
  2 = max bonds/atom
  16 ellipsoids
  reading bonds ...
Setting oxDNA 3'->5' bond directionality ...
  13 bonds
Finding 1-2 1-3 1-4 neighbors ...
  special bond factors lj:    0        0        0       
  special bond factors coul:  0        0        0       
     2 = max # of 1-2 neighbors
     2 = max # of 1-3 neighbors
     4 = max # of 1-4 neighbors
     6 = max # of special neighbors
  special bonds CPU = 0.001 seconds
  read_data CPU = 0.005 seconds

set atom * mass 3.1575
Setting atom values ...
  16 settings made for mass

group all type 1 4
16 atoms in group all

# oxDNA bond interactions - FENE backbone
bond_style oxdna/fene
bond_coeff * 2.0 0.25 0.7525
special_bonds lj 0 1 1
Finding 1-2 1-3 1-4 neighbors ...
  special bond factors lj:    0        1        1       
  special bond factors coul:  0        0        0       
     2 = max # of 1-2 neighbors
     2 = max # of 1-3 neighbors
     4 = max # of 1-4 neighbors
     6 = max # of special neighbors
  special bonds CPU = 0.000 seconds

# oxDNA pair interactions
pair_style hybrid/overlay oxdna/excv oxdna/stk oxdna/hbond oxdna/xstk oxdna/coaxstk
pair_coeff * * oxdna/excv    2.0 0.7 0.675 2.0 0.515 0.5 2.0 0.33 0.32
pair_coeff * * oxdna/stk     seqav ${T} 1.3448 2.6568 6.0 0.4 0.9 0.32 0.75 1.3 0 0.8 0.9 0 0.95 0.9 0 0.95 2.0 0.65 2.0 0.65
pair_coeff * * oxdna/stk     seqav 0.1 1.3448 2.6568 6.0 0.4 0.9 0.32 0.75 1.3 0 0.8 0.9 0 0.95 0.9 0 0.95 2.0 0.65 2.0 0.65
pair_coeff * * oxdna/hbond   seqav 0.0   8.0 0.4 0.75 0.34 0.7 1.5 0 0.7 1.5 0 0.7 1.5 0 0.7 0.46 3.141592653589793 0.7 4.0 1.5707963267948966 0.45 4.0 1.5707963267948966 0.45
pair_coeff 1 4 oxdna/hbond   seqav 1.077 8.0 0.4 0.75 0.34 0.7 1.5 0 0.7 1.5 0 0.7 1.5 0 0.7 0.46 3.141592653589793 0.7 4.0 1.5707963267948966 0.45 4.0 1.5707963267948966 0.45
pair_coeff 2 3 oxdna/hbond   seqav 1.077 8.0 0.4 0.75 0.34 0.7 1.5 0 0.7 1.5 0 0.7 1.5 0 0.7 0.46 3.141592653589793 0.7 4.0 1.5707963267948966 0.45 4.0 1.5707963267948966 0.45
pair_coeff * * oxdna/xstk    47.5 0.575 0.675 0.495 0.655 2.25 0.791592653589793 0.58 1.7 1.0 0.68 1.7 1.0 0.68 1.5 0 0.65 1.7 0.875 0.68 1.7 0.875 0.68
pair_coeff * * oxdna/coaxstk 46.0 0.4 0.6 0.22 0.58 2.0 2.541592653589793 0.65 1.3 0 0.8 0.9 0 0.95 0.9 0 0.95 2.0 -0.65 2.0 -0.65

# NVE ensemble
fix 1 all nve/asphere
fix 2 all langevin ${T} ${T} 2.5 457145 angmom 10
fix 2 all langevin 0.1 ${T} 2.5 457145 angmom 10
fix 2 all langevin 0.1 0.1 2.5 457145 angmom 10

timestep 1e-5

#comm_style tiled
fix 3 all balance 1000 1.03 shift xyz 10 1.03
comm_modify cutoff 3.8

compute quat all property/atom quatw quati quatj quatk

compute erot all erotate/asphere
compute ekin all ke
compute epot all pe
variable erot equal c_erot
variable ekin equal c_ekin
variable epot equal c_epot
variable etot equal c_erot+c_ekin+c_epot
fix 5 all print ${efreq} "$(step)  ekin = ${ekin} |  erot = ${erot} | epot = ${epot} | etot = ${etot}" screen yes
fix 5 all print 1000 "$(step)  ekin = ${ekin} |  erot = ${erot} | epot = ${epot} | etot = ${etot}" screen yes

dump out all custom ${ofreq} out.${number}.lammpstrj id mol type x y z ix iy iz vx vy vz c_quat[1] c_quat[2] c_quat[3] c_quat[4] angmomx angmomy angmomz
dump out all custom 1000 out.${number}.lammpstrj id mol type x y z ix iy iz vx vy vz c_quat[1] c_quat[2] c_quat[3] c_quat[4] angmomx angmomy angmomz
dump out all custom 1000 out.2.lammpstrj id mol type x y z ix iy iz vx vy vz c_quat[1] c_quat[2] c_quat[3] c_quat[4] angmomx angmomy angmomz
dump_modify out sort id
dump_modify out format line "%d %d %d  %22.15le %22.15le %22.15le  %d %d %d  %22.15le %22.15le %22.15le  %22.15le %22.15le %22.15le %22.15le  %22.15le %22.15le %22.15le"

run 1000000
Neighbor list info ...
  update every 1 steps, delay 0 steps, check yes
  max neighbors/atom: 2000, page size: 100000
  master list distance cutoff = 2.9560004
  ghost atom cutoff = 3.8
  binsize = 1.4780002, bins = 28 28 28
  4 neighbor lists, perpetual/occasional/extra = 4 0 0
  (1) pair oxdna/excv, perpetual
      attributes: half, newton off
      pair build: half/bin/newtoff
      stencil: full/bin/3d
      bin: standard
  (2) pair oxdna/hbond, perpetual, copy from (1)
      attributes: half, newton off
      pair build: copy
      stencil: none
      bin: none
  (3) pair oxdna/xstk, perpetual, copy from (1)
      attributes: half, newton off
      pair build: copy
      stencil: none
      bin: none
  (4) pair oxdna/coaxstk, perpetual, copy from (1)
      attributes: half, newton off
      pair build: copy
      stencil: none
      bin: none
0  ekin = 2.70475393009871 |  erot = 2.80172072918779 | epot = -21.9967648054699 | etot = -16.4902901461834
Per MPI rank memory allocation (min/avg/max) = 9.234 | 9.266 | 9.346 Mbytes
Step Temp E_pair E_mol TotEng Press Volume 
       0   0.12021129   -1.3914531  0.016655298   -1.2057507 5.174549e-05        64000 
1000  ekin = 2.69992875879531 |  erot = 3.03905971783101 | epot = -21.7993424099171 | etot = -16.0603539332907
2000  ekin = 2.74236013741186 |  erot = 2.48566425489664 | epot = -21.5864392778805 | etot = -16.358414885572
3000  ekin = 2.71406239909253 |  erot = 2.2379964617931 | epot = -21.4096440189505 | etot = -16.4575851580649
4000  ekin = 2.62654210651837 |  erot = 2.20187014105975 | epot = -21.2649637920051 | etot = -16.436551544427
5000  ekin = 2.54619704507767 |  erot = 2.19543579497861 | epot = -21.1625272503904 | etot = -16.4208944103341
6000  ekin = 2.54036074498671 |  erot = 2.24575383349946 | epot = -21.1026949544699 | etot = -16.3165803759837
7000  ekin = 2.54636725719323 |  erot = 2.17480262107778 | epot = -21.0944608538479 | etot = -16.3732909755769
8000  ekin = 2.44266194745413 |  erot = 1.89959276882142 | epot = -21.1290547630673 | etot = -16.7868000467917
9000  ekin = 2.49849768578547 |  erot = 1.91590827145359 | epot = -21.2010010008038 | etot = -16.7865950435648
10000  ekin = 2.60405521154315 |  erot = 2.31942457678919 | epot = -21.2714985323704 | etot = -16.3480187440381
11000  ekin = 2.5172962682744 |  erot = 2.60159361363173 | epot = -21.3305509557369 | etot = -16.2116610738307
12000  ekin = 2.52572671978709 |  erot = 2.38660744367414 | epot = -21.4045010372609 | etot = -16.4921668737997
13000  ekin = 2.6003507735884 |  erot = 2.37491144376807 | epot = -21.501501753381 | etot = -16.5262395360245
14000  ekin = 2.66935763609377 |  erot = 2.2290243859921 | epot = -21.5988036534075 | etot = -16.7004216313217
15000  ekin = 2.71551281751846 |  erot = 2.21389248221188 | epot = -21.6990132370777 | etot = -16.7696079373473
16000  ekin = 2.84978299090937 |  erot = 2.43940966993627 | epot = -21.7959192679746 | etot = -16.506726607129
17000  ekin = 2.95072779743506 |  erot = 2.38947543725573 | epot = -21.8722593940791 | etot = -16.5320561593883
18000  ekin = 2.85884496438632 |  erot = 2.37101194861282 | epot = -21.9018380946368 | etot = -16.6719811816377
19000  ekin = 2.77343461594057 |  erot = 2.33973079907437 | epot = -21.8809702826778 | etot = -16.7678048676628
20000  ekin = 2.58401274142392 |  erot = 2.55272418280185 | epot = -21.8165314333067 | etot = -16.6797945090809
21000  ekin = 2.51192366343057 |  erot = 2.51457779660485 | epot = -21.7320362651687 | etot = -16.7055348051333
22000  ekin = 2.49083859662961 |  erot = 2.52955288592737 | epot = -21.6292667596242 | etot = -16.6088752770672
23000  ekin = 2.39128650481513 |  erot = 2.2075391744556 | epot = -21.5149142799636 | etot = -16.9160886006929
24000  ekin = 2.35988329046224 |  erot = 1.90440982269664 | epot = -21.4005066979857 | etot = -17.1362135848268
25000  ekin = 2.28215741570372 |  erot = 1.96977905366573 | epot = -21.3141881001702 | etot = -17.0622516308008
26000  ekin = 2.19749762241961 |  erot = 2.27833647039548 | epot = -21.2634725733341 | etot = -16.787638480519
27000  ekin = 2.0082587505888 |  erot = 2.19976409135109 | epot = -21.2659284236731 | etot = -17.0579055817332
28000  ekin = 1.84164368193045 |  erot = 2.29604978886231 | epot = -21.2913487545158 | etot = -17.1536552837231
29000  ekin = 1.85165645974806 |  erot = 2.13163577617279 | epot = -21.3636874932622 | etot = -17.3803952573414
30000  ekin = 1.81585331071777 |  erot = 2.36969485723283 | epot = -21.467249508595 | etot = -17.2817013406444
31000  ekin = 1.87586085382615 |  erot = 2.30099083087637 | epot = -21.6118799895371 | etot = -17.4350283048345
32000  ekin = 2.0126641738456 |  erot = 2.39241064946061 | epot = -21.7843461993917 | etot = -17.3792713760855
33000  ekin = 2.10031097060265 |  erot = 2.65484725731943 | epot = -21.9744733587442 | etot = -17.2193151308221
34000  ekin = 2.024661815622 |  erot = 2.84373149584293 | epot = -22.1941262603322 | etot = -17.3257329488672
35000  ekin = 1.97481459340815 |  erot = 3.01731663707887 | epot = -22.4189097716657 | etot = -17.4267785411787
36000  ekin = 2.01233253730946 |  erot = 2.91764073203603 | epot = -22.6202547427807 | etot = -17.6902814734353
37000  ekin = 2.0722585098004 |  erot = 3.06834431569986 | epot = -22.8024087727697 | etot = -17.6618059472694
38000  ekin = 2.05378795549781 |  erot = 3.03638675352696 | epot = -22.9460226281608 | etot = -17.855847919136
39000  ekin = 2.06863065757199 |  erot = 3.09515376672991 | epot = -23.0335342083505 | etot = -17.8697497840486
40000  ekin = 2.0001441529857 |  erot = 3.04584432430145 | epot = -23.0612280460054 | etot = -18.0152395687182
41000  ekin = 2.05172104966416 |  erot = 2.77830340889752 | epot = -23.0196796418278 | etot = -18.1896551832662
42000  ekin = 2.05229847533165 |  erot = 2.8527334853463 | epot = -22.9340198298526 | etot = -18.0289878691746
43000  ekin = 1.93755805481289 |  erot = 3.04650513325785 | epot = -22.8209174452141 | etot = -17.8368542571433
44000  ekin = 1.84663697745676 |  erot = 2.93951969808346 | epot = -22.7031673178542 | etot = -17.917010642314
45000  ekin = 1.72975781399546 |  erot = 2.60801842461352 | epot = -22.6010710155898 | etot = -18.2632947769808
46000  ekin = 1.59186632906643 |  erot = 2.62841769679505 | epot = -22.5067814781869 | etot = -18.2864974523254
47000  ekin = 1.5410922886755 |  erot = 2.65380906308325 | epot = -22.41397412102 | etot = -18.2190727692612
48000  ekin = 1.52801508900137 |  erot = 2.56168528383553 | epot = -22.3146405234589 | etot = -18.224940150622
49000  ekin = 1.4523614750721 |  erot = 2.19683353122206 | epot = -22.2336496311394 | etot = -18.5844546248453
50000  ekin = 1.37133529115918 |  erot = 2.38139075376808 | epot = -22.1777849612816 | etot = -18.4250589163544
51000  ekin = 1.37894610429121 |  erot = 2.5564395559548 | epot = -22.1214711763547 | etot = -18.1860855161087
52000  ekin = 1.37307011220265 |  erot = 2.64858735385409 | epot = -22.0854715362776 | etot = -18.0638140702208
53000  ekin = 1.45140505120431 |  erot = 2.86325966198758 | epot = -22.0769774994392 | etot = -17.7623127862474
54000  ekin = 1.49400380215143 |  erot = 3.02929024277169 | epot = -22.0888809603766 | etot = -17.5655869154535
55000  ekin = 1.5504040486075 |  erot = 2.51182875106827 | epot = -22.110508190484 | etot = -18.0482753908083
56000  ekin = 1.49109168917169 |  erot = 2.54803153869041 | epot = -22.1366154026192 | etot = -18.0974921747571
57000  ekin = 1.5005013791342 |  erot = 2.41737584414207 | epot = -22.1821202184232 | etot = -18.2642429951469
58000  ekin = 1.60635589846632 |  erot = 2.23996961758236 | epot = -22.2360694135127 | etot = -18.3897438974641
59000  ekin = 1.72952597734783 |  erot = 2.32633058396655 | epot = -22.2901578024363 | etot = -18.2343012411219
60000  ekin = 1.69244797185252 |  erot = 2.4002780727951 | epot = -22.3434040927657 | etot = -18.2506780481181
61000  ekin = 1.7262070303266 |  erot = 2.11017860160475 | epot = -22.3831797154274 | etot = -18.5467940834961
62000  ekin = 1.79594241743972 |  erot = 2.2156083769556 | epot = -22.4218397438853 | etot = -18.4102889494899
63000  ekin = 1.77262742266278 |  erot = 2.30422369990038 | epot = -22.4467748467828 | etot = -18.3699237242196
64000  ekin = 1.8552728361909 |  erot = 2.31267811362978 | epot = -22.4674777591492 | etot = -18.2995268093286
65000  ekin = 1.78989203446876 |  erot = 1.94802383598257 | epot = -22.4675168623456 | etot = -18.7296009918943
66000  ekin = 1.77252597290744 |  erot = 1.82642026775557 | epot = -22.4502267764221 | etot = -18.8512805357591
67000  ekin = 1.80939758337873 |  erot = 1.93052561353104 | epot = -22.4407582644841 | etot = -18.7008350675743
68000  ekin = 1.8990812176376 |  erot = 2.02160808150966 | epot = -22.4404733275274 | etot = -18.5197840283801
69000  ekin = 1.91605115497139 |  erot = 1.99686686402569 | epot = -22.4556690038854 | etot = -18.5427509848883
70000  ekin = 1.97266986208223 |  erot = 1.99525089575643 | epot = -22.4717127742739 | etot = -18.5037920164352
71000  ekin = 2.00234841846529 |  erot = 2.03963009556284 | epot = -22.4872545087286 | etot = -18.4452759947004
72000  ekin = 2.04989413571926 |  erot = 2.25125712690087 | epot = -22.5010508598362 | etot = -18.1998995972161
73000  ekin = 1.96796663525087 |  erot = 2.56091060599057 | epot = -22.5094020746157 | etot = -17.9805248333743
74000  ekin = 1.94071763184335 |  erot = 2.25118509796053 | epot = -22.4905641504115 | etot = -18.2986614206077
75000  ekin = 1.9046477605406 |  erot = 2.1101828610624 | epot = -22.4609449840085 | etot = -18.4461143624055
76000  ekin = 1.96940901357875 |  erot = 2.01632288693257 | epot = -22.4274745611142 | etot = -18.4417426606029
77000  ekin = 1.94486767834818 |  erot = 1.90684819966053 | epot = -22.3863373806157 | etot = -18.534621502607
78000  ekin = 1.96983919523053 |  erot = 1.93099842937087 | epot = -22.3443846506838 | etot = -18.4435470260824
79000  ekin = 1.95938649015133 |  erot = 1.8681062699457 | epot = -22.2942796582417 | etot = -18.4667868981447
80000  ekin = 2.0811750227726 |  erot = 1.51004106283058 | epot = -22.2616445282531 | etot = -18.6704284426499
81000  ekin = 2.12565876638706 |  erot = 1.68774361309031 | epot = -22.2503002969457 | etot = -18.4368979174683
82000  ekin = 2.1024876598191 |  erot = 1.68162562422027 | epot = -22.2731769674722 | etot = -18.4890636834328
83000  ekin = 2.1444849861566 |  erot = 1.81975712217529 | epot = -22.3046718958779 | etot = -18.340429787546
84000  ekin = 2.13258101148062 |  erot = 2.02922410781373 | epot = -22.3428808393217 | etot = -18.1810757200273
85000  ekin = 2.08512493333097 |  erot = 2.32083438054857 | epot = -22.3826539010023 | etot = -17.9766945871228
86000  ekin = 2.17050776391446 |  erot = 1.96275338625836 | epot = -22.422434182694 | etot = -18.2891730325212
87000  ekin = 2.23989852600904 |  erot = 2.23705181642096 | epot = -22.4705294491957 | etot = -17.9935791067657
88000  ekin = 2.27467140557798 |  erot = 2.15326395377648 | epot = -22.5135609707118 | etot = -18.0856256113573
89000  ekin = 2.2884388908289 |  erot = 2.12736799131715 | epot = -22.5645528135013 | etot = -18.1487459313552
90000  ekin = 2.3033272403237 |  erot = 2.29619358357564 | epot = -22.621069415243 | etot = -18.0215485913436
91000  ekin = 2.3138100848518 |  erot = 2.07740016205563 | epot = -22.6563472804759 | etot = -18.2651370335684
92000  ekin = 2.37378013130099 |  erot = 2.23716627480822 | epot = -22.6690655261851 | etot = -18.0581191200759
93000  ekin = 2.26456629794217 |  erot = 2.65755706511364 | epot = -22.6595495475479 | etot = -17.7374261844921
94000  ekin = 2.27111991294101 |  erot = 2.70843483649348 | epot = -22.6144390606054 | etot = -17.6348843111709
95000  ekin = 2.16051509784257 |  erot = 2.76861411098527 | epot = -22.5458959635298 | etot = -17.616766754702
96000  ekin = 2.1362268433284 |  erot = 3.00618377960114 | epot = -22.4457322783083 | etot = -17.3033216553787
97000  ekin = 2.07419989457636 |  erot = 2.65264916199277 | epot = -22.3153975468029 | etot = -17.5885484902338
98000  ekin = 2.11485220649783 |  erot = 2.62887211771617 | epot = -22.2055031918166 | etot = -17.4617788676026
99000  ekin = 2.14284693208913 |  erot = 2.66222856414638 | epot = -22.1106632337977 | etot = -17.3055877375622
100000  ekin = 2.17308341836636 |  erot = 2.09482283074188 | epot = -22.0437085040349 | etot = -17.7758022549266
101000  ekin = 2.14866231805612 |  erot = 2.3881976475087 | epot = -22.0122713210887 | etot = -17.4754113555239
102000  ekin = 2.1649362923898 |  erot = 2.64896606924408 | epot = -22.0210513992314 | etot = -17.2071490375976
103000  ekin = 2.15114511690188 |  erot = 2.56525012972741 | epot = -22.0652696455725 | etot = -17.3488743989432
104000  ekin = 2.15671515638217 |  erot = 2.62706983245371 | epot = -22.142181166657 | etot = -17.3583961778211
105000  ekin = 2.12719541152379 |  erot = 2.65706885533819 | epot = -22.2143972740325 | etot = -17.4301330071705
106000  ekin = 2.13774707721056 |  erot = 2.76654607800848 | epot = -22.2775634673613 | etot = -17.3732703121422
107000  ekin = 2.20102004108532 |  erot = 2.66823836970966 | epot = -22.3043515122749 | etot = -17.4350931014799
108000  ekin = 2.17638500145526 |  erot = 2.80828381708582 | epot = -22.3097186034589 | etot = -17.3250497849178
109000  ekin = 2.19829684637003 |  erot = 2.90666104596412 | epot = -22.282790113145 | etot = -17.1778322208108
110000  ekin = 2.17152588755631 |  erot = 2.81646086297862 | epot = -22.2246380567944 | etot = -17.2366513062595
111000  ekin = 2.15373436462637 |  erot = 2.45540077609876 | epot = -22.1236900284647 | etot = -17.5145548877395
112000  ekin = 2.13686027678985 |  erot = 2.53611388444162 | epot = -21.9714471685636 | etot = -17.2984730073321
113000  ekin = 2.14753928432329 |  erot = 2.38847611973764 | epot = -21.7866419003017 | etot = -17.2506264962408
114000  ekin = 2.12631244931889 |  erot = 2.25317215555341 | epot = -21.597846256073 | etot = -17.2183616512007
115000  ekin = 2.10651342910361 |  erot = 2.32111327425019 | epot = -21.410641403265 | etot = -16.9830146999112
116000  ekin = 2.05857214689192 |  erot = 2.34273379327714 | epot = -21.2543641951759 | etot = -16.8530582550068
117000  ekin = 2.06082171760153 |  erot = 2.29311267774743 | epot = -21.1252553707804 | etot = -16.7713209754314
118000  ekin = 2.07134223704072 |  erot = 2.26440570108468 | epot = -21.0201100762215 | etot = -16.6843621380961
119000  ekin = 2.06457225589944 |  erot = 1.93952258456726 | epot = -20.9769994108551 | etot = -16.9729045703884
120000  ekin = 2.11859853404644 |  erot = 1.85164657615887 | epot = -20.9836901114861 | etot = -17.0134450012808
121000  ekin = 2.16647853751432 |  erot = 2.33645973353314 | epot = -21.0297394121119 | etot = -16.5268011410645
122000  ekin = 2.26904266267134 |  erot = 2.41049986821532 | epot = -21.1056070652399 | etot = -16.4260645343533
123000  ekin = 2.21420535468727 |  erot = 2.31638894325139 | epot = -21.1806353306487 | etot = -16.65004103271
124000  ekin = 2.25664202990655 |  erot = 2.58640626588698 | epot = -21.2735600007685 | etot = -16.430511704975
125000  ekin = 2.28621615469871 |  erot = 2.48741243437901 | epot = -21.3367034039803 | etot = -16.5630748149025
126000  ekin = 2.35529670025454 |  erot = 2.6837186250083 | epot = -21.3743088823659 | etot = -16.3352935571031
127000  ekin = 2.31727265883063 |  erot = 2.65927495810814 | epot = -21.3864411166439 | etot = -16.4098934997051
128000  ekin = 2.43349491835552 |  erot = 2.48790131465765 | epot = -21.3667639128876 | etot = -16.4453676798745
129000  ekin = 2.39675815548546 |  erot = 2.10710860946288 | epot = -21.3539228728259 | etot = -16.8500561078776
130000  ekin = 2.41755439047179 |  erot = 1.81077952884569 | epot = -21.3548853564729 | etot = -17.1265514371554
131000  ekin = 2.40648552369042 |  erot = 1.77591735253046 | epot = -21.357420397669 | etot = -17.1750175214481
132000  ekin = 2.40897764408259 |  erot = 1.73059846772819 | epot = -21.3537520189403 | etot = -17.2141759071295
133000  ekin = 2.37448540151599 |  erot = 1.85880466212908 | epot = -21.3533218886589 | etot = -17.1200318250139
134000  ekin = 2.3579677683218 |  erot = 2.06779644045359 | epot = -21.3551168402505 | etot = -16.9293526314751
135000  ekin = 2.32265431042311 |  erot = 2.18050776639558 | epot = -21.3445924581616 | etot = -16.8414303813429
136000  ekin = 2.26143919660737 |  erot = 2.06564627363215 | epot = -21.3331599119329 | etot = -17.0060744416934
137000  ekin = 2.23396906090401 |  erot = 2.26473864092839 | epot = -21.3170510126768 | etot = -16.8183433108444
138000  ekin = 2.25323790872614 |  erot = 2.21298196842978 | epot = -21.3256388087683 | etot = -16.8594189316124
139000  ekin = 2.35354475362117 |  erot = 2.11114514997112 | epot = -21.4066516687638 | etot = -16.9419617651715
140000  ekin = 2.31521381923616 |  erot = 2.26671366611819 | epot = -21.499592330951 | etot = -16.9176648455967
141000  ekin = 2.3344689024326 |  erot = 2.24585605770329 | epot = -21.5117862025252 | etot = -16.9314612423893
142000  ekin = 2.33661695709296 |  erot = 1.9937796333313 | epot = -21.5249788887692 | etot = -17.194582298345
143000  ekin = 2.35917698394981 |  erot = 1.78177229585739 | epot = -21.5633348907868 | etot = -17.4223856109796
144000  ekin = 2.41193656560918 |  erot = 1.85068539007334 | epot = -21.619056918118 | etot = -17.3564349624355
145000  ekin = 2.50328391189512 |  erot = 1.97991868781718 | epot = -21.662761532947 | etot = -17.1795589332347
146000  ekin = 2.5250108653161 |  erot = 1.94890179310183 | epot = -21.7158596570763 | etot = -17.2419469986583
147000  ekin = 2.55047937715164 |  erot = 1.85137728928148 | epot = -21.7917365034045 | etot = -17.3898798369714
148000  ekin = 2.52990172449131 |  erot = 2.00218673263755 | epot = -21.8973033212464 | etot = -17.3652148641175
149000  ekin = 2.47322709286655 |  erot = 2.00142069560524 | epot = -22.0256184185784 | etot = -17.5509706301066
150000  ekin = 2.55997956203431 |  erot = 2.04181533809328 | epot = -22.1371239984733 | etot = -17.5353290983457
151000  ekin = 2.44470695881366 |  erot = 2.34031071867532 | epot = -22.2527174105275 | etot = -17.4676997330385
152000  ekin = 2.44475737305755 |  erot = 2.26076754628983 | epot = -22.3351232248324 | etot = -17.6295983054851
153000  ekin = 2.46166206744186 |  erot = 2.1789456139199 | epot = -22.3636879590955 | etot = -17.7230802777338
154000  ekin = 2.49242904735514 |  erot = 2.18959276990457 | epot = -22.3683882355897 | etot = -17.68636641833
155000  ekin = 2.44328722883251 |  erot = 2.13628761933908 | epot = -22.3356925905993 | etot = -17.7561177424278
156000  ekin = 2.45031007040228 |  erot = 2.26271751825021 | epot = -22.2682169791441 | etot = -17.5551893904916
157000  ekin = 2.46907480878159 |  erot = 1.93271915185538 | epot = -22.2160752580763 | etot = -17.8142812974393
158000  ekin = 2.47549100134271 |  erot = 1.8913430375128 | epot = -22.1750861634873 | etot = -17.8082521246318
159000  ekin = 2.44378132199958 |  erot = 1.82517595680759 | epot = -22.1335445885752 | etot = -17.8645873097681
160000  ekin = 2.35644874685036 |  erot = 1.85678861125786 | epot = -22.1078628335995 | etot = -17.8946254754913
161000  ekin = 2.4417535709772 |  erot = 2.14888928050335 | epot = -22.103198749515 | etot = -17.5125558980345
162000  ekin = 2.46554036240857 |  erot = 2.05333880369388 | epot = -22.1046164027322 | etot = -17.5857372366298
163000  ekin = 2.36847802529576 |  erot = 2.16987713772667 | epot = -22.1331210722205 | etot = -17.5947659091981
164000  ekin = 2.31295455944026 |  erot = 2.18879772052573 | epot = -22.1887776544463 | etot = -17.6870253744803
165000  ekin = 2.37278415235397 |  erot = 2.59415671104248 | epot = -22.2691581335389 | etot = -17.3022172701424
166000  ekin = 2.45715177025092 |  erot = 2.91759661846337 | epot = -22.3489659308412 | etot = -16.9742175421269
167000  ekin = 2.52772481698543 |  erot = 2.9570776047498 | epot = -22.4233688575489 | etot = -16.9385664358137
168000  ekin = 2.38117634975369 |  erot = 2.66863240829495 | epot = -22.4863077773177 | etot = -17.4364990192691
169000  ekin = 2.37442003008251 |  erot = 3.02523535510253 | epot = -22.552454463073 | etot = -17.152799077888
170000  ekin = 2.35912346263696 |  erot = 3.26723708493098 | epot = -22.593146241002 | etot = -16.9667856934341
171000  ekin = 2.30318527402304 |  erot = 3.1461628260988 | epot = -22.6090060092427 | etot = -17.1596579091209
172000  ekin = 2.27403162918126 |  erot = 3.03566839385154 | epot = -22.5926818968564 | etot = -17.2829818738236
173000  ekin = 2.2834164296892 |  erot = 3.07205239473261 | epot = -22.5825638558609 | etot = -17.2270950314391
174000  ekin = 2.32458116486048 |  erot = 3.00979281518584 | epot = -22.5948442115046 | etot = -17.2604702314582
175000  ekin = 2.28314539624396 |  erot = 2.68632336807992 | epot = -22.6176552757189 | etot = -17.6481865113951
176000  ekin = 2.39450710620724 |  erot = 2.64107287395718 | epot = -22.666704154903 | etot = -17.6311241747386
177000  ekin = 2.34061737024885 |  erot = 2.84587683178904 | epot = -22.7367147797006 | etot = -17.5502205776627
178000  ekin = 2.37612348031832 |  erot = 3.01155432501134 | epot = -22.8363255725677 | etot = -17.4486477672381
179000  ekin = 2.44543239233026 |  erot = 2.86468226567411 | epot = -22.9489860454759 | etot = -17.6388713874715
180000  ekin = 2.43660202081819 |  erot = 2.76977637853851 | epot = -23.0553980647268 | etot = -17.8490196653701
181000  ekin = 2.48112579799584 |  erot = 2.6278391417024 | epot = -23.1486576952531 | etot = -18.0396927555549
182000  ekin = 2.49495772650969 |  erot = 2.42192837677025 | epot = -23.2214385077914 | etot = -18.3045524045115
183000  ekin = 2.64232135835023 |  erot = 2.1668960319534 | epot = -23.2638526717323 | etot = -18.4546352814286
184000  ekin = 2.60197203740134 |  erot = 2.23382360906442 | epot = -23.2818965049629 | etot = -18.4461008584971
185000  ekin = 2.57711189972532 |  erot = 2.46016697006766 | epot = -23.3003293492567 | etot = -18.2630504794637
186000  ekin = 2.52186177988769 |  erot = 2.57013836767131 | epot = -23.3067390551247 | etot = -18.2147389075657
187000  ekin = 2.50245214010174 |  erot = 2.79417927414277 | epot = -23.296163562981 | etot = -17.9995321487365
188000  ekin = 2.46480838237784 |  erot = 3.04604077517096 | epot = -23.2499789204155 | etot = -17.7391297628667
189000  ekin = 2.30511335916365 |  erot = 2.75740516208191 | epot = -23.1747970843816 | etot = -18.112278563136
190000  ekin = 2.21392698297074 |  erot = 2.71955696974834 | epot = -23.0904117080344 | etot = -18.1569277553154
191000  ekin = 2.16967810266251 |  erot = 2.75919231540811 | epot = -23.0140192997739 | etot = -18.0851488817033
192000  ekin = 1.98382084286039 |  erot = 3.03429574416023 | epot = -22.9329314753771 | etot = -17.9148148883565
193000  ekin = 1.85970667375617 |  erot = 2.92182615510931 | epot = -22.8656246963103 | etot = -18.0840918674448
194000  ekin = 1.7929696680452 |  erot = 2.88349607002168 | epot = -22.8222401649263 | etot = -18.1457744268594
195000  ekin = 1.64582813172132 |  erot = 2.50667314432813 | epot = -22.7522033865826 | etot = -18.5997021105331
196000  ekin = 1.60167277963843 |  erot = 2.38989177939812 | epot = -22.6637097277974 | etot = -18.6721451687609
197000  ekin = 1.71167813407961 |  erot = 2.09589007853646 | epot = -22.5747312796685 | etot = -18.7671630670524
198000  ekin = 1.64776254765037 |  erot = 1.92608890072777 | epot = -22.4842649258583 | etot = -18.9104134774802
199000  ekin = 1.65621021226673 |  erot = 2.21876596478776 | epot = -22.4280470542139 | etot = -18.5530708771594
200000  ekin = 1.68396557470048 |  erot = 2.18851360029564 | epot = -22.379280294039 | etot = -18.5068011190429
201000  ekin = 1.58452256050709 |  erot = 2.76907779285238 | epot = -22.3014443905324 | etot = -17.947844037173
202000  ekin = 1.54321939213116 |  erot = 2.44655962102429 | epot = -22.2136540120258 | etot = -18.2238749988704
203000  ekin = 1.49527423056762 |  erot = 2.44440846517496 | epot = -22.1231335789825 | etot = -18.1834508832399
204000  ekin = 1.42525079936429 |  erot = 2.83745592867446 | epot = -22.0409614513841 | etot = -17.7782547233454
205000  ekin = 1.42978422295414 |  erot = 2.95341773064219 | epot = -21.9571851603537 | etot = -17.5739832067574
206000  ekin = 1.36049778309753 |  erot = 2.83549996707323 | epot = -21.8974335725846 | etot = -17.7014358224139
207000  ekin = 1.29887157812385 |  erot = 3.03783363013878 | epot = -21.8430515160584 | etot = -17.5063463077957
208000  ekin = 1.34341544648364 |  erot = 3.11373358018431 | epot = -21.785603235413 | etot = -17.3284542087451
209000  ekin = 1.37014771279219 |  erot = 2.91335961336075 | epot = -21.7135808557959 | etot = -17.430073529643
210000  ekin = 1.42476756889871 |  erot = 2.89331189478046 | epot = -21.5850142544311 | etot = -17.266934790752
211000  ekin = 1.34927361868026 |  erot = 2.68288143618382 | epot = -21.4400426672499 | etot = -17.4078876123858
212000  ekin = 1.49128069580886 |  erot = 2.70604382180407 | epot = -21.2914762616263 | etot = -17.0941517440134
213000  ekin = 1.59986466327346 |  erot = 2.65822930237652 | epot = -21.1410448576725 | etot = -16.8829508920225
214000  ekin = 1.57570953317267 |  erot = 2.79629927670805 | epot = -20.9904223688205 | etot = -16.6184135589398
215000  ekin = 1.63256105235979 |  erot = 2.69597024855494 | epot = -20.8601256454146 | etot = -16.5315943444999
216000  ekin = 1.67064385264714 |  erot = 2.44739930798252 | epot = -20.7555716480124 | etot = -16.6375284873828
217000  ekin = 1.6218880063798 |  erot = 2.4330555728333 | epot = -20.722413328212 | etot = -16.6674697489989
218000  ekin = 1.64606636901744 |  erot = 2.6486981466189 | epot = -20.7502510322013 | etot = -16.4554865165649
219000  ekin = 1.70353414409848 |  erot = 2.7997221130251 | epot = -20.7845992910567 | etot = -16.2813430339331
220000  ekin = 1.74880022179254 |  erot = 2.64905074347643 | epot = -20.8396457684431 | etot = -16.4417948031742
221000  ekin = 1.81236487768043 |  erot = 2.93669133915737 | epot = -20.9499015869694 | etot = -16.2008453701316
222000  ekin = 1.84649161859346 |  erot = 2.85287175773866 | epot = -21.0927343336169 | etot = -16.3933709572848
223000  ekin = 1.87441660338485 |  erot = 2.96311764811085 | epot = -21.2564885593178 | etot = -16.4189543078221
224000  ekin = 2.09907785839491 |  erot = 2.75433402152825 | epot = -21.424818361708 | etot = -16.5714064817849
225000  ekin = 2.30010533938626 |  erot = 2.67454361218699 | epot = -21.6008171170612 | etot = -16.626168165488
226000  ekin = 2.42689725101242 |  erot = 2.70736025408607 | epot = -21.7515066872426 | etot = -16.6172491821441
227000  ekin = 2.54895929165975 |  erot = 2.79460739709118 | epot = -21.8741313055212 | etot = -16.5305646167702
228000  ekin = 2.61677978890097 |  erot = 2.79388359916086 | epot = -21.973054308316 | etot = -16.5623909202542
229000  ekin = 2.63216772040856 |  erot = 2.92346177925235 | epot = -22.0307357525402 | etot = -16.4751062528793
230000  ekin = 2.5839048934589 |  erot = 2.87686964533646 | epot = -22.0461245567339 | etot = -16.5853500179385
231000  ekin = 2.66188078761018 |  erot = 2.60162661808963 | epot = -22.018684895378 | etot = -16.7551774896782
232000  ekin = 2.65841421937248 |  erot = 2.58950084967971 | epot = -21.952644801982 | etot = -16.7047297329298
233000  ekin = 2.67013502535659 |  erot = 2.39334157985991 | epot = -21.8593772977147 | etot = -16.7959006924982
234000  ekin = 2.55687226826836 |  erot = 2.28743657262082 | epot = -21.7196048549653 | etot = -16.8752960140761
235000  ekin = 2.40908240211927 |  erot = 2.18856718834604 | epot = -21.5568246763415 | etot = -16.9591750858762
236000  ekin = 2.45296495728484 |  erot = 1.73228998399397 | epot = -21.3990016680231 | etot = -17.2137467267443
237000  ekin = 2.45647675573889 |  erot = 1.55838299475438 | epot = -21.2711453873861 | etot = -17.2562856368928
238000  ekin = 2.45085948587454 |  erot = 1.73357194764423 | epot = -21.1889221126865 | etot = -17.0044906791677
239000  ekin = 2.46602609451848 |  erot = 1.90065188676585 | epot = -21.1667563196057 | etot = -16.8000783383214
240000  ekin = 2.33796945986663 |  erot = 2.10011736609371 | epot = -21.1933792884248 | etot = -16.7552924624644
241000  ekin = 2.44155086640152 |  erot = 2.5294221893795 | epot = -21.2654521458311 | etot = -16.29447909005
242000  ekin = 2.43726026146458 |  erot = 2.56189785799922 | epot = -21.3596468217686 | etot = -16.3604887023048
243000  ekin = 2.38527720170858 |  erot = 2.92483517968789 | epot = -21.4476955876487 | etot = -16.1375832062522
244000  ekin = 2.43305152134978 |  erot = 3.13030199682037 | epot = -21.5253542662412 | etot = -15.9620007480711
245000  ekin = 2.34248058405609 |  erot = 3.39654754017994 | epot = -21.5746719384285 | etot = -15.8356438141925
246000  ekin = 2.22203010313987 |  erot = 3.24539512103698 | epot = -21.6102612139387 | etot = -16.1428359897618
247000  ekin = 2.18161414825905 |  erot = 3.17708625003437 | epot = -21.6121017617732 | etot = -16.2534013634798
248000  ekin = 2.14786027857325 |  erot = 2.93493583442535 | epot = -21.5821175301772 | etot = -16.4993214171786
249000  ekin = 2.1154622560351 |  erot = 2.65676577989616 | epot = -21.5328260462557 | etot = -16.7605980103245
250000  ekin = 2.08258254452502 |  erot = 2.51278109177547 | epot = -21.4612192152785 | etot = -16.865855578978
251000  ekin = 1.9742489487821 |  erot = 2.34806738759138 | epot = -21.3923428532783 | etot = -17.0700265169048
252000  ekin = 1.97048808369653 |  erot = 1.99115759882276 | epot = -21.3271316585964 | etot = -17.3654859760771
253000  ekin = 2.01408243379402 |  erot = 2.32755027924622 | epot = -21.2782132891156 | etot = -16.9365805760754
254000  ekin = 2.08055003788165 |  erot = 1.89671800228147 | epot = -21.2526263857113 | etot = -17.2753583455482
255000  ekin = 2.03693196256138 |  erot = 2.07777286412284 | epot = -21.2590218685809 | etot = -17.1443170418967
256000  ekin = 2.09443852502217 |  erot = 1.93072997337288 | epot = -21.2924018193625 | etot = -17.2672333209674
257000  ekin = 2.15892268396657 |  erot = 1.80542946186159 | epot = -21.3549991612159 | etot = -17.3906470153878
258000  ekin = 2.1798553186145 |  erot = 1.78899461221362 | epot = -21.4290810676498 | etot = -17.4602311368217
259000  ekin = 2.21879481100383 |  erot = 2.00042152481931 | epot = -21.5156859416456 | etot = -17.2964696058224
260000  ekin = 2.23230781087046 |  erot = 1.92469119981206 | epot = -21.5739218213471 | etot = -17.4169228106646
261000  ekin = 2.20725422443418 |  erot = 1.95063112971748 | epot = -21.6226626065193 | etot = -17.4647772523677
262000  ekin = 2.25364220587794 |  erot = 1.86806956106358 | epot = -21.6606203978347 | etot = -17.5389086308931
263000  ekin = 2.2745191124411 |  erot = 1.88576182425897 | epot = -21.6707355563004 | etot = -17.5104546196004
264000  ekin = 2.31743274100675 |  erot = 1.89043794607679 | epot = -21.6658367619932 | etot = -17.4579660749097
265000  ekin = 2.34289229985179 |  erot = 2.08595197099475 | epot = -21.6767978216757 | etot = -17.2479535508292
266000  ekin = 2.3899300653484 |  erot = 2.06541078395747 | epot = -21.7067349964001 | etot = -17.2513941470942
267000  ekin = 2.42913514053661 |  erot = 1.90515845127833 | epot = -21.753771867194 | etot = -17.419478275379
268000  ekin = 2.56337406000812 |  erot = 1.92623756183675 | epot = -21.8331768183362 | etot = -17.3435651964914
269000  ekin = 2.61168966394753 |  erot = 1.99189529087478 | epot = -21.8974804447422 | etot = -17.2938954899199
270000  ekin = 2.53639435963122 |  erot = 2.18070434963339 | epot = -21.9584187694417 | etot = -17.2413200601771
271000  ekin = 2.4730499948757 |  erot = 2.35836713203746 | epot = -21.9991923760468 | etot = -17.1677752491337
272000  ekin = 2.47073160362048 |  erot = 2.18239415020589 | epot = -22.0193810519899 | etot = -17.3662552981635
273000  ekin = 2.4161128868233 |  erot = 2.11264062363061 | epot = -22.0447361710736 | etot = -17.5159826606197
274000  ekin = 2.33309205622036 |  erot = 2.12677358473247 | epot = -22.0456863660978 | etot = -17.585820725145
275000  ekin = 2.25325149778063 |  erot = 2.19345346449468 | epot = -21.9873759762878 | etot = -17.5406710140125
276000  ekin = 2.11579900114214 |  erot = 2.01180248953933 | epot = -21.8981479929511 | etot = -17.7705465022696
277000  ekin = 2.01204365222986 |  erot = 1.98722100035167 | epot = -21.7960888645598 | etot = -17.7968242119783
278000  ekin = 1.94141858256029 |  erot = 2.28521819509401 | epot = -21.7113859217473 | etot = -17.484749144093
279000  ekin = 1.83792081872222 |  erot = 2.29363129336714 | epot = -21.6511613802402 | etot = -17.5196092681508
280000  ekin = 1.73807918416876 |  erot = 2.50531944195154 | epot = -21.648860900744 | etot = -17.4054622746237
281000  ekin = 1.73432743109903 |  erot = 2.683788200705 | epot = -21.6510875258494 | etot = -17.2329718940453
282000  ekin = 1.707454359447 |  erot = 2.4631171643996 | epot = -21.702633188471 | etot = -17.5320616646244
283000  ekin = 1.60185741540726 |  erot = 2.73972949535758 | epot = -21.788969309387 | etot = -17.4473823986222
284000  ekin = 1.45656966763948 |  erot = 3.08718988751344 | epot = -21.9109766986028 | etot = -17.3672171434499
285000  ekin = 1.52336397324818 |  erot = 3.2348904453559 | epot = -22.0771348239222 | etot = -17.3188804053181
286000  ekin = 1.52886747117867 |  erot = 3.26500488671026 | epot = -22.2419806366669 | etot = -17.4481082787779
287000  ekin = 1.5582725813792 |  erot = 3.2185398289023 | epot = -22.374580622938 | etot = -17.5977682126565
288000  ekin = 1.62221220393018 |  erot = 3.11944065317502 | epot = -22.4753647550739 | etot = -17.7337118979687
289000  ekin = 1.67251771955046 |  erot = 2.53263586427446 | epot = -22.5286401037665 | etot = -18.3234865199416
290000  ekin = 1.79922183320689 |  erot = 2.60060797838013 | epot = -22.5663935494002 | etot = -18.1665637378131
291000  ekin = 1.83910683599856 |  erot = 2.21931974991974 | epot = -22.5984502564983 | etot = -18.54002367058
292000  ekin = 1.94895219984002 |  erot = 2.13471584079355 | epot = -22.6223121384565 | etot = -18.538644097823
293000  ekin = 2.00848212838241 |  erot = 2.19116654326673 | epot = -22.6334508938888 | etot = -18.4338022222397
294000  ekin = 2.10559198417458 |  erot = 1.93202707864297 | epot = -22.6586912703106 | etot = -18.621072207493
295000  ekin = 2.21769154753229 |  erot = 1.88155097269452 | epot = -22.7095788430016 | etot = -18.6103363227748
296000  ekin = 2.33458415024603 |  erot = 2.23498610265731 | epot = -22.7640278342614 | etot = -18.194457581358
297000  ekin = 2.42885632292099 |  erot = 1.96776290060609 | epot = -22.8238447137232 | etot = -18.4272254901961
298000  ekin = 2.55470243764224 |  erot = 2.23334330823264 | epot = -22.9186285858852 | etot = -18.1305828400103
299000  ekin = 2.66453185837133 |  erot = 2.34987058034008 | epot = -23.0168248151099 | etot = -18.0024223763984
300000  ekin = 2.72119699302726 |  erot = 2.29170874462634 | epot = -23.0901056634069 | etot = -18.0771999257533
301000  ekin = 2.81586193114734 |  erot = 2.13213339022162 | epot = -23.149588375443 | etot = -18.201593054074
302000  ekin = 2.91520994762752 |  erot = 1.88276051696952 | epot = -23.1915517299788 | etot = -18.3935812653817
303000  ekin = 3.00910392441911 |  erot = 1.95969044044558 | epot = -23.2200453504935 | etot = -18.2512509856288
304000  ekin = 3.09252107593619 |  erot = 1.62524026936747 | epot = -23.2362247506591 | etot = -18.5184634053554
305000  ekin = 3.1833332778338 |  erot = 1.64710767299387 | epot = -23.239688077863 | etot = -18.4092471270354
306000  ekin = 3.2303852450878 |  erot = 1.86572791579381 | epot = -23.2226722815321 | etot = -18.1265591206505
307000  ekin = 3.17553918919359 |  erot = 2.33048974790649 | epot = -23.1930577755999 | etot = -17.6870288384998
308000  ekin = 3.05565196722448 |  erot = 2.12851261980202 | epot = -23.1373688624437 | etot = -17.9532042754172
309000  ekin = 3.06886265684594 |  erot = 2.25716457141468 | epot = -23.0626811521325 | etot = -17.7366539238719
310000  ekin = 2.9103478785017 |  erot = 2.45832048654341 | epot = -23.0039736316974 | etot = -17.6353052666523
311000  ekin = 2.80209798482117 |  erot = 2.69963602433988 | epot = -22.9644587572484 | etot = -17.4627247480874
312000  ekin = 2.89133577486401 |  erot = 2.91057311416267 | epot = -22.9280382115917 | etot = -17.126129322565
313000  ekin = 2.85188593774383 |  erot = 2.64756099113599 | epot = -22.9072517674229 | etot = -17.407804838543
314000  ekin = 2.78595369543557 |  erot = 2.70015943474038 | epot = -22.9231273154874 | etot = -17.4370141853114
315000  ekin = 2.80274029888226 |  erot = 2.58977766570975 | epot = -22.9544686180923 | etot = -17.5619506535003
316000  ekin = 2.813169306106 |  erot = 2.690980071203 | epot = -22.9778084391862 | etot = -17.4736590618772
317000  ekin = 2.92747042873583 |  erot = 2.60588706069162 | epot = -22.9662401312089 | etot = -17.4328826417815
318000  ekin = 2.92235999955154 |  erot = 2.47590791759842 | epot = -22.9395079234944 | etot = -17.5412400063444
319000  ekin = 2.95294558428538 |  erot = 2.3284695967344 | epot = -22.8862142058975 | etot = -17.6047990248777
320000  ekin = 2.96034320260985 |  erot = 1.96132462322065 | epot = -22.8325608441835 | etot = -17.910893018353
321000  ekin = 3.0506123149284 |  erot = 1.60256900115906 | epot = -22.772967562217 | etot = -18.1197862461295
322000  ekin = 3.06917008169216 |  erot = 1.78242384845949 | epot = -22.7183310735853 | etot = -17.8667371434336
323000  ekin = 3.01773744699203 |  erot = 1.54792296048673 | epot = -22.6793347879489 | etot = -18.1136743804701
324000  ekin = 3.00480822228189 |  erot = 1.41906862436133 | epot = -22.6494390826941 | etot = -18.2255622360509
325000  ekin = 2.89783034430742 |  erot = 1.53330273244741 | epot = -22.6175860707657 | etot = -18.1864529940109
326000  ekin = 2.86411015648574 |  erot = 1.46437933803489 | epot = -22.5787186521105 | etot = -18.2502291575898
327000  ekin = 2.85311531697693 |  erot = 1.58696821581913 | epot = -22.5591982819074 | etot = -18.1191147491114
328000  ekin = 2.86747144026835 |  erot = 1.74413948970463 | epot = -22.5408974569852 | etot = -17.9292865270122
329000  ekin = 2.78611224528675 |  erot = 1.59178805962542 | epot = -22.4940152398142 | etot = -18.116114934902
330000  ekin = 2.69317692812656 |  erot = 1.77728472427356 | epot = -22.4199575472595 | etot = -17.9494958948593
331000  ekin = 2.66550770553878 |  erot = 1.86897796248965 | epot = -22.3262951615913 | etot = -17.7918094935629
332000  ekin = 2.46548011243441 |  erot = 1.78639997747238 | epot = -22.2432651292252 | etot = -17.9913850393184
333000  ekin = 2.38707429510573 |  erot = 1.88540525492875 | epot = -22.1912828165259 | etot = -17.9188032664914
334000  ekin = 2.29842323367102 |  erot = 1.91569547244919 | epot = -22.1605657807781 | etot = -17.9464470746579
335000  ekin = 2.14328705611339 |  erot = 1.93351743363534 | epot = -22.1267428568705 | etot = -18.0499383671218
336000  ekin = 2.17230386456881 |  erot = 1.84213347788928 | epot = -22.0906093676853 | etot = -18.0761720252272
337000  ekin = 2.12998408141727 |  erot = 1.61504892612904 | epot = -22.0362365245474 | etot = -18.2912035170011
338000  ekin = 2.22344100551942 |  erot = 1.68131888644304 | epot = -21.9914967299633 | etot = -18.0867368380009
339000  ekin = 2.17397763598077 |  erot = 2.04937445475364 | epot = -21.9399664944352 | etot = -17.7166144037008
340000  ekin = 2.20074652018761 |  erot = 2.20161688813948 | epot = -21.9270463566988 | etot = -17.5246829483717
341000  ekin = 2.27511078184159 |  erot = 2.29314361762764 | epot = -21.9408735448824 | etot = -17.3726191454131
342000  ekin = 2.23496832750093 |  erot = 2.5650510125349 | epot = -21.9730675845141 | etot = -17.1730482444783
343000  ekin = 2.14180809724111 |  erot = 2.97675645193248 | epot = -21.9956779914414 | etot = -16.8771134422678
344000  ekin = 2.2126707016694 |  erot = 2.22143192231864 | epot = -22.0021896006045 | etot = -17.5680869766165
345000  ekin = 2.33078283444873 |  erot = 2.24242604297012 | epot = -22.0150204126161 | etot = -17.4418115351973
346000  ekin = 2.34407159811759 |  erot = 1.99201495775972 | epot = -22.0385016930848 | etot = -17.7024151372075
347000  ekin = 2.44088137371613 |  erot = 2.12531879806797 | epot = -22.0618508546084 | etot = -17.4956506828243
348000  ekin = 2.64914602526481 |  erot = 2.46233252053011 | epot = -22.0937551106248 | etot = -16.9822765648299
349000  ekin = 2.74052569579419 |  erot = 2.4858891328714 | epot = -22.1113349203141 | etot = -16.8849200916485
350000  ekin = 2.63009093889651 |  erot = 2.96194682397752 | epot = -22.1188176550615 | etot = -16.5267798921874
351000  ekin = 2.58934992266496 |  erot = 2.87704347850333 | epot = -22.1025806281002 | etot = -16.6361872269319
352000  ekin = 2.54228487046017 |  erot = 2.63361513807469 | epot = -22.065268676535 | etot = -16.8893686680001
353000  ekin = 2.53249364323764 |  erot = 2.47221948070281 | epot = -22.0318641173349 | etot = -17.0271509933945
354000  ekin = 2.56206560144996 |  erot = 2.34662515218724 | epot = -22.0126143901227 | etot = -17.1039236364855
355000  ekin = 2.53151865050983 |  erot = 2.41130529481779 | epot = -21.9989758809428 | etot = -17.0561519356152
356000  ekin = 2.38856942051675 |  erot = 2.45957154153164 | epot = -21.9929238390888 | etot = -17.1447828770405
357000  ekin = 2.38503185044981 |  erot = 2.38151023524621 | epot = -22.0040942348338 | etot = -17.2375521491378
358000  ekin = 2.44758512950039 |  erot = 2.71803579945338 | epot = -22.0072561961475 | etot = -16.8416352671937
359000  ekin = 2.3851668843951 |  erot = 2.57286490732325 | epot = -21.9670271651235 | etot = -17.0089953734051
360000  ekin = 2.33663079544644 |  erot = 2.56848564652217 | epot = -21.9181648411088 | etot = -17.0130483991401
361000  ekin = 2.42677922379477 |  erot = 2.37500774993747 | epot = -21.8672713761356 | etot = -17.0654844024033
362000  ekin = 2.4605364062406 |  erot = 2.49590481611229 | epot = -21.7779995387158 | etot = -16.8215583163629
363000  ekin = 2.55310738370223 |  erot = 2.17768318633137 | epot = -21.677682077902 | etot = -16.9468915078684
364000  ekin = 2.5678010972577 |  erot = 2.16474191665875 | epot = -21.5533633280085 | etot = -16.820820314092
365000  ekin = 2.59901975131882 |  erot = 1.7140989302114 | epot = -21.4252112523553 | etot = -17.1120925708251
366000  ekin = 2.80245009247369 |  erot = 1.4404838150693 | epot = -21.311596587106 | etot = -17.068662679563
367000  ekin = 2.85134090040924 |  erot = 1.61253537083183 | epot = -21.2054965437889 | etot = -16.7416202725478
368000  ekin = 3.00720175661758 |  erot = 1.37649145802376 | epot = -21.1143147590192 | etot = -16.7306215443779
369000  ekin = 3.02782850583644 |  erot = 1.29964512201192 | epot = -21.0456750388441 | etot = -16.7182014109957
370000  ekin = 2.96718136039109 |  erot = 1.45830059090196 | epot = -20.9956751371928 | etot = -16.5701931858997
371000  ekin = 2.97398053523892 |  erot = 1.26453322843172 | epot = -20.9819115867117 | etot = -16.743397823041
372000  ekin = 2.93284410498 |  erot = 1.41224205422984 | epot = -20.9908796563722 | etot = -16.6457934971623
373000  ekin = 2.8879003401046 |  erot = 1.42564554966125 | epot = -21.0338923993971 | etot = -16.7203465096313
374000  ekin = 2.82344708085634 |  erot = 1.62526123419932 | epot = -21.0946345683056 | etot = -16.64592625325
375000  ekin = 2.90481916892106 |  erot = 1.7464206770586 | epot = -21.2008783966461 | etot = -16.5496385506664
376000  ekin = 2.84134799892063 |  erot = 1.87675422092541 | epot = -21.3649261105941 | etot = -16.6468238907481
377000  ekin = 2.86364799078503 |  erot = 1.93393380949078 | epot = -21.5406268140671 | etot = -16.7430450137913
378000  ekin = 2.90483004895234 |  erot = 2.17252781549633 | epot = -21.7155346442898 | etot = -16.6381767798411
379000  ekin = 2.88650755861751 |  erot = 1.96118442992086 | epot = -21.8538626049789 | etot = -17.0061706164405
380000  ekin = 2.88651329834471 |  erot = 2.08410077478119 | epot = -21.9401095058162 | etot = -16.9694954326903
381000  ekin = 2.84108364234484 |  erot = 2.3660240689464 | epot = -21.98104394619 | etot = -16.7739362348987
382000  ekin = 2.65581712933813 |  erot = 2.32549072457596 | epot = -21.9604472596473 | etot = -16.9791394057332
383000  ekin = 2.66697103963098 |  erot = 2.19715446258958 | epot = -21.8997743494525 | etot = -17.035648847232
384000  ekin = 2.71347175798896 |  erot = 2.0860453579752 | epot = -21.8256490214726 | etot = -17.0261319055084
385000  ekin = 2.58866272891295 |  erot = 2.07169637253233 | epot = -21.758827765026 | etot = -17.0984686635807
386000  ekin = 2.61416908347388 |  erot = 2.1240237822152 | epot = -21.727589058865 | etot = -16.9893961931759
387000  ekin = 2.703733725349 |  erot = 2.21149248908629 | epot = -21.7114203261748 | etot = -16.7961941117395
388000  ekin = 2.7497838323679 |  erot = 2.03622128721578 | epot = -21.7171286702608 | etot = -16.9311235506772
389000  ekin = 2.75876151313239 |  erot = 2.35914494269186 | epot = -21.7195350651328 | etot = -16.6016286093086
390000  ekin = 2.87281151326072 |  erot = 2.14919283772489 | epot = -21.7092098874033 | etot = -16.6872055364177
391000  ekin = 2.88070946214033 |  erot = 2.15553640701987 | epot = -21.7308938242006 | etot = -16.6946479550404
392000  ekin = 2.85350413424024 |  erot = 1.95551148082617 | epot = -21.7800211133378 | etot = -16.9710054982714
393000  ekin = 2.90295298668554 |  erot = 2.00031478831757 | epot = -21.8483879920452 | etot = -16.9451202170421
394000  ekin = 2.87980364418038 |  erot = 2.13854428764088 | epot = -21.9278910355293 | etot = -16.9095431037081
395000  ekin = 2.89980834808641 |  erot = 2.27975081097518 | epot = -22.0016489908306 | etot = -16.822089831769
396000  ekin = 2.9360557483404 |  erot = 2.2875622150139 | epot = -22.0837193562733 | etot = -16.860101392919
397000  ekin = 2.80779171295693 |  erot = 2.19257867663261 | epot = -22.1878285992745 | etot = -17.187458209685
398000  ekin = 2.65560496560025 |  erot = 2.63286768292198 | epot = -22.2927014267369 | etot = -17.0042287782147
399000  ekin = 2.7083129997789 |  erot = 2.28957359120755 | epot = -22.4133968187077 | etot = -17.4155102277212
400000  ekin = 2.62631472682178 |  erot = 2.32258453004909 | epot = -22.5144474162181 | etot = -17.5655481593472
401000  ekin = 2.61084599477582 |  erot = 2.5915842232174 | epot = -22.6219132294947 | etot = -17.4194830115015
402000  ekin = 2.63588590320108 |  erot = 2.77714471535845 | epot = -22.726497935138 | etot = -17.3134673165785
403000  ekin = 2.57124299169012 |  erot = 2.91857224360648 | epot = -22.7998184812978 | etot = -17.3100032460012
404000  ekin = 2.64669440558072 |  erot = 2.93356467106652 | epot = -22.8394282855354 | etot = -17.2591692088882
405000  ekin = 2.63136962603962 |  erot = 3.04830494377458 | epot = -22.8811547071106 | etot = -17.2014801372964
406000  ekin = 2.57687330940515 |  erot = 2.89269043406019 | epot = -22.8904487120534 | etot = -17.420884968588
407000  ekin = 2.56184489605048 |  erot = 3.0869265673611 | epot = -22.8853592595439 | etot = -17.2365877961323
408000  ekin = 2.54127249851751 |  erot = 3.17601770471237 | epot = -22.9006717760475 | etot = -17.1833815728176
409000  ekin = 2.53459046783756 |  erot = 3.13623300199206 | epot = -22.8968640693002 | etot = -17.2260405994706
410000  ekin = 2.51587421571662 |  erot = 3.14201699757386 | epot = -22.9150990085739 | etot = -17.2572077952835
411000  ekin = 2.42964978573949 |  erot = 3.32305144355808 | epot = -22.950164108708 | etot = -17.1974628794104
412000  ekin = 2.36687843567492 |  erot = 3.32855044296013 | epot = -22.9956786711899 | etot = -17.3002497925549
413000  ekin = 2.32867643693121 |  erot = 3.02147909460693 | epot = -23.0359443059235 | etot = -17.6857887743854
414000  ekin = 2.25152604494466 |  erot = 3.14866247342447 | epot = -23.0379850078344 | etot = -17.6377964894653
415000  ekin = 2.14860234477144 |  erot = 3.14281806599387 | epot = -23.0168097112442 | etot = -17.7253893004789
416000  ekin = 2.13327753923941 |  erot = 2.78190144921923 | epot = -22.9549412646377 | etot = -18.0397622761791
417000  ekin = 2.07867029653697 |  erot = 2.63891364632696 | epot = -22.8771697337527 | etot = -18.1595857908887
418000  ekin = 2.0150349708746 |  erot = 2.48786384280144 | epot = -22.7881812529125 | etot = -18.2852824392364
419000  ekin = 1.93436445840322 |  erot = 2.56473142390303 | epot = -22.7122209786172 | etot = -18.213125096311
420000  ekin = 1.86691051963017 |  erot = 2.37316247804236 | epot = -22.6636441048361 | etot = -18.4235711071636
421000  ekin = 1.8667725624874 |  erot = 2.32313827929402 | epot = -22.6187875829574 | etot = -18.428876741176
422000  ekin = 1.8200582415809 |  erot = 2.55465763559262 | epot = -22.5903542114936 | etot = -18.2156383343201
423000  ekin = 1.85196925130418 |  erot = 2.59745988234307 | epot = -22.5868190893395 | etot = -18.1373899556923
424000  ekin = 1.87511106269032 |  erot = 2.36649086179865 | epot = -22.5883508404773 | etot = -18.3467489159883
425000  ekin = 1.85448962199789 |  erot = 2.3591233455441 | epot = -22.5825697876888 | etot = -18.3689568201468
426000  ekin = 1.93877126287082 |  erot = 2.34047239554888 | epot = -22.5855644966028 | etot = -18.3063208381831
427000  ekin = 1.98667133587004 |  erot = 2.21434059237444 | epot = -22.6165038624104 | etot = -18.4154919341659
428000  ekin = 2.06633462219177 |  erot = 2.46308595042552 | epot = -22.6536305130781 | etot = -18.1242099404608
429000  ekin = 2.06647569478212 |  erot = 2.85029146170665 | epot = -22.6734202786044 | etot = -17.7566531221156
430000  ekin = 2.02119030876797 |  erot = 3.03581181603967 | epot = -22.6592821074028 | etot = -17.6022799825951
431000  ekin = 1.92940982496923 |  erot = 3.125674796042 | epot = -22.6051004098154 | etot = -17.5500157888042
432000  ekin = 1.98926835887576 |  erot = 2.96897634192392 | epot = -22.5090519549375 | etot = -17.5508072541379
433000  ekin = 2.04143073246114 |  erot = 2.85215225860714 | epot = -22.3406443583776 | etot = -17.4470613673093
434000  ekin = 2.05565692829913 |  erot = 2.95627927317631 | epot = -22.1000056035569 | etot = -17.0880694020814
435000  ekin = 2.08432405496736 |  erot = 2.68419048003187 | epot = -21.8308353279849 | etot = -17.0623207929857
436000  ekin = 2.12772749840182 |  erot = 2.84173548840778 | epot = -21.5604223141965 | etot = -16.5909593273869
437000  ekin = 2.04468233985804 |  erot = 2.51892636169328 | epot = -21.3171953647822 | etot = -16.7535866632309
438000  ekin = 2.04330796733059 |  erot = 2.25039837644734 | epot = -21.1104661155377 | etot = -16.8167597717598
439000  ekin = 2.1303450962371 |  erot = 2.34282002521722 | epot = -20.9455910272725 | etot = -16.4724259058182
440000  ekin = 2.19070367254264 |  erot = 2.15029144838855 | epot = -20.8316849257311 | etot = -16.4906898047999
441000  ekin = 2.18523324344632 |  erot = 2.14329639955493 | epot = -20.7742603417167 | etot = -16.4457306987154
442000  ekin = 2.35525341099367 |  erot = 2.33073585925573 | epot = -20.792107801297 | etot = -16.1061185310476
443000  ekin = 2.42381848947187 |  erot = 2.29410897800853 | epot = -20.8510039080529 | etot = -16.1330764405725
444000  ekin = 2.58327001521848 |  erot = 2.2555040393805 | epot = -20.9496740359511 | etot = -16.1108999813521
445000  ekin = 2.74914318766607 |  erot = 2.36474125562136 | epot = -21.0902773104291 | etot = -15.9763928671417
446000  ekin = 2.75866465553895 |  erot = 2.51903536478372 | epot = -21.2771375903941 | etot = -15.9994375700714
447000  ekin = 2.81341929589966 |  erot = 2.61543912233437 | epot = -21.4943223583148 | etot = -16.0654639400807
448000  ekin = 2.98791449212409 |  erot = 2.68601572134495 | epot = -21.6882416455897 | etot = -16.0143114321207
449000  ekin = 3.02989562281076 |  erot = 2.59921391657428 | epot = -21.8625805167009 | etot = -16.2334709773159
450000  ekin = 3.0758419338981 |  erot = 2.74644112742609 | epot = -21.997728414517 | etot = -16.1754453531928
451000  ekin = 3.1732510322311 |  erot = 2.71318685835058 | epot = -22.0826869675359 | etot = -16.1962490769543
452000  ekin = 3.26804429580701 |  erot = 2.87778182303269 | epot = -22.0906838053159 | etot = -15.9448576864762
453000  ekin = 3.27357354113463 |  erot = 2.70771602218257 | epot = -22.009345068552 | etot = -16.0280555052348
454000  ekin = 3.19461395199184 |  erot = 2.6448969266276 | epot = -21.8896212815603 | etot = -16.0501104029409
455000  ekin = 3.06934448991755 |  erot = 2.52112023723157 | epot = -21.7581228733757 | etot = -16.1676581462265
456000  ekin = 3.00870709873354 |  erot = 2.69030125753166 | epot = -21.6192081822489 | etot = -15.9201998259837
457000  ekin = 2.77721648981712 |  erot = 2.81809494378998 | epot = -21.5044838205097 | etot = -15.9091723869026
458000  ekin = 2.72192779143867 |  erot = 2.81327589912996 | epot = -21.3991411950549 | etot = -15.8639375044863
459000  ekin = 2.66716160346742 |  erot = 2.91218722489636 | epot = -21.3056824262503 | etot = -15.7263335978865
460000  ekin = 2.61631308900579 |  erot = 2.72088150404094 | epot = -21.2125642789402 | etot = -15.8753696858935
461000  ekin = 2.52111486337738 |  erot = 2.61083643510198 | epot = -21.1320849455672 | etot = -16.0001336470878
462000  ekin = 2.35496729961946 |  erot = 2.53585610998176 | epot = -21.0535223021749 | etot = -16.1626988925736
463000  ekin = 2.2439343318321 |  erot = 2.51761943073272 | epot = -21.0230425923881 | etot = -16.2614888298233
464000  ekin = 2.1626457562572 |  erot = 2.67496242735603 | epot = -21.0323536551491 | etot = -16.1947454715359
465000  ekin = 2.12337820037341 |  erot = 2.82456556368787 | epot = -21.0880254572834 | etot = -16.1400816932221
466000  ekin = 2.04496236125005 |  erot = 2.74204868129271 | epot = -21.1490905898125 | etot = -16.3620795472697
467000  ekin = 2.0707620645862 |  erot = 2.74539024720618 | epot = -21.2150241645281 | etot = -16.3988718527357
468000  ekin = 2.08250457485156 |  erot = 2.4940100588542 | epot = -21.2895135595468 | etot = -16.712998925841
469000  ekin = 2.11940107816891 |  erot = 2.73165603901951 | epot = -21.3555553713497 | etot = -16.5044982541612
470000  ekin = 2.27554500930735 |  erot = 2.57556168280453 | epot = -21.4121284090537 | etot = -16.5610217169418
471000  ekin = 2.21149846213409 |  erot = 2.49207243095059 | epot = -21.4357320520247 | etot = -16.73216115894
472000  ekin = 2.13757463851149 |  erot = 2.31011730813796 | epot = -21.4380116997287 | etot = -16.9903197530793
473000  ekin = 2.06821493877588 |  erot = 2.26850039282583 | epot = -21.4114781960853 | etot = -17.0747628644836
474000  ekin = 1.96490547218375 |  erot = 2.35563819582063 | epot = -21.3522336688369 | etot = -17.0316900008326
475000  ekin = 1.94558586419879 |  erot = 2.10680745423894 | epot = -21.2548130597364 | etot = -17.2024197412987
476000  ekin = 1.94190624501475 |  erot = 2.16513825042938 | epot = -21.159554468915 | etot = -17.0525099734709
477000  ekin = 1.99924367094377 |  erot = 1.80803378013927 | epot = -21.0628461625389 | etot = -17.2555687114559
478000  ekin = 1.89989927585438 |  erot = 1.77183940189893 | epot = -20.9920693922243 | etot = -17.320330714471
479000  ekin = 1.84520242098747 |  erot = 1.66369715226449 | epot = -20.9431976611348 | etot = -17.4342980878828
480000  ekin = 1.78395227007269 |  erot = 1.62380842243988 | epot = -20.9116440658475 | etot = -17.503883373335
481000  ekin = 1.80711393748078 |  erot = 1.45108120724281 | epot = -20.8998091956538 | etot = -17.6416140509303
482000  ekin = 1.83485472728802 |  erot = 1.58991315613704 | epot = -20.9502956349549 | etot = -17.5255277515298
483000  ekin = 1.74714650944526 |  erot = 2.06533056940214 | epot = -21.0598264029401 | etot = -17.2473493240927
484000  ekin = 1.8057186887513 |  erot = 2.45785513658366 | epot = -21.2268132327393 | etot = -16.9632394074044
485000  ekin = 1.97685842465673 |  erot = 2.60360246547727 | epot = -21.4062901266652 | etot = -16.8258292365312
486000  ekin = 2.06309847922677 |  erot = 2.90380547812245 | epot = -21.5894655607393 | etot = -16.6225616033901
487000  ekin = 2.19649216659994 |  erot = 2.81883409927294 | epot = -21.7360008549519 | etot = -16.7206745890791
488000  ekin = 2.27235435120772 |  erot = 3.21078167833795 | epot = -21.8710028956712 | etot = -16.3878668661256
489000  ekin = 2.3636591616528 |  erot = 2.98148333833798 | epot = -21.9731809770875 | etot = -16.6280384770967
490000  ekin = 2.4636557224321 |  erot = 3.03413636977543 | epot = -22.0415730890951 | etot = -16.5437809968876
491000  ekin = 2.48043066028413 |  erot = 2.95353817719114 | epot = -22.0882801530733 | etot = -16.654311315598
492000  ekin = 2.43187986853069 |  erot = 2.81942197452466 | epot = -22.1316786946073 | etot = -16.880376851552
493000  ekin = 2.43297707751461 |  erot = 3.13501618675316 | epot = -22.1516877815832 | etot = -16.5836945173154
494000  ekin = 2.4354773700696 |  erot = 3.224943833042 | epot = -22.1277792873507 | etot = -16.4673580842391
495000  ekin = 2.44131017621637 |  erot = 3.14764944977806 | epot = -22.079810722608 | etot = -16.4908510966136
496000  ekin = 2.44929786442212 |  erot = 3.00103698197392 | epot = -22.0029286492464 | etot = -16.5525938028503
497000  ekin = 2.4280734272358 |  erot = 2.78818041326617 | epot = -21.8989958230258 | etot = -16.6827419825238
498000  ekin = 2.43232675717266 |  erot = 2.78563195522793 | epot = -21.7990677062028 | etot = -16.5811089938022
499000  ekin = 2.39683774655007 |  erot = 2.52204743265467 | epot = -21.6970829564495 | etot = -16.7781977772448
500000  ekin = 2.39561357167997 |  erot = 2.04914490208487 | epot = -21.6057727183573 | etot = -17.1610142445925
501000  ekin = 2.49011062220811 |  erot = 2.09141321522323 | epot = -21.5560066661711 | etot = -16.9744828287398
502000  ekin = 2.50365744754297 |  erot = 2.10420254833234 | epot = -21.5549657901239 | etot = -16.9471057942486
503000  ekin = 2.50788240480049 |  erot = 2.30709919674968 | epot = -21.6015443787762 | etot = -16.786562777226
504000  ekin = 2.42370070726357 |  erot = 1.84999363757419 | epot = -21.6380109735029 | etot = -17.3643166286652
505000  ekin = 2.35874834855526 |  erot = 2.14636862503864 | epot = -21.6689774661098 | etot = -17.1638604925159
506000  ekin = 2.26228062582635 |  erot = 2.45377485636132 | epot = -21.7153954382918 | etot = -16.9993399561042
507000  ekin = 2.13919237077154 |  erot = 2.50319755000149 | epot = -21.7581761618781 | etot = -17.1157862411051
508000  ekin = 2.14831373874063 |  erot = 3.06092132482214 | epot = -21.7763037427622 | etot = -16.5670686791994
509000  ekin = 2.05180259764867 |  erot = 3.39029610338365 | epot = -21.7760035853532 | etot = -16.3339048843209
510000  ekin = 2.04381464635437 |  erot = 3.61253858305498 | epot = -21.7386277737472 | etot = -16.0822745443378
511000  ekin = 2.05816959569127 |  erot = 3.102136513493 | epot = -21.6883623768063 | etot = -16.528056267622
512000  ekin = 1.92422822548484 |  erot = 2.7926385451771 | epot = -21.6550102347612 | etot = -16.9381434640992
513000  ekin = 2.02050703596267 |  erot = 2.71259548634819 | epot = -21.6549051178158 | etot = -16.921802595505
514000  ekin = 2.07581905977924 |  erot = 2.32467594776647 | epot = -21.6655568342184 | etot = -17.2650618266727
515000  ekin = 2.08477825623489 |  erot = 2.59404540183174 | epot = -21.7265307260937 | etot = -17.0477070680271
516000  ekin = 2.15812359163726 |  erot = 2.69267871008878 | epot = -21.8093937590779 | etot = -16.9585914573518
517000  ekin = 2.13934962382501 |  erot = 2.8436528571905 | epot = -21.9032983411413 | etot = -16.9202958601258
518000  ekin = 2.20591925285869 |  erot = 3.12936446615959 | epot = -22.0120787399692 | etot = -16.6767950209509
519000  ekin = 2.26634159461371 |  erot = 3.09465064893055 | epot = -22.1371864066217 | etot = -16.7761941630775
520000  ekin = 2.33395232089093 |  erot = 3.1670786380661 | epot = -22.2618368300502 | etot = -16.7608058710932
521000  ekin = 2.37443913996459 |  erot = 2.84321493552062 | epot = -22.3608681173471 | etot = -17.1432140418619
522000  ekin = 2.38014534564443 |  erot = 2.71344764130118 | epot = -22.4471285851328 | etot = -17.3535355981872
523000  ekin = 2.43082426163801 |  erot = 2.87118432179588 | epot = -22.5347499952688 | etot = -17.2327414118349
524000  ekin = 2.56081842163085 |  erot = 3.05550273097475 | epot = -22.6100687346066 | etot = -16.993747582001
525000  ekin = 2.5595327185846 |  erot = 2.67513220891039 | epot = -22.6739874644372 | etot = -17.4393225369422
526000  ekin = 2.59958209030967 |  erot = 2.95738463024345 | epot = -22.7033728209714 | etot = -17.1464061004182
527000  ekin = 2.52409384361546 |  erot = 2.89851026515111 | epot = -22.7152196639493 | etot = -17.2926155551827
528000  ekin = 2.5793534980762 |  erot = 2.86931301300845 | epot = -22.7061100878872 | etot = -17.2574435768025
529000  ekin = 2.54499132301732 |  erot = 3.03033580941359 | epot = -22.6577883790845 | etot = -17.0824612466536
530000  ekin = 2.37583920711473 |  erot = 3.07767101681233 | epot = -22.5498147001084 | etot = -17.0963044761814
531000  ekin = 2.28423424660353 |  erot = 2.99538223189526 | epot = -22.4172244060315 | etot = -17.1376079275327
532000  ekin = 2.1109280228991 |  erot = 2.62650535715256 | epot = -22.2554156639846 | etot = -17.517982283933
533000  ekin = 2.07823067751594 |  erot = 2.60462012944303 | epot = -22.0829115643989 | etot = -17.4000607574399
534000  ekin = 2.08976309920187 |  erot = 2.60045035336435 | epot = -21.9117889556571 | etot = -17.2215755030909
535000  ekin = 2.03320809614292 |  erot = 2.53673993181132 | epot = -21.7263132935396 | etot = -17.1563652655854
536000  ekin = 1.97106365765638 |  erot = 2.35170112588149 | epot = -21.571809644199 | etot = -17.2490448606611
537000  ekin = 1.85757994043342 |  erot = 2.10009393160123 | epot = -21.4673782965335 | etot = -17.5097044244988
538000  ekin = 1.82596102898874 |  erot = 2.13846192719764 | epot = -21.398373431854 | etot = -17.4339504756676
539000  ekin = 1.73881232516788 |  erot = 2.4948493136435 | epot = -21.3425267679342 | etot = -17.1088651291228
540000  ekin = 1.67447223010825 |  erot = 2.77285924634643 | epot = -21.271659054413 | etot = -16.8243275779583
541000  ekin = 1.69990418580809 |  erot = 2.88110182550566 | epot = -21.1962442587827 | etot = -16.615238247469
542000  ekin = 1.7111365749696 |  erot = 2.75900359073003 | epot = -21.1355976616677 | etot = -16.665457495968
543000  ekin = 1.78866852977452 |  erot = 2.71660471692181 | epot = -21.0866732693155 | etot = -16.5814000226192
544000  ekin = 1.77181782019774 |  erot = 2.32877176942813 | epot = -21.0413457588297 | etot = -16.9407561692039
545000  ekin = 1.7866779339122 |  erot = 2.11448637898461 | epot = -21.0004042884457 | etot = -17.0992399755488
546000  ekin = 1.85376909065287 |  erot = 1.89612518110716 | epot = -20.9731062289206 | etot = -17.2232119571606
547000  ekin = 1.88607623839212 |  erot = 1.6712325505803 | epot = -20.9706093546519 | etot = -17.4133005656795
548000  ekin = 1.90991638455396 |  erot = 1.78815489997996 | epot = -20.9683934987357 | etot = -17.2703222142018
549000  ekin = 1.93154736700941 |  erot = 1.83109029837903 | epot = -20.9876899630384 | etot = -17.22505229765
550000  ekin = 1.99815580980645 |  erot = 1.56054958425452 | epot = -21.0360042320961 | etot = -17.4772988380352
551000  ekin = 2.06223281194893 |  erot = 1.82140531055406 | epot = -21.10997931596 | etot = -17.226341193457
552000  ekin = 2.19995559126134 |  erot = 1.93328987912251 | epot = -21.1805106953399 | etot = -17.0472652249561
553000  ekin = 2.16476612655663 |  erot = 2.18848299832304 | epot = -21.2339007238649 | etot = -16.8806515989852
554000  ekin = 2.19253395809327 |  erot = 1.99269602147233 | epot = -21.3216202633274 | etot = -17.1363902837618
555000  ekin = 2.30423346281242 |  erot = 1.75126691279982 | epot = -21.4340368938555 | etot = -17.3785365182433
556000  ekin = 2.45212673301272 |  erot = 2.39109930640492 | epot = -21.5725172133448 | etot = -16.7292911739272
557000  ekin = 2.55511582944017 |  erot = 2.60632466872841 | epot = -21.7241981903448 | etot = -16.5627576921762
558000  ekin = 2.67318624692484 |  erot = 2.43046608161984 | epot = -21.8811108747503 | etot = -16.7774585462056
559000  ekin = 2.79102973560968 |  erot = 2.67538733153562 | epot = -22.037855387448 | etot = -16.5714383203027
560000  ekin = 2.9183792158121 |  erot = 2.68572428538362 | epot = -22.1492797858931 | etot = -16.5451762846974
561000  ekin = 2.81692468047697 |  erot = 2.70423444900948 | epot = -22.216487219322 | etot = -16.6953280898356
562000  ekin = 2.76503975841347 |  erot = 2.53761848613789 | epot = -22.2442970633447 | etot = -16.9416388187934
563000  ekin = 2.65825040724883 |  erot = 2.71023439088357 | epot = -22.243221823098 | etot = -16.8747370249656
564000  ekin = 2.64808423454302 |  erot = 2.7031533075073 | epot = -22.2101649946185 | etot = -16.8589274525682
565000  ekin = 2.56520347515872 |  erot = 2.51222337320364 | epot = -22.1609166692024 | etot = -17.08348982084
566000  ekin = 2.49797853328213 |  erot = 1.95572936802152 | epot = -22.1122925054564 | etot = -17.6585846041527
567000  ekin = 2.54792607074833 |  erot = 1.85729033385336 | epot = -22.0797419433029 | etot = -17.6745255387012
568000  ekin = 2.60591444007081 |  erot = 1.83755900710587 | epot = -22.0644073196267 | etot = -17.6209338724501
569000  ekin = 2.62362305667703 |  erot = 2.09101698674206 | epot = -22.0262950849346 | etot = -17.3116550415156
570000  ekin = 2.59966130338224 |  erot = 1.8528357789039 | epot = -21.9852976772882 | etot = -17.5328005950021
571000  ekin = 2.57696065480236 |  erot = 2.10053443453254 | epot = -21.9714910967201 | etot = -17.2939960073852
572000  ekin = 2.6199221152626 |  erot = 2.3592960436722 | epot = -21.9659339101478 | etot = -16.986715751213
573000  ekin = 2.80765379250703 |  erot = 2.64066236878634 | epot = -21.9992362601246 | etot = -16.5509200988312
574000  ekin = 2.77886407527571 |  erot = 2.38672398638113 | epot = -22.0653999532901 | etot = -16.8998118916333
575000  ekin = 2.68662185812297 |  erot = 2.33286464853949 | epot = -22.1404382955663 | etot = -17.1209517889038
576000  ekin = 2.71580008212145 |  erot = 2.47248086928771 | epot = -22.2173146829094 | etot = -17.0290337315003
577000  ekin = 2.7302158927818 |  erot = 2.52068341312541 | epot = -22.2907564203192 | etot = -17.039857114412
578000  ekin = 2.73054357573016 |  erot = 2.55784953441613 | epot = -22.3560478485211 | etot = -17.0676547383748
579000  ekin = 2.66821624836572 |  erot = 2.41812757787305 | epot = -22.3944025993856 | etot = -17.3080587731468
580000  ekin = 2.67666651361969 |  erot = 2.37337561149781 | epot = -22.397039042447 | etot = -17.3469969173295
581000  ekin = 2.50777332809615 |  erot = 2.18045458374933 | epot = -22.3739113390257 | etot = -17.6856834271802
582000  ekin = 2.40279105318935 |  erot = 1.89859122534185 | epot = -22.3216073421081 | etot = -18.0202250635769
583000  ekin = 2.31269263220149 |  erot = 1.73074513088278 | epot = -22.2573140454874 | etot = -18.2138762824031
584000  ekin = 2.21239433549753 |  erot = 1.75290221167389 | epot = -22.2111149411394 | etot = -18.245818393968
585000  ekin = 2.15356855038317 |  erot = 1.75180079977016 | epot = -22.229356241441 | etot = -18.3239868912877
586000  ekin = 2.10262413841983 |  erot = 1.85113983993476 | epot = -22.2792098403955 | etot = -18.3254458620409
587000  ekin = 2.13288374468826 |  erot = 2.20890667221802 | epot = -22.3055082909211 | etot = -17.9637178740148
588000  ekin = 2.14862689118336 |  erot = 2.25138259268979 | epot = -22.2976262267036 | etot = -17.8976167428305
589000  ekin = 2.04435421027859 |  erot = 2.19255127415926 | epot = -22.2575972691454 | etot = -18.0206917847075
590000  ekin = 1.97499579795968 |  erot = 2.18955821954235 | epot = -22.1946880982516 | etot = -18.0301340807496
591000  ekin = 1.91372986676051 |  erot = 2.00143608804042 | epot = -22.0969708781104 | etot = -18.1818049233094
592000  ekin = 1.90759584087294 |  erot = 1.75955547353146 | epot = -22.0003759984159 | etot = -18.3332246840115
593000  ekin = 1.85491418079517 |  erot = 1.82471441354122 | epot = -21.8971191196321 | etot = -18.2174905252957
594000  ekin = 1.80279616325907 |  erot = 1.89197043010803 | epot = -21.7918103226298 | etot = -18.0970437292627
595000  ekin = 1.73140057218467 |  erot = 1.88940188632509 | epot = -21.6714819005053 | etot = -18.0506794419956
596000  ekin = 1.66362739557022 |  erot = 2.08459374164569 | epot = -21.5484728514112 | etot = -17.8002517141953
597000  ekin = 1.58837419642024 |  erot = 2.25218931046815 | epot = -21.4300614484294 | etot = -17.589497941541
598000  ekin = 1.51530311364937 |  erot = 2.10564447814208 | epot = -21.3454884805721 | etot = -17.7245408887807
599000  ekin = 1.51205618459762 |  erot = 2.59561573346759 | epot = -21.3001794349542 | etot = -17.192507516889
600000  ekin = 1.42420860787937 |  erot = 2.66872977571286 | epot = -21.2831261175835 | etot = -17.1901877339913
601000  ekin = 1.41614052584482 |  erot = 2.71409841098203 | epot = -21.2819425817443 | etot = -17.1517036449175
602000  ekin = 1.39716919100115 |  erot = 2.88098133874131 | epot = -21.2738817162066 | etot = -16.9957311864642
603000  ekin = 1.35362959397705 |  erot = 2.47699104027329 | epot = -21.2686606294832 | etot = -17.4380399952329
604000  ekin = 1.30109941785313 |  erot = 2.37915588297075 | epot = -21.2782162294354 | etot = -17.5979609286115
605000  ekin = 1.33474102107266 |  erot = 2.45818083278442 | epot = -21.3160026412609 | etot = -17.5230807874038
606000  ekin = 1.29920725195382 |  erot = 2.42086336903897 | epot = -21.3751929493918 | etot = -17.655122328399
607000  ekin = 1.23411371003043 |  erot = 2.51322970316868 | epot = -21.4519931649193 | etot = -17.7046497517202
608000  ekin = 1.22186321044676 |  erot = 2.5311041555214 | epot = -21.5178918639285 | etot = -17.7649244979604
609000  ekin = 1.29545020421435 |  erot = 2.63039876861612 | epot = -21.5664820555065 | etot = -17.6406330826761
610000  ekin = 1.32833269788911 |  erot = 2.69742481429433 | epot = -21.6042752567674 | etot = -17.5785177445839
611000  ekin = 1.37555485576615 |  erot = 2.44250786358881 | epot = -21.6325158720208 | etot = -17.8144531526659
612000  ekin = 1.43492266332471 |  erot = 2.48338158304032 | epot = -21.6301768868774 | etot = -17.7118726405124
613000  ekin = 1.45874940730907 |  erot = 2.24888080699412 | epot = -21.6206823260948 | etot = -17.9130521117916
614000  ekin = 1.55936377690334 |  erot = 2.20987492911103 | epot = -21.5983529263265 | etot = -17.8291142203122
615000  ekin = 1.65618793567257 |  erot = 2.06571861106629 | epot = -21.5839674847187 | etot = -17.8620609379798
616000  ekin = 1.69323202132181 |  erot = 2.4207923919525 | epot = -21.5767246732272 | etot = -17.4627002599529
617000  ekin = 1.68010177617046 |  erot = 2.37299975949563 | epot = -21.5796207721198 | etot = -17.5265192364537
618000  ekin = 1.82463445029578 |  erot = 2.21376210856707 | epot = -21.5858855133937 | etot = -17.5474889545309
619000  ekin = 1.82457061205234 |  erot = 2.1371769710369 | epot = -21.608601217417 | etot = -17.6468536343277
620000  ekin = 1.90243298129558 |  erot = 2.02639928769549 | epot = -21.6453403015349 | etot = -17.7165080325438
621000  ekin = 2.0007105481323 |  erot = 2.00740169333777 | epot = -21.6932983622015 | etot = -17.6851861207314
622000  ekin = 2.06294983283403 |  erot = 2.33338027747366 | epot = -21.747610545892 | etot = -17.3512804355843
623000  ekin = 2.16886474013683 |  erot = 2.34052136367666 | epot = -21.8030581053771 | etot = -17.2936720015636
624000  ekin = 2.27472643943783 |  erot = 2.06709867004471 | epot = -21.8339575931653 | etot = -17.4921324836828
625000  ekin = 2.44743468020662 |  erot = 1.92194449605304 | epot = -21.8528539423019 | etot = -17.4834747660422
626000  ekin = 2.6254852196294 |  erot = 1.89145499927505 | epot = -21.8798709040072 | etot = -17.3629306851027
627000  ekin = 2.68150434400643 |  erot = 2.0842888332754 | epot = -21.9107134797365 | etot = -17.1449203024547
628000  ekin = 2.74903675678073 |  erot = 1.99441751232753 | epot = -21.9473456387959 | etot = -17.2038913696877
629000  ekin = 2.86146526790743 |  erot = 1.88649666651194 | epot = -21.9845526009193 | etot = -17.2365906664999
630000  ekin = 2.97219747359781 |  erot = 1.94159826713921 | epot = -21.9956245597357 | etot = -17.0818288189987
631000  ekin = 3.02655709138838 |  erot = 1.98612431446979 | epot = -21.9867324807638 | etot = -16.9740510749056
632000  ekin = 2.89242823961396 |  erot = 2.07813215947651 | epot = -21.9871217882287 | etot = -17.0165613891382
633000  ekin = 2.89559354591988 |  erot = 2.04782477805542 | epot = -21.9766614082668 | etot = -17.0332430842915
634000  ekin = 2.83247679377595 |  erot = 2.13051755362208 | epot = -21.9597388170748 | etot = -16.9967444696767
635000  ekin = 2.63710074800464 |  erot = 2.23426349035993 | epot = -21.9715274348462 | etot = -17.1001631964816
636000  ekin = 2.58412863450159 |  erot = 2.48166310505774 | epot = -21.9758376025019 | etot = -16.9100458629426
637000  ekin = 2.48413021154122 |  erot = 3.05163678747143 | epot = -21.9559270975241 | etot = -16.4201600985115
638000  ekin = 2.41845843253208 |  erot = 3.18487359706662 | epot = -21.9218182691583 | etot = -16.3184862395596
639000  ekin = 2.41474442997057 |  erot = 3.07946799577796 | epot = -21.8601538104457 | etot = -16.3659413846972
640000  ekin = 2.43888704755838 |  erot = 3.19916726587376 | epot = -21.773260571449 | etot = -16.1352062580169
641000  ekin = 2.33318464269148 |  erot = 3.52964988306967 | epot = -21.6751385521709 | etot = -15.8123040264097
642000  ekin = 2.29269127471833 |  erot = 3.21459747812113 | epot = -21.5762475219901 | etot = -16.0689587691506
643000  ekin = 2.2000927150324 |  erot = 3.27121474420553 | epot = -21.4712567460628 | etot = -15.9999492868249
644000  ekin = 2.12761393014637 |  erot = 3.26891111731326 | epot = -21.3483627077497 | etot = -15.9518376602901
645000  ekin = 2.14283359918393 |  erot = 3.15969008283745 | epot = -21.2132518657603 | etot = -15.9107281837389
646000  ekin = 2.06396314958936 |  erot = 3.0937199947276 | epot = -21.1127434027894 | etot = -15.9550602584725
647000  ekin = 2.09494506011006 |  erot = 3.01853693183347 | epot = -21.0393545332665 | etot = -15.925872541323
648000  ekin = 2.04196638106979 |  erot = 2.9235470200276 | epot = -20.9985594175429 | etot = -16.0330460164456
649000  ekin = 2.12312778485914 |  erot = 2.76395475216335 | epot = -20.9701414537495 | etot = -16.083058916727
650000  ekin = 2.10015809243625 |  erot = 2.49008137666259 | epot = -20.9856777615303 | etot = -16.3954382924315
651000  ekin = 2.17042975668772 |  erot = 2.82094735385287 | epot = -21.0172459830262 | etot = -16.0258688724856
652000  ekin = 2.09384051310247 |  erot = 2.85582968797875 | epot = -21.0193054655956 | etot = -16.0696352645143
653000  ekin = 2.04333185286073 |  erot = 2.7789078304003 | epot = -21.0137769463715 | etot = -16.1915372631105
654000  ekin = 2.08939824491288 |  erot = 2.64655974106803 | epot = -20.9895202496122 | etot = -16.2535622636313
655000  ekin = 2.04966047424265 |  erot = 2.69502096883418 | epot = -20.9377501246659 | etot = -16.1930686815891
656000  ekin = 2.01275055755516 |  erot = 2.7954688131256 | epot = -20.8915125736499 | etot = -16.0832932029691
657000  ekin = 2.03431712568968 |  erot = 2.53773887631559 | epot = -20.8578047692318 | etot = -16.2857487672265
658000  ekin = 2.0673538576767 |  erot = 2.66675755014629 | epot = -20.8663643114319 | etot = -16.1322529036089
659000  ekin = 2.06847583306457 |  erot = 2.50326478566289 | epot = -20.8825165023748 | etot = -16.3107758836473
660000  ekin = 2.07870932959682 |  erot = 2.81447557231104 | epot = -20.9216042516442 | etot = -16.0284193497364
661000  ekin = 2.19772022528386 |  erot = 2.70676732599789 | epot = -20.955272489221 | etot = -16.0507849379392
[...]
836000  ekin = 2.16450787990255 |  erot = 1.56947066595273 | epot = -22.0176370617292 | etot = -18.2836585158739
837000  ekin = 2.22942308740213 |  erot = 1.72466381535966 | epot = -22.0834662658142 | etot = -18.1293793630524
838000  ekin = 2.33805060269866 |  erot = 2.18496998632888 | epot = -22.1577664107317 | etot = -17.6347458217042
839000  ekin = 2.4577627051558 |  erot = 2.34137207492887 | epot = -22.2345011792195 | etot = -17.4353663991348
840000  ekin = 2.4408859701061 |  erot = 2.20193516257624 | epot = -22.3102615213262 | etot = -17.6674403886438
841000  ekin = 2.52217561151239 |  erot = 2.11119786335641 | epot = -22.4106870083823 | etot = -17.7773135335135
842000  ekin = 2.53177717032708 |  erot = 2.03329546380491 | epot = -22.5051884058713 | etot = -17.9401157717393
843000  ekin = 2.46981084627163 |  erot = 2.26208096486898 | epot = -22.6073969437417 | etot = -17.8755051326011
844000  ekin = 2.53343392638537 |  erot = 2.26231111168032 | epot = -22.6930988517866 | etot = -17.8973538137209
845000  ekin = 2.55237006837693 |  erot = 2.51402635295012 | epot = -22.7449813491075 | etot = -17.6785849277805
846000  ekin = 2.43591378572747 |  erot = 2.18244993014987 | epot = -22.7598171984303 | etot = -18.1414534825529
847000  ekin = 2.47489280739527 |  erot = 2.44850012169225 | epot = -22.7352494455244 | etot = -17.8118565164369
848000  ekin = 2.56433574545226 |  erot = 2.34872816436964 | epot = -22.6736999531278 | etot = -17.7606360433059
849000  ekin = 2.59586448024853 |  erot = 2.2652949780479 | epot = -22.5710185702837 | etot = -17.7098591119873
850000  ekin = 2.49039613324366 |  erot = 2.08374957064521 | epot = -22.4628543871474 | etot = -17.8887086832586
851000  ekin = 2.48848828005073 |  erot = 2.1504397370545 | epot = -22.3616397400165 | etot = -17.7227117229112
852000  ekin = 2.50477194373625 |  erot = 2.31551148311429 | epot = -22.2794107361279 | etot = -17.4591273092774
853000  ekin = 2.48988722576781 |  erot = 2.37905944195178 | epot = -22.2174467488413 | etot = -17.3485000811217
854000  ekin = 2.48068473577069 |  erot = 2.18215338513721 | epot = -22.1954265386904 | etot = -17.5325884177825
855000  ekin = 2.36041825080301 |  erot = 2.14907471345967 | epot = -22.229814016814 | etot = -17.7203210525513
856000  ekin = 2.41735820368112 |  erot = 2.28663399372954 | epot = -22.3010603003025 | etot = -17.5970681028918
857000  ekin = 2.30380534498035 |  erot = 2.28079843394969 | epot = -22.3899957816153 | etot = -17.8053920026852
858000  ekin = 2.32374915951128 |  erot = 2.52586913415202 | epot = -22.4777730735044 | etot = -17.6281547798411
859000  ekin = 2.36194825640362 |  erot = 2.27489572175793 | epot = -22.5497050266214 | etot = -17.9128610484599
860000  ekin = 2.29676205732791 |  erot = 2.83889891466404 | epot = -22.6025698957187 | etot = -17.4669089237267
861000  ekin = 2.2116102131386 |  erot = 2.99481322410894 | epot = -22.629924563885 | etot = -17.4235011266375
862000  ekin = 2.2183818372621 |  erot = 3.2500051060616 | epot = -22.6168976032126 | etot = -17.1485106598888
863000  ekin = 2.13571465170696 |  erot = 3.00165601774444 | epot = -22.5766345837817 | etot = -17.4392639143303
864000  ekin = 2.17821492819518 |  erot = 3.24144192927487 | epot = -22.5094500698139 | etot = -17.0897932123439
865000  ekin = 2.12870821452427 |  erot = 3.22322665201242 | epot = -22.4134082795113 | etot = -17.0614734129746
866000  ekin = 2.03423896587968 |  erot = 2.41447107774416 | epot = -22.3090528921738 | etot = -17.8603428485499
867000  ekin = 1.97183886889137 |  erot = 2.48184160436842 | epot = -22.2021182647476 | etot = -17.7484377914878
868000  ekin = 1.91308044020404 |  erot = 2.24650208042639 | epot = -22.1047137256861 | etot = -17.9451312050556
869000  ekin = 1.86185635878425 |  erot = 2.19298136311335 | epot = -22.0509375705499 | etot = -17.9960998486523
870000  ekin = 1.75992459606837 |  erot = 2.27547409061146 | epot = -22.0117595888703 | etot = -17.9763609021905
871000  ekin = 1.72178818046697 |  erot = 1.96572150785531 | epot = -21.9802199744919 | etot = -18.2927102861696
872000  ekin = 1.66903556580781 |  erot = 1.93794167823874 | epot = -21.9603990023827 | etot = -18.3534217583362
873000  ekin = 1.64894346626438 |  erot = 1.88450940280994 | epot = -21.9681555430983 | etot = -18.434702674024
874000  ekin = 1.57135406761308 |  erot = 1.94741453396443 | epot = -21.9765853859781 | etot = -18.4578167844006
875000  ekin = 1.59516741268916 |  erot = 2.2315729779776 | epot = -21.9920927279222 | etot = -18.1653523372555
876000  ekin = 1.50206798403357 |  erot = 2.57780068625255 | epot = -22.0050475608075 | etot = -17.9251788905214
877000  ekin = 1.52015373136843 |  erot = 2.2843716369875 | epot = -22.0218254393279 | etot = -18.217300070972
878000  ekin = 1.53387227783115 |  erot = 2.27517376879632 | epot = -22.0464155341917 | etot = -18.2373694875642
879000  ekin = 1.55669077534447 |  erot = 2.3756587781102 | epot = -22.062973657109 | etot = -18.1306241036543
880000  ekin = 1.60508011630073 |  erot = 2.26195551636665 | epot = -22.0724613924584 | etot = -18.205425759791
881000  ekin = 1.6255817800637 |  erot = 2.31792675005685 | epot = -22.0658818657201 | etot = -18.1223733355995
882000  ekin = 1.61449109588179 |  erot = 2.44866007965501 | epot = -22.0469024278369 | etot = -17.9837512523001
883000  ekin = 1.63091904235009 |  erot = 2.18398402433298 | epot = -22.0252651066255 | etot = -18.2103620399425
884000  ekin = 1.69681929338606 |  erot = 2.21165212418229 | epot = -21.974538546393 | etot = -18.0660671288247
885000  ekin = 1.75683241806792 |  erot = 2.08331167107024 | epot = -21.8927725348209 | etot = -18.0526284456827
886000  ekin = 1.75713708681646 |  erot = 1.80115910431459 | epot = -21.826515750348 | etot = -18.268219559217
887000  ekin = 1.84458649763984 |  erot = 1.66553699702637 | epot = -21.7661815209402 | etot = -18.256058026274
888000  ekin = 1.88680036415698 |  erot = 1.72065200162268 | epot = -21.7110459690317 | etot = -18.1035936032521
889000  ekin = 1.92232221960089 |  erot = 1.56101057590113 | epot = -21.6536565424971 | etot = -18.1703237469951
890000  ekin = 2.022841033779 |  erot = 1.31029028744447 | epot = -21.5930522300752 | etot = -18.2599209088518
891000  ekin = 2.02442701619092 |  erot = 1.42067034503705 | epot = -21.5472191599557 | etot = -18.1021217987277
892000  ekin = 2.03626775806652 |  erot = 1.66316771076554 | epot = -21.5129190017506 | etot = -17.8134835329186
893000  ekin = 2.05186124624806 |  erot = 1.5752716113925 | epot = -21.4921943128918 | etot = -17.8650614552512
894000  ekin = 2.09965074001054 |  erot = 1.56560345394424 | epot = -21.4743969884815 | etot = -17.8091427945267
895000  ekin = 2.16252772919142 |  erot = 1.54647539834669 | epot = -21.4549689326413 | etot = -17.7459658051031
896000  ekin = 2.10489706554183 |  erot = 1.78263133107129 | epot = -21.4330314423343 | etot = -17.5455030457212
897000  ekin = 2.15073147494821 |  erot = 1.74536300046879 | epot = -21.4239119831847 | etot = -17.5278175077677
898000  ekin = 2.21697995910577 |  erot = 2.0697876586941 | epot = -21.4471718071731 | etot = -17.1604041893732
899000  ekin = 2.33779396143598 |  erot = 2.00733840871183 | epot = -21.4839889813096 | etot = -17.1388566111618
900000  ekin = 2.41597591914443 |  erot = 1.85133754557128 | epot = -21.5274273367608 | etot = -17.2601138720451
901000  ekin = 2.52644082939946 |  erot = 2.19280268194132 | epot = -21.5756266105074 | etot = -16.8563830991666
902000  ekin = 2.51043073712952 |  erot = 1.85686816359505 | epot = -21.6063552107204 | etot = -17.2390563099959
903000  ekin = 2.6254801850032 |  erot = 1.94554509677337 | epot = -21.6466830430368 | etot = -17.0756577612602
904000  ekin = 2.68604865641952 |  erot = 1.82230313014683 | epot = -21.7065646613497 | etot = -17.1982128747834
905000  ekin = 2.83060251059713 |  erot = 2.01697139484873 | epot = -21.7613929111655 | etot = -16.9138190057197
906000  ekin = 2.94848642766326 |  erot = 1.99957930227816 | epot = -21.7999060542926 | etot = -16.8518403243511
907000  ekin = 2.88672419291329 |  erot = 2.19624352905733 | epot = -21.8240702621865 | etot = -16.7411025402159
908000  ekin = 2.91368680910739 |  erot = 2.27525981289754 | epot = -21.8626935205284 | etot = -16.6737468985235
909000  ekin = 3.0399311133842 |  erot = 2.4181338660187 | epot = -21.8797361081397 | etot = -16.4216711287368
910000  ekin = 3.02111394144684 |  erot = 2.25653445757737 | epot = -21.8869501318906 | etot = -16.6093017328664
911000  ekin = 2.99074440602977 |  erot = 2.42571768981063 | epot = -21.8911591932149 | etot = -16.4746970973745
912000  ekin = 2.9388350389882 |  erot = 2.54048734112232 | epot = -21.8943632676177 | etot = -16.4150408875072
913000  ekin = 2.88155815219754 |  erot = 2.43333021308748 | epot = -21.8712405715108 | etot = -16.5563522062257
914000  ekin = 2.78298688987958 |  erot = 2.69976035391025 | epot = -21.8286041753386 | etot = -16.3458569315488
915000  ekin = 2.7514400944916 |  erot = 2.66679831130742 | epot = -21.7506323099744 | etot = -16.3323939041754
916000  ekin = 2.72328856812533 |  erot = 2.53216922557983 | epot = -21.6421731788437 | etot = -16.3867153851385
917000  ekin = 2.69768821710611 |  erot = 2.47439052917339 | epot = -21.5733596386745 | etot = -16.401280892395
918000  ekin = 2.66995818672158 |  erot = 2.09882686301133 | epot = -21.5521619505363 | etot = -16.7833769008034
919000  ekin = 2.61716147205238 |  erot = 2.17918504384224 | epot = -21.5346780530114 | etot = -16.7383315371168
920000  ekin = 2.4752636050952 |  erot = 2.51685127690442 | epot = -21.4991402053986 | etot = -16.507025323399
921000  ekin = 2.47056876817998 |  erot = 2.49255863309435 | epot = -21.4619591744662 | etot = -16.4988317731919
922000  ekin = 2.58423659960655 |  erot = 2.61648914398982 | epot = -21.4156116153633 | etot = -16.2148858717669
923000  ekin = 2.49375353890865 |  erot = 2.67153957254788 | epot = -21.4001146688765 | etot = -16.2348215574199
924000  ekin = 2.44602138611864 |  erot = 2.6849871570182 | epot = -21.4057397221907 | etot = -16.2747311790539
925000  ekin = 2.40338846624006 |  erot = 3.00424602709663 | epot = -21.4434811046204 | etot = -16.0358466112837
926000  ekin = 2.47488592872435 |  erot = 3.17529768125875 | epot = -21.5232565657781 | etot = -15.873072955795
927000  ekin = 2.40301595960232 |  erot = 3.17662851484981 | epot = -21.6300583966372 | etot = -16.050413922185
928000  ekin = 2.44990005675411 |  erot = 3.45632999664445 | epot = -21.7790682902906 | etot = -15.872838236892
929000  ekin = 2.56646836803309 |  erot = 3.14534753938437 | epot = -21.9043533033891 | etot = -16.1925373959717
930000  ekin = 2.53471244466888 |  erot = 3.3457187787957 | epot = -21.9769628203937 | etot = -16.0965315969291
931000  ekin = 2.50104812028235 |  erot = 3.03046410574105 | epot = -22.0056915593073 | etot = -16.4741793332839
932000  ekin = 2.49568433462376 |  erot = 2.88794958693756 | epot = -21.9962407011233 | etot = -16.612606779562
933000  ekin = 2.38321005751951 |  erot = 2.81796519585765 | epot = -21.9635224592426 | etot = -16.7623472058655
934000  ekin = 2.46317933029144 |  erot = 2.48085702084566 | epot = -21.9076116702184 | etot = -16.9635753190813
935000  ekin = 2.494042694389 |  erot = 2.26805014218364 | epot = -21.8352758876529 | etot = -17.0731830510803
936000  ekin = 2.5430697132387 |  erot = 2.27852041735828 | epot = -21.7446317199061 | etot = -16.9230415893091
937000  ekin = 2.53788333247346 |  erot = 2.23194591805574 | epot = -21.6534356613621 | etot = -16.8836064108329
938000  ekin = 2.56958704064571 |  erot = 2.22382492410293 | epot = -21.6129100017685 | etot = -16.8194980370198
939000  ekin = 2.57422838457721 |  erot = 2.07923538706594 | epot = -21.6279254714879 | etot = -16.9744616998447
940000  ekin = 2.60491982052062 |  erot = 1.98992236153729 | epot = -21.6750092612153 | etot = -17.0801670791574
941000  ekin = 2.66373355701793 |  erot = 2.32917490630082 | epot = -21.764370163331 | etot = -16.7714617000123
942000  ekin = 2.69288932722118 |  erot = 2.640619275087 | epot = -21.8851511920185 | etot = -16.5516425897103
943000  ekin = 2.85220624426593 |  erot = 2.6475855859485 | epot = -22.0439788566384 | etot = -16.544187026424
944000  ekin = 3.0698183844293 |  erot = 2.584326500339 | epot = -22.1868426785132 | etot = -16.5326977937449
945000  ekin = 3.11977740266063 |  erot = 2.7604705229242 | epot = -22.3020466458578 | etot = -16.421798720273
946000  ekin = 3.19652619014303 |  erot = 2.60532859032606 | epot = -22.3840876069666 | etot = -16.5822328264975
947000  ekin = 3.08784085528995 |  erot = 2.30512601523234 | epot = -22.4409982051653 | etot = -17.048031334643
948000  ekin = 3.07667922739837 |  erot = 2.80704322134879 | epot = -22.4646638948264 | etot = -16.5809414460792
949000  ekin = 3.17062900635953 |  erot = 2.74445638705353 | epot = -22.4206065116941 | etot = -16.505521118281
950000  ekin = 2.99689212844042 |  erot = 2.86552970257342 | epot = -22.336181645013 | etot = -16.4737598139991
951000  ekin = 2.97085887473051 |  erot = 2.98485442072158 | epot = -22.2080335641941 | etot = -16.252320268742
952000  ekin = 2.88426317548639 |  erot = 2.88099001925752 | epot = -22.0862048891001 | etot = -16.3209516943562
953000  ekin = 2.79821947299194 |  erot = 2.79125510393654 | epot = -21.9697259248555 | etot = -16.380251347927
954000  ekin = 2.75832450886912 |  erot = 2.42390666106202 | epot = -21.8712203511705 | etot = -16.6889891812394
955000  ekin = 2.87942571582949 |  erot = 2.62352115358357 | epot = -21.7827306606127 | etot = -16.2797837911997
956000  ekin = 2.99654896256508 |  erot = 2.37509995935524 | epot = -21.7003789778445 | etot = -16.3287300559242
957000  ekin = 3.01075252014519 |  erot = 2.0959903323954 | epot = -21.6228190260864 | etot = -16.5160761735458
958000  ekin = 3.08956507051393 |  erot = 2.10771389670703 | epot = -21.5884599129528 | etot = -16.3911809457318
959000  ekin = 3.07649935611857 |  erot = 2.19950747705674 | epot = -21.608299575745 | etot = -16.3322927425697
960000  ekin = 3.10536584557336 |  erot = 2.29678872673574 | epot = -21.6407886898389 | etot = -16.2386341175298
961000  ekin = 3.15824288797258 |  erot = 2.14027743718263 | epot = -21.6571494232644 | etot = -16.3586290981092
962000  ekin = 3.14297945524716 |  erot = 2.20585989326466 | epot = -21.6669948660151 | etot = -16.3181555175033
963000  ekin = 3.09592787201201 |  erot = 1.84946957131998 | epot = -21.6592309502122 | etot = -16.7138335068802
964000  ekin = 3.09941791328147 |  erot = 2.05420199745758 | epot = -21.6348571714205 | etot = -16.4812372606815
965000  ekin = 3.0590978002562 |  erot = 2.03923495471246 | epot = -21.5780802205105 | etot = -16.4797474655419
966000  ekin = 3.14454176510568 |  erot = 2.08245540621284 | epot = -21.4998250637726 | etot = -16.2728278924541
967000  ekin = 3.03869206876045 |  erot = 1.99551102271526 | epot = -21.4455121298548 | etot = -16.4113090383791
968000  ekin = 2.91377375855351 |  erot = 2.20122833628372 | epot = -21.4117922551797 | etot = -16.2967901603425
969000  ekin = 2.99132330213163 |  erot = 2.47698235897901 | epot = -21.356556122341 | etot = -15.8882504612304
970000  ekin = 2.95925005680405 |  erot = 2.48694698427801 | epot = -21.3051309670823 | etot = -15.8589339260003
971000  ekin = 2.85605976500569 |  erot = 2.1530873115416 | epot = -21.2711653081509 | etot = -16.2620182316036
972000  ekin = 2.87454972615782 |  erot = 2.2162227007048 | epot = -21.2533681597902 | etot = -16.1625957329276
973000  ekin = 2.82721122527838 |  erot = 2.35000163924771 | epot = -21.2327108232255 | etot = -16.0554979586994
974000  ekin = 2.72683175865821 |  erot = 2.83125023318122 | epot = -21.2149243536637 | etot = -15.6568423618242
975000  ekin = 2.7058821636302 |  erot = 2.49368474281296 | epot = -21.1936492280793 | etot = -15.9940823216362
976000  ekin = 2.70041722750245 |  erot = 2.45741362546316 | epot = -21.187275504801 | etot = -16.0294446518354
977000  ekin = 2.5945783600864 |  erot = 2.48585482647506 | epot = -21.1832960991299 | etot = -16.1028629125685
978000  ekin = 2.59433384768146 |  erot = 2.25685298850986 | epot = -21.1912738457586 | etot = -16.3400870095673
979000  ekin = 2.65907339789597 |  erot = 2.14939269259699 | epot = -21.2277961745875 | etot = -16.4193300840946
980000  ekin = 2.6800258272481 |  erot = 2.14623475911376 | epot = -21.2888425661003 | etot = -16.4625819797384
981000  ekin = 2.64198792972579 |  erot = 2.09278957349386 | epot = -21.3758129934798 | etot = -16.6410354902601
982000  ekin = 2.72135605208941 |  erot = 2.10484266920753 | epot = -21.469578829443 | etot = -16.6433801081461
983000  ekin = 2.63994960139807 |  erot = 2.23278066526168 | epot = -21.5361373723972 | etot = -16.6634071057375
984000  ekin = 2.61481848524905 |  erot = 2.09640066338756 | epot = -21.5563728487098 | etot = -16.8451537000732
985000  ekin = 2.61123661404095 |  erot = 2.3371171115187 | epot = -21.5280304280228 | etot = -16.5796767024632
986000  ekin = 2.53166588529896 |  erot = 2.51414944396533 | epot = -21.4598136655137 | etot = -16.4139983362494
987000  ekin = 2.51681610277252 |  erot = 2.1560100013963 | epot = -21.3682813084315 | etot = -16.6954552042626
988000  ekin = 2.52900907479865 |  erot = 1.99810184774731 | epot = -21.2423979763254 | etot = -16.7152870537794
989000  ekin = 2.46743393431882 |  erot = 2.1761264782121 | epot = -21.1081947595191 | etot = -16.4646343469882
990000  ekin = 2.33679166273175 |  erot = 2.21492463068876 | epot = -20.9584920898951 | etot = -16.4067757964745
991000  ekin = 2.15649617938395 |  erot = 2.10512589255934 | epot = -20.8223518284059 | etot = -16.5607297564626
992000  ekin = 2.16667762000927 |  erot = 2.36721990012083 | epot = -20.7043891749962 | etot = -16.1704916548661
993000  ekin = 2.19208440550362 |  erot = 2.60766896726695 | epot = -20.6167811931571 | etot = -15.8170278203865
994000  ekin = 2.24324320799042 |  erot = 2.72045204046636 | epot = -20.5394560680998 | etot = -15.5757608196431
995000  ekin = 2.30218249346891 |  erot = 2.38815652338748 | epot = -20.5055629227556 | etot = -15.8152239058992
996000  ekin = 2.42068208522236 |  erot = 2.25149887670444 | epot = -20.5308517273634 | etot = -15.8586707654366
997000  ekin = 2.40906609277991 |  erot = 2.62359663392162 | epot = -20.6100670630842 | etot = -15.5774043363827
998000  ekin = 2.47036155438533 |  erot = 2.72144206830377 | epot = -20.7420376418526 | etot = -15.5502340191635
999000  ekin = 2.48386726649674 |  erot = 3.06416174290219 | epot = -20.8948468865809 | etot = -15.346817877182
1000000  ekin = 2.67285546610894 |  erot = 3.25707361502004 | epot = -21.0717432309422 | etot = -15.1418141498132
 1000000   0.11879358   -1.3439085  0.026924568   -1.1499305 -8.5339515e-05        64000 
Loop time of 31.185 on 4 procs for 1000000 steps with 16 atoms

Performance: 27705.600 tau/day, 32066.666 timesteps/s
96.4% CPU use with 4 MPI tasks x no OpenMP threads

MPI task timing breakdown:
Section |  min time  |  avg time  |  max time  |%varavg| %total
---------------------------------------------------------------
Pair    | 14.443     | 16.691     | 18.812     |  49.1 | 53.52
Bond    | 0.41614    | 0.53705    | 0.60987    |  10.2 |  1.72
Neigh   | 0.026099   | 0.026141   | 0.02616    |   0.0 |  0.08
Comm    | 3.8806     | 4.0753     | 4.3197     |   8.3 | 13.07
Output  | 0.15586    | 0.15985    | 0.16634    |   1.0 |  0.51
Modify  | 1.5962     | 1.8782     | 2.1413     |  17.6 |  6.02
Other   |            | 7.818      |            |       | 25.07

Nlocal:        4.00000 ave           5 max           3 min
Histogram: 2 0 0 0 0 0 0 0 0 2
Nghost:        12.0000 ave          13 max          11 min
Histogram: 2 0 0 0 0 0 0 0 0 2
Neighs:        48.5000 ave          58 max          39 min
Histogram: 2 0 0 0 0 0 0 0 0 2

Total # of neighbors = 194
Ave neighs/atom = 12.125000
Ave special neighs/atom = 3.7500000
Neighbor list builds = 1000
Dangerous builds = 0

write_data last_config.${number}.* nocoeff
write_data last_config.2.* nocoeff
System init for write_data ...
Total wall time: 0:00:31
