
 1800 atoms
 2 atom types
       
 0.00 0.237690E+02 xlo xhi
 0.00 0.247015E+02 ylo yhi
 0.00 0.259564E+02 zlo zhi
 0.0 0.0 0.0 xy xz yz

 Atoms
       
   1  2  2.70    -9.0322200000   -10.2922789113    12.7351615747
   2  2  2.70   -11.4091200000    -6.1753673468    12.7351615747
   3  1 -1.80    -9.9540293580    -8.9199750564    11.8966833333
   4  1 -1.80    11.4380706420    -4.8030634919    11.8966833333
   5  1 -1.80    -9.7597653210   -11.7767411602    11.8966833333
   6  1 -1.80    11.6323346790    -7.6598295957    11.8966833333
   7  1 -1.80    11.6323346790   -10.1801205172    11.8966833333
   8  1 -1.80     9.2554346790    -6.0632089527    11.8966833333
   9  2  2.70   -11.4091200000   -11.6645827661    11.0582050920
  10  2  2.70     9.9829800000    -7.5476712016    11.0582050920
  11  2  2.70   -11.4091200000    -8.9199750564    10.5721282413
  12  2  2.70     9.9829800000    -4.8030634919    10.5721282413
  13  1 -1.80   -10.6815746790   -10.4044373053     9.7336500000
  14  1 -1.80    10.7105253210    -6.2875257408     9.7336500000
  15  1 -1.80    -8.1104106420   -11.6645827661     9.7336500000
  16  1 -1.80   -10.4873106420    -7.5476712016     9.7336500000
  17  1 -1.80    10.7105253210    -8.8078166624     9.7336500000
  18  1 -1.80     8.3336253210    -4.6909050979     9.7336500000
  19  2  2.70    -9.0322200000   -10.2922789113     8.8951717587
  20  2  2.70   -11.4091200000    -6.1753673468     8.8951717587
  21  2  2.70   -11.4091200000   -11.6645827661     8.4090949080
  22  2  2.70     9.9829800000    -7.5476712016     8.4090949080
  23  1 -1.80    -9.7597653210   -11.5524243721     7.5706166667
  24  1 -1.80    11.6323346790    -7.4355128075     7.5706166667
  25  1 -1.80    -9.7597653210    -9.0321334505     7.5706166667
  26  1 -1.80    11.6323346790    -4.9152218860     7.5706166667
  27  1 -1.80    11.4380706420   -10.2922789113     7.5706166667
  28  1 -1.80     9.0611706420    -6.1753673468     7.5706166667
  29  2  2.70   -11.4091200000    -8.9199750564     6.7321384253
  30  2  2.70     9.9829800000    -4.8030634919     6.7321384253
  31  2  2.70    -9.0322200000   -10.2922789113     6.2460615747
  32  2  2.70   -11.4091200000    -6.1753673468     6.2460615747
  33  1 -1.80    10.9047893580    -8.9199750564     5.4075833333
  34  1 -1.80     8.5278893580    -4.8030634919     5.4075833333
  35  1 -1.80    -8.3046746790   -11.7767411602     5.4075833333
  36  1 -1.80   -10.6815746790    -7.6598295957     5.4075833333
  37  1 -1.80   -10.6815746790   -10.1801205172     5.4075833333
  38  1 -1.80    10.7105253210    -6.0632089527     5.4075833333
  39  2  2.70   -11.4091200000   -11.6645827661     4.5691050920
  40  2  2.70     9.9829800000    -7.5476712016     4.5691050920
  41  2  2.70   -11.4091200000    -8.9199750564     4.0830282413
  42  2  2.70     9.9829800000    -4.8030634919     4.0830282413
  43  1 -1.80    -9.9540293580   -11.6645827661     3.2445500000
  44  1 -1.80    11.4380706420    -7.5476712016     3.2445500000
  45  1 -1.80    11.6323346790   -10.4044373053     3.2445500000
  46  1 -1.80     9.2554346790    -6.2875257408     3.2445500000
  47  1 -1.80    -9.7597653210    -8.8078166624     3.2445500000
  48  1 -1.80    11.6323346790    -4.6909050979     3.2445500000
  49  2  2.70    -9.0322200000   -10.2922789113     2.4060717587
  50  2  2.70   -11.4091200000    -6.1753673468     2.4060717587
  51  2  2.70   -11.4091200000   -11.6645827661     1.9199949080
  52  2  2.70     9.9829800000    -7.5476712016     1.9199949080
  53  1 -1.80    10.7105253210    -9.0321334505     1.0815166667
  54  1 -1.80     8.3336253210    -4.9152218860     1.0815166667
  55  1 -1.80    -8.3046746790   -11.5524243721     1.0815166667
  56  1 -1.80   -10.6815746790    -7.4355128075     1.0815166667
  57  1 -1.80   -10.4873106420   -10.2922789113     1.0815166667
  58  1 -1.80    10.9047893580    -6.1753673468     1.0815166667
  59  2  2.70   -11.4091200000    -8.9199750564     0.2430384253
  60  2  2.70     9.9829800000    -4.8030634919     0.2430384253
  61  2  2.70    -4.2784200000   -10.2922789113    12.7351615747
  62  2  2.70    -6.6553200000    -6.1753673468    12.7351615747
  63  1 -1.80    -5.2002293580    -8.9199750564    11.8966833333
  64  1 -1.80    -7.5771293580    -4.8030634919    11.8966833333
  65  1 -1.80    -5.0059653210   -11.7767411602    11.8966833333
  66  1 -1.80    -7.3828653210    -7.6598295957    11.8966833333
  67  1 -1.80    -7.3828653210   -10.1801205172    11.8966833333
  68  1 -1.80    -9.7597653210    -6.0632089527    11.8966833333
  69  2  2.70    -6.6553200000   -11.6645827661    11.0582050920
  70  2  2.70    -9.0322200000    -7.5476712016    11.0582050920
  71  2  2.70    -6.6553200000    -8.9199750564    10.5721282413
  72  2  2.70    -9.0322200000    -4.8030634919    10.5721282413
  73  1 -1.80    -5.9277746790   -10.4044373053     9.7336500000
  74  1 -1.80    -8.3046746790    -6.2875257408     9.7336500000
  75  1 -1.80    -3.3566106420   -11.6645827661     9.7336500000
  76  1 -1.80    -5.7335106420    -7.5476712016     9.7336500000
  77  1 -1.80    -8.3046746790    -8.8078166624     9.7336500000
  78  1 -1.80   -10.6815746790    -4.6909050979     9.7336500000
  79  2  2.70    -4.2784200000   -10.2922789113     8.8951717587
  80  2  2.70    -6.6553200000    -6.1753673468     8.8951717587
  81  2  2.70    -6.6553200000   -11.6645827661     8.4090949080
  82  2  2.70    -9.0322200000    -7.5476712016     8.4090949080
  83  1 -1.80    -5.0059653210   -11.5524243721     7.5706166667
  84  1 -1.80    -7.3828653210    -7.4355128075     7.5706166667
  85  1 -1.80    -5.0059653210    -9.0321334505     7.5706166667
  86  1 -1.80    -7.3828653210    -4.9152218860     7.5706166667
  87  1 -1.80    -7.5771293580   -10.2922789113     7.5706166667
  88  1 -1.80    -9.9540293580    -6.1753673468     7.5706166667
  89  2  2.70    -6.6553200000    -8.9199750564     6.7321384253
  90  2  2.70    -9.0322200000    -4.8030634919     6.7321384253
  91  2  2.70    -4.2784200000   -10.2922789113     6.2460615747
  92  2  2.70    -6.6553200000    -6.1753673468     6.2460615747
  93  1 -1.80    -8.1104106420    -8.9199750564     5.4075833333
  94  1 -1.80   -10.4873106420    -4.8030634919     5.4075833333
  95  1 -1.80    -3.5508746790   -11.7767411602     5.4075833333
  96  1 -1.80    -5.9277746790    -7.6598295957     5.4075833333
  97  1 -1.80    -5.9277746790   -10.1801205172     5.4075833333
  98  1 -1.80    -8.3046746790    -6.0632089527     5.4075833333
  99  2  2.70    -6.6553200000   -11.6645827661     4.5691050920
 100  2  2.70    -9.0322200000    -7.5476712016     4.5691050920
 101  2  2.70    -6.6553200000    -8.9199750564     4.0830282413
 102  2  2.70    -9.0322200000    -4.8030634919     4.0830282413
 103  1 -1.80    -5.2002293580   -11.6645827661     3.2445500000
 104  1 -1.80    -7.5771293580    -7.5476712016     3.2445500000
 105  1 -1.80    -7.3828653210   -10.4044373053     3.2445500000
 106  1 -1.80    -9.7597653210    -6.2875257408     3.2445500000
 107  1 -1.80    -5.0059653210    -8.8078166624     3.2445500000
 108  1 -1.80    -7.3828653210    -4.6909050979     3.2445500000
 109  2  2.70    -4.2784200000   -10.2922789113     2.4060717587
 110  2  2.70    -6.6553200000    -6.1753673468     2.4060717587
 111  2  2.70    -6.6553200000   -11.6645827661     1.9199949080
 112  2  2.70    -9.0322200000    -7.5476712016     1.9199949080
 113  1 -1.80    -8.3046746790    -9.0321334505     1.0815166667
 114  1 -1.80   -10.6815746790    -4.9152218860     1.0815166667
 115  1 -1.80    -3.5508746790   -11.5524243721     1.0815166667
 116  1 -1.80    -5.9277746790    -7.4355128075     1.0815166667
 117  1 -1.80    -5.7335106420   -10.2922789113     1.0815166667
 118  1 -1.80    -8.1104106420    -6.1753673468     1.0815166667
 119  2  2.70    -6.6553200000    -8.9199750564     0.2430384253
 120  2  2.70    -9.0322200000    -4.8030634919     0.2430384253
 121  2  2.70     0.4753800000   -10.2922789113    12.7351615747
 122  2  2.70    -1.9015200000    -6.1753673468    12.7351615747
 123  1 -1.80    -0.4464293580    -8.9199750564    11.8966833333
 124  1 -1.80    -2.8233293580    -4.8030634919    11.8966833333
 125  1 -1.80    -0.2521653210   -11.7767411602    11.8966833333
 126  1 -1.80    -2.6290653210    -7.6598295957    11.8966833333
 127  1 -1.80    -2.6290653210   -10.1801205172    11.8966833333
 128  1 -1.80    -5.0059653210    -6.0632089527    11.8966833333
 129  2  2.70    -1.9015200000   -11.6645827661    11.0582050920
 130  2  2.70    -4.2784200000    -7.5476712016    11.0582050920
 131  2  2.70    -1.9015200000    -8.9199750564    10.5721282413
 132  2  2.70    -4.2784200000    -4.8030634919    10.5721282413
 133  1 -1.80    -1.1739746790   -10.4044373053     9.7336500000
 134  1 -1.80    -3.5508746790    -6.2875257408     9.7336500000
 135  1 -1.80     1.3971893580   -11.6645827661     9.7336500000
 136  1 -1.80    -0.9797106420    -7.5476712016     9.7336500000
 137  1 -1.80    -3.5508746790    -8.8078166624     9.7336500000
 138  1 -1.80    -5.9277746790    -4.6909050979     9.7336500000
 139  2  2.70     0.4753800000   -10.2922789113     8.8951717587
 140  2  2.70    -1.9015200000    -6.1753673468     8.8951717587
 141  2  2.70    -1.9015200000   -11.6645827661     8.4090949080
 142  2  2.70    -4.2784200000    -7.5476712016     8.4090949080
 143  1 -1.80    -0.2521653210   -11.5524243721     7.5706166667
 144  1 -1.80    -2.6290653210    -7.4355128075     7.5706166667
 145  1 -1.80    -0.2521653210    -9.0321334505     7.5706166667
 146  1 -1.80    -2.6290653210    -4.9152218860     7.5706166667
 147  1 -1.80    -2.8233293580   -10.2922789113     7.5706166667
 148  1 -1.80    -5.2002293580    -6.1753673468     7.5706166667
 149  2  2.70    -1.9015200000    -8.9199750564     6.7321384253
 150  2  2.70    -4.2784200000    -4.8030634919     6.7321384253
 151  2  2.70     0.4753800000   -10.2922789113     6.2460615747
 152  2  2.70    -1.9015200000    -6.1753673468     6.2460615747
 153  1 -1.80    -3.3566106420    -8.9199750564     5.4075833333
 154  1 -1.80    -5.7335106420    -4.8030634919     5.4075833333
 155  1 -1.80     1.2029253210   -11.7767411602     5.4075833333
 156  1 -1.80    -1.1739746790    -7.6598295957     5.4075833333
 157  1 -1.80    -1.1739746790   -10.1801205172     5.4075833333
 158  1 -1.80    -3.5508746790    -6.0632089527     5.4075833333
 159  2  2.70    -1.9015200000   -11.6645827661     4.5691050920
 160  2  2.70    -4.2784200000    -7.5476712016     4.5691050920
 161  2  2.70    -1.9015200000    -8.9199750564     4.0830282413
 162  2  2.70    -4.2784200000    -4.8030634919     4.0830282413
 163  1 -1.80    -0.4464293580   -11.6645827661     3.2445500000
 164  1 -1.80    -2.8233293580    -7.5476712016     3.2445500000
 165  1 -1.80    -2.6290653210   -10.4044373053     3.2445500000
 166  1 -1.80    -5.0059653210    -6.2875257408     3.2445500000
 167  1 -1.80    -0.2521653210    -8.8078166624     3.2445500000
 168  1 -1.80    -2.6290653210    -4.6909050979     3.2445500000
 169  2  2.70     0.4753800000   -10.2922789113     2.4060717587
 170  2  2.70    -1.9015200000    -6.1753673468     2.4060717587
 171  2  2.70    -1.9015200000   -11.6645827661     1.9199949080
 172  2  2.70    -4.2784200000    -7.5476712016     1.9199949080
 173  1 -1.80    -3.5508746790    -9.0321334505     1.0815166667
 174  1 -1.80    -5.9277746790    -4.9152218860     1.0815166667
 175  1 -1.80     1.2029253210   -11.5524243721     1.0815166667
 176  1 -1.80    -1.1739746790    -7.4355128075     1.0815166667
 177  1 -1.80    -0.9797106420   -10.2922789113     1.0815166667
 178  1 -1.80    -3.3566106420    -6.1753673468     1.0815166667
 179  2  2.70    -1.9015200000    -8.9199750564     0.2430384253
 180  2  2.70    -4.2784200000    -4.8030634919     0.2430384253
 181  2  2.70     5.2291800000   -10.2922789113    12.7351615747
 182  2  2.70     2.8522800000    -6.1753673468    12.7351615747
 183  1 -1.80     4.3073706420    -8.9199750564    11.8966833333
 184  1 -1.80     1.9304706420    -4.8030634919    11.8966833333
 185  1 -1.80     4.5016346790   -11.7767411602    11.8966833333
 186  1 -1.80     2.1247346790    -7.6598295957    11.8966833333
 187  1 -1.80     2.1247346790   -10.1801205172    11.8966833333
 188  1 -1.80    -0.2521653210    -6.0632089527    11.8966833333
 189  2  2.70     2.8522800000   -11.6645827661    11.0582050920
 190  2  2.70     0.4753800000    -7.5476712016    11.0582050920
 191  2  2.70     2.8522800000    -8.9199750564    10.5721282413
 192  2  2.70     0.4753800000    -4.8030634919    10.5721282413
 193  1 -1.80     3.5798253210   -10.4044373053     9.7336500000
 194  1 -1.80     1.2029253210    -6.2875257408     9.7336500000
 195  1 -1.80     6.1509893580   -11.6645827661     9.7336500000
 196  1 -1.80     3.7740893580    -7.5476712016     9.7336500000
 197  1 -1.80     1.2029253210    -8.8078166624     9.7336500000
 198  1 -1.80    -1.1739746790    -4.6909050979     9.7336500000
 199  2  2.70     5.2291800000   -10.2922789113     8.8951717587
 200  2  2.70     2.8522800000    -6.1753673468     8.8951717587
 201  2  2.70     2.8522800000   -11.6645827661     8.4090949080
 202  2  2.70     0.4753800000    -7.5476712016     8.4090949080
 203  1 -1.80     4.5016346790   -11.5524243721     7.5706166667
 204  1 -1.80     2.1247346790    -7.4355128075     7.5706166667
 205  1 -1.80     4.5016346790    -9.0321334505     7.5706166667
 206  1 -1.80     2.1247346790    -4.9152218860     7.5706166667
 207  1 -1.80     1.9304706420   -10.2922789113     7.5706166667
 208  1 -1.80    -0.4464293580    -6.1753673468     7.5706166667
 209  2  2.70     2.8522800000    -8.9199750564     6.7321384253
 210  2  2.70     0.4753800000    -4.8030634919     6.7321384253
 211  2  2.70     5.2291800000   -10.2922789113     6.2460615747
 212  2  2.70     2.8522800000    -6.1753673468     6.2460615747
 213  1 -1.80     1.3971893580    -8.9199750564     5.4075833333
 214  1 -1.80    -0.9797106420    -4.8030634919     5.4075833333
 215  1 -1.80     5.9567253210   -11.7767411602     5.4075833333
 216  1 -1.80     3.5798253210    -7.6598295957     5.4075833333
 217  1 -1.80     3.5798253210   -10.1801205172     5.4075833333
 218  1 -1.80     1.2029253210    -6.0632089527     5.4075833333
 219  2  2.70     2.8522800000   -11.6645827661     4.5691050920
 220  2  2.70     0.4753800000    -7.5476712016     4.5691050920
 221  2  2.70     2.8522800000    -8.9199750564     4.0830282413
 222  2  2.70     0.4753800000    -4.8030634919     4.0830282413
 223  1 -1.80     4.3073706420   -11.6645827661     3.2445500000
 224  1 -1.80     1.9304706420    -7.5476712016     3.2445500000
 225  1 -1.80     2.1247346790   -10.4044373053     3.2445500000
 226  1 -1.80    -0.2521653210    -6.2875257408     3.2445500000
 227  1 -1.80     4.5016346790    -8.8078166624     3.2445500000
 228  1 -1.80     2.1247346790    -4.6909050979     3.2445500000
 229  2  2.70     5.2291800000   -10.2922789113     2.4060717587
 230  2  2.70     2.8522800000    -6.1753673468     2.4060717587
 231  2  2.70     2.8522800000   -11.6645827661     1.9199949080
 232  2  2.70     0.4753800000    -7.5476712016     1.9199949080
 233  1 -1.80     1.2029253210    -9.0321334505     1.0815166667
 234  1 -1.80    -1.1739746790    -4.9152218860     1.0815166667
 235  1 -1.80     5.9567253210   -11.5524243721     1.0815166667
 236  1 -1.80     3.5798253210    -7.4355128075     1.0815166667
 237  1 -1.80     3.7740893580   -10.2922789113     1.0815166667
 238  1 -1.80     1.3971893580    -6.1753673468     1.0815166667
 239  2  2.70     2.8522800000    -8.9199750564     0.2430384253
 240  2  2.70     0.4753800000    -4.8030634919     0.2430384253
 241  2  2.70     9.9829800000   -10.2922789113    12.7351615747
 242  2  2.70     7.6060800000    -6.1753673468    12.7351615747
 243  1 -1.80     9.0611706420    -8.9199750564    11.8966833333
 244  1 -1.80     6.6842706420    -4.8030634919    11.8966833333
 245  1 -1.80     9.2554346790   -11.7767411602    11.8966833333
 246  1 -1.80     6.8785346790    -7.6598295957    11.8966833333
 247  1 -1.80     6.8785346790   -10.1801205172    11.8966833333
 248  1 -1.80     4.5016346790    -6.0632089527    11.8966833333
 249  2  2.70     7.6060800000   -11.6645827661    11.0582050920
 250  2  2.70     5.2291800000    -7.5476712016    11.0582050920
 251  2  2.70     7.6060800000    -8.9199750564    10.5721282413
 252  2  2.70     5.2291800000    -4.8030634919    10.5721282413
 253  1 -1.80     8.3336253210   -10.4044373053     9.7336500000
 254  1 -1.80     5.9567253210    -6.2875257408     9.7336500000
 255  1 -1.80    10.9047893580   -11.6645827661     9.7336500000
 256  1 -1.80     8.5278893580    -7.5476712016     9.7336500000
 257  1 -1.80     5.9567253210    -8.8078166624     9.7336500000
 258  1 -1.80     3.5798253210    -4.6909050979     9.7336500000
 259  2  2.70     9.9829800000   -10.2922789113     8.8951717587
 260  2  2.70     7.6060800000    -6.1753673468     8.8951717587
 261  2  2.70     7.6060800000   -11.6645827661     8.4090949080
 262  2  2.70     5.2291800000    -7.5476712016     8.4090949080
 263  1 -1.80     9.2554346790   -11.5524243721     7.5706166667
 264  1 -1.80     6.8785346790    -7.4355128075     7.5706166667
 265  1 -1.80     9.2554346790    -9.0321334505     7.5706166667
 266  1 -1.80     6.8785346790    -4.9152218860     7.5706166667
 267  1 -1.80     6.6842706420   -10.2922789113     7.5706166667
 268  1 -1.80     4.3073706420    -6.1753673468     7.5706166667
 269  2  2.70     7.6060800000    -8.9199750564     6.7321384253
 270  2  2.70     5.2291800000    -4.8030634919     6.7321384253
 271  2  2.70     9.9829800000   -10.2922789113     6.2460615747
 272  2  2.70     7.6060800000    -6.1753673468     6.2460615747
 273  1 -1.80     6.1509893580    -8.9199750564     5.4075833333
 274  1 -1.80     3.7740893580    -4.8030634919     5.4075833333
 275  1 -1.80    10.7105253210   -11.7767411602     5.4075833333
 276  1 -1.80     8.3336253210    -7.6598295957     5.4075833333
 277  1 -1.80     8.3336253210   -10.1801205172     5.4075833333
 278  1 -1.80     5.9567253210    -6.0632089527     5.4075833333
 279  2  2.70     7.6060800000   -11.6645827661     4.5691050920
 280  2  2.70     5.2291800000    -7.5476712016     4.5691050920
 281  2  2.70     7.6060800000    -8.9199750564     4.0830282413
 282  2  2.70     5.2291800000    -4.8030634919     4.0830282413
 283  1 -1.80     9.0611706420   -11.6645827661     3.2445500000
 284  1 -1.80     6.6842706420    -7.5476712016     3.2445500000
 285  1 -1.80     6.8785346790   -10.4044373053     3.2445500000
 286  1 -1.80     4.5016346790    -6.2875257408     3.2445500000
 287  1 -1.80     9.2554346790    -8.8078166624     3.2445500000
 288  1 -1.80     6.8785346790    -4.6909050979     3.2445500000
 289  2  2.70     9.9829800000   -10.2922789113     2.4060717587
 290  2  2.70     7.6060800000    -6.1753673468     2.4060717587
 291  2  2.70     7.6060800000   -11.6645827661     1.9199949080
 292  2  2.70     5.2291800000    -7.5476712016     1.9199949080
 293  1 -1.80     5.9567253210    -9.0321334505     1.0815166667
 294  1 -1.80     3.5798253210    -4.9152218860     1.0815166667
 295  1 -1.80    10.7105253210   -11.5524243721     1.0815166667
 296  1 -1.80     8.3336253210    -7.4355128075     1.0815166667
 297  1 -1.80     8.5278893580   -10.2922789113     1.0815166667
 298  1 -1.80     6.1509893580    -6.1753673468     1.0815166667
 299  2  2.70     7.6060800000    -8.9199750564     0.2430384253
 300  2  2.70     5.2291800000    -4.8030634919     0.2430384253
 301  2  2.70    -9.0322200000    -2.0584557823    12.7351615747
 302  2  2.70   -11.4091200000     2.0584557823    12.7351615747
 303  1 -1.80    -9.9540293580    -0.6861519274    11.8966833333
 304  1 -1.80    11.4380706420     3.4307596371    11.8966833333
 305  1 -1.80    -9.7597653210    -3.5429180311    11.8966833333
 306  1 -1.80    11.6323346790     0.5739935334    11.8966833333
 307  1 -1.80    11.6323346790    -1.9462973882    11.8966833333
 308  1 -1.80     9.2554346790     2.1706141763    11.8966833333
 309  2  2.70   -11.4091200000    -3.4307596371    11.0582050920
 310  2  2.70     9.9829800000     0.6861519274    11.0582050920
 311  2  2.70   -11.4091200000    -0.6861519274    10.5721282413
 312  2  2.70     9.9829800000     3.4307596371    10.5721282413
 313  1 -1.80   -10.6815746790    -2.1706141763     9.7336500000
 314  1 -1.80    10.7105253210     1.9462973882     9.7336500000
 315  1 -1.80    -8.1104106420    -3.4307596371     9.7336500000
 316  1 -1.80   -10.4873106420     0.6861519274     9.7336500000
 317  1 -1.80    10.7105253210    -0.5739935334     9.7336500000
 318  1 -1.80     8.3336253210     3.5429180311     9.7336500000
 319  2  2.70    -9.0322200000    -2.0584557823     8.8951717587
 320  2  2.70   -11.4091200000     2.0584557823     8.8951717587
 321  2  2.70   -11.4091200000    -3.4307596371     8.4090949080
 322  2  2.70     9.9829800000     0.6861519274     8.4090949080
 323  1 -1.80    -9.7597653210    -3.3186012430     7.5706166667
 324  1 -1.80    11.6323346790     0.7983103215     7.5706166667
 325  1 -1.80    -9.7597653210    -0.7983103215     7.5706166667
 326  1 -1.80    11.6323346790     3.3186012430     7.5706166667
 327  1 -1.80    11.4380706420    -2.0584557823     7.5706166667
 328  1 -1.80     9.0611706420     2.0584557823     7.5706166667
 329  2  2.70   -11.4091200000    -0.6861519274     6.7321384253
 330  2  2.70     9.9829800000     3.4307596371     6.7321384253
 331  2  2.70    -9.0322200000    -2.0584557823     6.2460615747
 332  2  2.70   -11.4091200000     2.0584557823     6.2460615747
 333  1 -1.80    10.9047893580    -0.6861519274     5.4075833333
 334  1 -1.80     8.5278893580     3.4307596371     5.4075833333
 335  1 -1.80    -8.3046746790    -3.5429180311     5.4075833333
 336  1 -1.80   -10.6815746790     0.5739935334     5.4075833333
 337  1 -1.80   -10.6815746790    -1.9462973882     5.4075833333
 338  1 -1.80    10.7105253210     2.1706141763     5.4075833333
 339  2  2.70   -11.4091200000    -3.4307596371     4.5691050920
 340  2  2.70     9.9829800000     0.6861519274     4.5691050920
 341  2  2.70   -11.4091200000    -0.6861519274     4.0830282413
 342  2  2.70     9.9829800000     3.4307596371     4.0830282413
 343  1 -1.80    -9.9540293580    -3.4307596371     3.2445500000
 344  1 -1.80    11.4380706420     0.6861519274     3.2445500000
 345  1 -1.80    11.6323346790    -2.1706141763     3.2445500000
 346  1 -1.80     9.2554346790     1.9462973882     3.2445500000
 347  1 -1.80    -9.7597653210    -0.5739935334     3.2445500000
 348  1 -1.80    11.6323346790     3.5429180311     3.2445500000
 349  2  2.70    -9.0322200000    -2.0584557823     2.4060717587
 350  2  2.70   -11.4091200000     2.0584557823     2.4060717587
 351  2  2.70   -11.4091200000    -3.4307596371     1.9199949080
 352  2  2.70     9.9829800000     0.6861519274     1.9199949080
 353  1 -1.80    10.7105253210    -0.7983103215     1.0815166667
 354  1 -1.80     8.3336253210     3.3186012430     1.0815166667
 355  1 -1.80    -8.3046746790    -3.3186012430     1.0815166667
 356  1 -1.80   -10.6815746790     0.7983103215     1.0815166667
 357  1 -1.80   -10.4873106420    -2.0584557823     1.0815166667
 358  1 -1.80    10.9047893580     2.0584557823     1.0815166667
 359  2  2.70   -11.4091200000    -0.6861519274     0.2430384253
 360  2  2.70     9.9829800000     3.4307596371     0.2430384253
 361  2  2.70    -4.2784200000    -2.0584557823    12.7351615747
 362  2  2.70    -6.6553200000     2.0584557823    12.7351615747
 363  1 -1.80    -5.2002293580    -0.6861519274    11.8966833333
 364  1 -1.80    -7.5771293580     3.4307596371    11.8966833333
 365  1 -1.80    -5.0059653210    -3.5429180311    11.8966833333
 366  1 -1.80    -7.3828653210     0.5739935334    11.8966833333
 367  1 -1.80    -7.3828653210    -1.9462973882    11.8966833333
 368  1 -1.80    -9.7597653210     2.1706141763    11.8966833333
 369  2  2.70    -6.6553200000    -3.4307596371    11.0582050920
 370  2  2.70    -9.0322200000     0.6861519274    11.0582050920
 371  2  2.70    -6.6553200000    -0.6861519274    10.5721282413
 372  2  2.70    -9.0322200000     3.4307596371    10.5721282413
 373  1 -1.80    -5.9277746790    -2.1706141763     9.7336500000
 374  1 -1.80    -8.3046746790     1.9462973882     9.7336500000
 375  1 -1.80    -3.3566106420    -3.4307596371     9.7336500000
 376  1 -1.80    -5.7335106420     0.6861519274     9.7336500000
 377  1 -1.80    -8.3046746790    -0.5739935334     9.7336500000
 378  1 -1.80   -10.6815746790     3.5429180311     9.7336500000
 379  2  2.70    -4.2784200000    -2.0584557823     8.8951717587
 380  2  2.70    -6.6553200000     2.0584557823     8.8951717587
 381  2  2.70    -6.6553200000    -3.4307596371     8.4090949080
 382  2  2.70    -9.0322200000     0.6861519274     8.4090949080
 383  1 -1.80    -5.0059653210    -3.3186012430     7.5706166667
 384  1 -1.80    -7.3828653210     0.7983103215     7.5706166667
 385  1 -1.80    -5.0059653210    -0.7983103215     7.5706166667
 386  1 -1.80    -7.3828653210     3.3186012430     7.5706166667
 387  1 -1.80    -7.5771293580    -2.0584557823     7.5706166667
 388  1 -1.80    -9.9540293580     2.0584557823     7.5706166667
 389  2  2.70    -6.6553200000    -0.6861519274     6.7321384253
 390  2  2.70    -9.0322200000     3.4307596371     6.7321384253
 391  2  2.70    -4.2784200000    -2.0584557823     6.2460615747
 392  2  2.70    -6.6553200000     2.0584557823     6.2460615747
 393  1 -1.80    -8.1104106420    -0.6861519274     5.4075833333
 394  1 -1.80   -10.4873106420     3.4307596371     5.4075833333
 395  1 -1.80    -3.5508746790    -3.5429180311     5.4075833333
 396  1 -1.80    -5.9277746790     0.5739935334     5.4075833333
 397  1 -1.80    -5.9277746790    -1.9462973882     5.4075833333
 398  1 -1.80    -8.3046746790     2.1706141763     5.4075833333
 399  2  2.70    -6.6553200000    -3.4307596371     4.5691050920
 400  2  2.70    -9.0322200000     0.6861519274     4.5691050920
 401  2  2.70    -6.6553200000    -0.6861519274     4.0830282413
 402  2  2.70    -9.0322200000     3.4307596371     4.0830282413
 403  1 -1.80    -5.2002293580    -3.4307596371     3.2445500000
 404  1 -1.80    -7.5771293580     0.6861519274     3.2445500000
 405  1 -1.80    -7.3828653210    -2.1706141763     3.2445500000
 406  1 -1.80    -9.7597653210     1.9462973882     3.2445500000
 407  1 -1.80    -5.0059653210    -0.5739935334     3.2445500000
 408  1 -1.80    -7.3828653210     3.5429180311     3.2445500000
 409  2  2.70    -4.2784200000    -2.0584557823     2.4060717587
 410  2  2.70    -6.6553200000     2.0584557823     2.4060717587
 411  2  2.70    -6.6553200000    -3.4307596371     1.9199949080
 412  2  2.70    -9.0322200000     0.6861519274     1.9199949080
 413  1 -1.80    -8.3046746790    -0.7983103215     1.0815166667
 414  1 -1.80   -10.6815746790     3.3186012430     1.0815166667
 415  1 -1.80    -3.5508746790    -3.3186012430     1.0815166667
 416  1 -1.80    -5.9277746790     0.7983103215     1.0815166667
 417  1 -1.80    -5.7335106420    -2.0584557823     1.0815166667
 418  1 -1.80    -8.1104106420     2.0584557823     1.0815166667
 419  2  2.70    -6.6553200000    -0.6861519274     0.2430384253
 420  2  2.70    -9.0322200000     3.4307596371     0.2430384253
 421  2  2.70     0.4753800000    -2.0584557823    12.7351615747
 422  2  2.70    -1.9015200000     2.0584557823    12.7351615747
 423  1 -1.80    -0.4464293580    -0.6861519274    11.8966833333
 424  1 -1.80    -2.8233293580     3.4307596371    11.8966833333
 425  1 -1.80    -0.2521653210    -3.5429180311    11.8966833333
 426  1 -1.80    -2.6290653210     0.5739935334    11.8966833333
 427  1 -1.80    -2.6290653210    -1.9462973882    11.8966833333
 428  1 -1.80    -5.0059653210     2.1706141763    11.8966833333
 429  2  2.70    -1.9015200000    -3.4307596371    11.0582050920
 430  2  2.70    -4.2784200000     0.6861519274    11.0582050920
 431  2  2.70    -1.9015200000    -0.6861519274    10.5721282413
 432  2  2.70    -4.2784200000     3.4307596371    10.5721282413
 433  1 -1.80    -1.1739746790    -2.1706141763     9.7336500000
 434  1 -1.80    -3.5508746790     1.9462973882     9.7336500000
 435  1 -1.80     1.3971893580    -3.4307596371     9.7336500000
 436  1 -1.80    -0.9797106420     0.6861519274     9.7336500000
 437  1 -1.80    -3.5508746790    -0.5739935334     9.7336500000
 438  1 -1.80    -5.9277746790     3.5429180311     9.7336500000
 439  2  2.70     0.4753800000    -2.0584557823     8.8951717587
 440  2  2.70    -1.9015200000     2.0584557823     8.8951717587
 441  2  2.70    -1.9015200000    -3.4307596371     8.4090949080
 442  2  2.70    -4.2784200000     0.6861519274     8.4090949080
 443  1 -1.80    -0.2521653210    -3.3186012430     7.5706166667
 444  1 -1.80    -2.6290653210     0.7983103215     7.5706166667
 445  1 -1.80    -0.2521653210    -0.7983103215     7.5706166667
 446  1 -1.80    -2.6290653210     3.3186012430     7.5706166667
 447  1 -1.80    -2.8233293580    -2.0584557823     7.5706166667
 448  1 -1.80    -5.2002293580     2.0584557823     7.5706166667
 449  2  2.70    -1.9015200000    -0.6861519274     6.7321384253
 450  2  2.70    -4.2784200000     3.4307596371     6.7321384253
 451  2  2.70     0.4753800000    -2.0584557823     6.2460615747
 452  2  2.70    -1.9015200000     2.0584557823     6.2460615747
 453  1 -1.80    -3.3566106420    -0.6861519274     5.4075833333
 454  1 -1.80    -5.7335106420     3.4307596371     5.4075833333
 455  1 -1.80     1.2029253210    -3.5429180311     5.4075833333
 456  1 -1.80    -1.1739746790     0.5739935334     5.4075833333
 457  1 -1.80    -1.1739746790    -1.9462973882     5.4075833333
 458  1 -1.80    -3.5508746790     2.1706141763     5.4075833333
 459  2  2.70    -1.9015200000    -3.4307596371     4.5691050920