units           lj
atom_style	hybrid dipole sphere
WARNING: Atom_style hybrid defines both pertype and peratom masses - both must be set, only peratom masses will be used (src/atom_vec_hybrid.cpp:157)
dimension       3
newton off


lattice         sc 0.4
Lattice spacing in x,y,z = 1.3572088 1.3572088 1.3572088
region          box block -8 8 -8 8 -8 8
create_box      1 box
Created orthogonal box = (-10.857670 -10.857670 -10.857670) to (10.857670 10.857670 10.857670)
  1 by 1 by 1 MPI processor grid
create_atoms    1 box
Created 4096 atoms
  create_atoms CPU = 0.003 seconds
mass            * 1.0
set             type  * dipole/random ${seed} 1.0
set             type  * dipole/random 1974019 1.0
Setting atom values ...
  4096 settings made for dipole/random
velocity        all create 1.0 1 loop geom

pair_style none

# overdamped brownian dynamics time-step
fix         step all brownian/sphere ${gamma_t} ${gamma_r} ${D_t} ${D_r} ${seed} dipole
fix         step all brownian/sphere 1 ${gamma_r} ${D_t} ${D_r} ${seed} dipole
fix         step all brownian/sphere 1 1 ${D_t} ${D_r} ${seed} dipole
fix         step all brownian/sphere 1 1 1 ${D_r} ${seed} dipole
fix         step all brownian/sphere 1 1 1 3 ${seed} dipole
fix         step all brownian/sphere 1 1 1 3 1974019 dipole
# self-propulsion force along the dipole direction
fix	    activity all propel/self dipole ${fp}
fix	    activity all propel/self dipole 4


compute press all pressure NULL virial

thermo_style    custom step temp epair c_press

#equilibration
timestep        0.0000000001
thermo          50001
run             50000
WARNING: No pairwise cutoff or binsize set. Atom sorting therefore disabled. (src/atom.cpp:2118)
WARNING: Communication cutoff is 0.0. No ghost atoms will be generated. Atoms may get lost. (src/comm_brick.cpp:167)
Per MPI rank memory allocation (min/avg/max) = 4.362 | 4.362 | 4.362 Mbytes
Step Temp E_pair c_press 
       0            1            0  0.068021726 
   50000 1.0486812e+10            0  0.068203091 
Loop time of 25.3706 on 1 procs for 50000 steps with 4096 atoms

Performance: 0.017 tau/day, 1970.786 timesteps/s
100.0% CPU use with 1 MPI tasks x 1 OpenMP threads

MPI task timing breakdown:
Section |  min time  |  avg time  |  max time  |%varavg| %total
---------------------------------------------------------------
Pair    | 0          | 0          | 0          |   0.0 |  0.00
Neigh   | 0          | 0          | 0          |   0.0 |  0.00
Comm    | 0.31005    | 0.31005    | 0.31005    |   0.0 |  1.22
Output  | 3.2633e-05 | 3.2633e-05 | 3.2633e-05 |   0.0 |  0.00
Modify  | 24.471     | 24.471     | 24.471     |   0.0 | 96.45
Other   |            | 0.5897     |            |       |  2.32

Nlocal:        4096.00 ave        4096 max        4096 min
Histogram: 1 0 0 0 0 0 0 0 0 0
Nghost:        817.000 ave         817 max         817 min
Histogram: 1 0 0 0 0 0 0 0 0 0
Neighs:         0.00000 ave           0 max           0 min
Histogram: 1 0 0 0 0 0 0 0 0 0

Total # of neighbors = 0
Ave neighs/atom = 0.0000000
Neighbor list builds = 0
Dangerous builds = 0
reset_timestep  0


# MSD to demonstrate expected diffusive behaviour for ideal active
# brownian motion, which is
#
#      MSD = (2*d*D_t + 2*fp**2/(gamma_t**2*(d-1)*D_r))*t
#
# with d being simulation dimension
compute         msd  all msd


thermo_style    custom step temp epair c_msd[*] c_press


timestep        0.00001
thermo          10000

# main run
run             120000
WARNING: Communication cutoff is 0.0. No ghost atoms will be generated. Atoms may get lost. (src/comm_brick.cpp:167)
Per MPI rank memory allocation (min/avg/max) = 4.737 | 4.737 | 4.737 Mbytes
Step Temp E_pair c_msd[1] c_msd[2] c_msd[3] c_msd[4] c_press 
       0 1.0486812e+10            0            0            0            0            0  0.068203091 
   10000    104209.87            0   0.25428952    0.2512451   0.23617807   0.74171269    0.1910208 
   20000    104433.46            0   0.55611319   0.57499464   0.54362634    1.6747342   0.27977792 
   30000    104615.53            0   0.88377871    0.8933002   0.88683731    2.6639162   0.31709969 
   40000     105930.5            0    1.2301515     1.262995    1.2479624    3.7411089   0.26149988 
   50000    105556.39            0    1.5798848    1.6402779    1.6392277    4.8593905   0.34401188 
   60000    104644.58            0    1.9782384    1.9902061    2.0327974    6.0012419   0.26709167 
   70000    104314.31            0    2.3681872    2.3695505    2.4241916    7.1619294   0.24191407 
   80000       105700            0    2.7109374    2.7434271    2.8309194    8.2852839   0.28355159 
   90000    103411.61            0    3.1023448    3.0881218    3.1599155     9.350382    0.3070844 
  100000    105432.12            0    3.4853878    3.4372177    3.5153198    10.437925   0.28141015 
  110000    105723.04            0    3.8405786    3.7967805    3.8738332    11.511192   0.33248553 
  120000    104734.31            0    4.2454301    4.1714561    4.2234474    12.640334    0.3603781 
Loop time of 63.7803 on 1 procs for 120000 steps with 4096 atoms

Performance: 1625.581 tau/day, 1881.459 timesteps/s
100.0% CPU use with 1 MPI tasks x 1 OpenMP threads

MPI task timing breakdown:
Section |  min time  |  avg time  |  max time  |%varavg| %total
---------------------------------------------------------------
Pair    | 0          | 0          | 0          |   0.0 |  0.00
Neigh   | 0.013032   | 0.013032   | 0.013032   |   0.0 |  0.02
Comm    | 0.093045   | 0.093045   | 0.093045   |   0.0 |  0.15
Output  | 0.00069845 | 0.00069845 | 0.00069845 |   0.0 |  0.00
Modify  | 62.279     | 62.279     | 62.279     |   0.0 | 97.65
Other   |            | 1.394      |            |       |  2.19

Nlocal:        4096.00 ave        4096 max        4096 min
Histogram: 1 0 0 0 0 0 0 0 0 0
Nghost:         0.00000 ave           0 max           0 min
Histogram: 1 0 0 0 0 0 0 0 0 0
Neighs:         0.00000 ave           0 max           0 min
Histogram: 1 0 0 0 0 0 0 0 0 0

Total # of neighbors = 0
Ave neighs/atom = 0.0000000
Neighbor list builds = 2174
Dangerous builds = 0

# if you want to check that rotational diffusion is behaving as expected,
# uncomment next three lines for dump output and then plot <e(t).e(0)>,
# which should decay exponentially with timescale (d-1)*D_r (with d
# being simulation dimension)

#dump            1 all custom 2000 dump_ideal_${params}_3d.lammpstrj id type #		x y xu yu mux muy muz fx fy fz
#dump_modify     1 first yes sort id

#run             120000
Total wall time: 0:01:29
