ITEM: TIMESTEP
0
ITEM: NUMBER OF ATOMS
5040
ITEM: BOX BOUNDS
0 29
0 38.2612
0 44.7998
ITEM: ATOMS
6 2 0.0128126 0.285326 0.0269111
7 1 0.254263 0.146748 0.0747134
8 2 0.25307 0.161941 0.055462
9 2 0.221114 0.136753 0.0766662
10 1 0.336956 0.101456 0.0624377
11 2 0.310347 0.117308 0.0686946
12 2 0.344593 0.114757 0.0430855
13 1 0.117106 0.285279 0.0375226
14 2 0.0884653 0.286501 0.0250207
15 2 0.10687 0.269002 0.0533503
16 1 0.258596 0.0192883 0.0577893
17 2 0.239526 0.039737 0.0492847
18 2 0.256767 0.00348364 0.0397078
19 1 0.00446372 0.0594207 0.0435464
20 2 0.00562101 0.0554383 0.0661439
22 1 0.178248 0.0606883 0.0501148
23 2 0.152716 0.0703375 0.0372524
24 2 0.172111 0.0652941 0.0721351
25 1 0.159099 0.102456 0.101464
26 2 0.124423 0.105185 0.106743
27 2 0.176128 0.111794 0.119704
28 1 0.0810408 0.10802 0.126875
29 2 0.0836352 0.0857544 0.138923
30 2 0.0803091 0.126766 0.142554
31 1 0.238777 0.0341098 0.288853
32 2 0.217602 0.0208522 0.274959
33 2 0.268941 0.0367707 0.27773
34 1 0.349427 0.0278385 0.0749485
35 2 0.348042 0.054142 0.0686752
36 2 0.316345 0.0185199 0.0710787
43 1 0.0736948 0.0255111 0.141233
44 2 0.0432075 0.0145513 0.146967
45 2 0.0715025 0.0256487 0.118004
50 2 0.104903 0.139094 0.321649
51 2 0.0838344 0.099528 0.330082
58 1 0.318181 0.128545 0.265373
59 2 0.301586 0.14819 0.255956
60 2 0.333474 0.113381 0.249486
61 1 0.307846 0.104393 0.199069
62 2 0.27506 0.100858 0.207625
63 2 0.312159 0.0865584 0.182285
64 1 0.0522759 0.000837569 0.206141
91 1 0.101719 0.0497678 0.315694
93 2 0.095018 0.025667 0.306886
149 2 0.0444377 0.186321 0.0185291
157 1 0.0109532 0.197156 0.0504076
158 2 0.0174894 0.193809 0.0728169
159 2 0.0234431 0.221202 0.0465252
166 1 0.0814951 0.0922729 0.0273565
167 2 0.056462 0.07682 0.0368138
168 2 0.0765537 0.09396 0.00439793
170 2 0.156371 0.158966 0.000385085
172 1 0.086797 0.302467 0.124318
173 2 0.0951575 0.326871 0.118794
174 2 0.0514927 0.299412 0.120384
175 1 0.12152 0.2501 0.243723
176 2 0.153052 0.250084 0.252177
177 2 0.10925 0.274517 0.249825
178 1 0.191664 0.322174 0.160439
179 2 0.169491 0.306192 0.171089
180 2 0.196633 0.312249 0.139522
181 1 0.125293 0.371593 0.122924
182 2 0.132517 0.360563 0.102475
183 2 0.152809 0.385501 0.129958
185 2 0.134682 0.279433 0.00261861
190 1 0.148635 0.266271 0.185077
191 2 0.132758 0.25713 0.20253
192 2 0.182042 0.25756 0.186425
193 1 0.0616446 0.297016 0.189679
194 2 0.0880518 0.296626 0.174913
195 2 0.0461002 0.320162 0.186679
198 2 0.0175545 0.269185 0.212689
199 1 0.166574 0.223086 0.317332
200 2 0.176127 0.242319 0.303275
202 1 0.256318 0.318577 0.259257
203 2 0.252822 0.329045 0.239263
204 2 0.277273 0.334525 0.271854
205 1 0.207895 0.256344 0.261281
206 2 0.234059 0.238234 0.261695
207 2 0.224519 0.279862 0.258659
208 1 0.16522 0.179669 0.208076
209 2 0.186921 0.198236 0.207736
210 2 0.16023 0.173745 0.229662
214 1 0.0905034 0.179187 0.167745
215 2 0.122587 0.188451 0.171697
216 2 0.079803 0.172528 0.189351
220 1 0.106289 0.17328 0.294894
221 2 0.127066 0.193567 0.298844
222 2 0.0749318 0.180288 0.302763
226 1 0.302802 0.281489 0.304149
227 2 0.333664 0.27532 0.294222
228 2 0.288341 0.296632 0.287624
232 1 0.236905 0.0986151 0.23555
233 2 0.253091 0.0932108 0.255349
234 2 0.209005 0.113626 0.242124
235 1 0.0859809 0.084229 0.220222
236 2 0.0596187 0.0779757 0.20593
237 2 0.0777144 0.104322 0.233471
238 1 0.16776 0.12272 0.269853
239 2 0.142754 0.141397 0.275807
240 2 0.150304 0.100055 0.267066
334 1 0.228146 0.181892 0.0258437
335 2 0.234183 0.190484 0.00524278
336 2 0.193253 0.18378 0.0291782
337 1 0.0468099 0.331982 0.0183136
338 2 0.020287 0.343797 0.00717544
339 2 0.076694 0.340584 0.0093646
340 1 0.0214596 0.388126 0.12812
341 2 0.0554675 0.389708 0.130491
342 2 0.0163078 0.378346 0.107448
343 1 0.351973 0.490131 0.0909957
344 2 0.319656 0.494365 0.0825247
345 2 0.353024 0.464465 0.0974908
346 1 0.107859 0.477464 0.00858363
347 2 0.0747291 0.48056 0.0150853
348 2 0.118813 0.45858 0.022544
352 1 0.149412 0.33268 0.0771101
353 2 0.174494 0.31731 0.0872548
354 2 0.133595 0.31835 0.061299
355 1 0.0304941 0.356975 0.0750648
356 2 0.0403084 0.346719 0.0554377
358 1 0.288339 0.411784 0.0813929
359 2 0.273874 0.435614 0.0749654
360 2 0.26101 0.39461 0.0794612
361 1 0.0849219 0.464696 0.166553
362 2 0.0539267 0.478111 0.16248
363 2 0.103877 0.473324 0.149786
364 1 0.0330724 0.499776 0.223886
365 2 0.0380313 0.473858 0.227888
367 1 0.0770036 0.313578 0.266084
368 2 0.0818664 0.339923 0.263147
369 2 0.0427086 0.309429 0.26598
370 1 0.180584 0.403879 0.233424
371 2 0.153216 0.391956 0.223054
372 2 0.177521 0.429006 0.226629
373 1 0.122802 0.482668 0.313548
374 2 0.150956 0.481229 0.327694
376 1 0.128999 0.379468 0.187257
377 2 0.147174 0.397906 0.177641
378 2 0.125019 0.362245 0.16983
382 1 0.0627804 0.430156 0.219231
383 2 0.0629246 0.442766 0.200077
384 2 0.053607 0.405405 0.213027
385 1 0.0827536 0.387706 0.266662
386 2 0.0818792 0.406471 0.249901
387 2 0.0587997 0.396031 0.281224
390 2 0.214274 0.371984 0.316556
394 1 0.155962 0.476275 0.208806
396 2 0.134256 0.468766 0.192969
400 1 0.148669 0.300037 0.308821
401 2 0.124299 0.304464 0.293416
402 2 0.177881 0.311281 0.301961
406 1 0.171035 0.386853 0.296219
407 2 0.171311 0.387483 0.273079
408 2 0.137483 0.392333 0.300511
487 1 0.19981 0.390785 0.0585284
488 2 0.186883 0.368766 0.0686126
489 2 0.212027 0.379457 0.0403389
511 1 0.238415 0.475591 0.160838
512 2 0.265181 0.460934 0.154763
513 2 0.248179 0.485757 0.180654
522 2 0.00910858 0.399312 0.037689
526 1 0.137902 0.492536 0.124152
527 2 0.150311 0.470523 0.113642
595 1 0.0541076 0.440422 0.316159
596 2 0.0286103 0.458625 0.316059
597 2 0.0843475 0.454759 0.313707
888 2 0.183213 0.00221606 0.232761
899 2 0.267022 0.00216282 0.31163
901 1 0.187523 0.0217895 0.198964
902 2 0.205364 0.00887343 0.183484
903 2 0.179913 0.0439955 0.189093
1012 1 0.0121395 0.155777 0.0991498
1013 2 0.0373037 0.138938 0.105937
1015 1 0.360182 0.140227 0.0112098
1016 2 0.381645 0.120543 0.00406857
1017 2 0.377726 0.159344 0.0243547
1021 1 0.416679 0.152394 0.110191
1022 2 0.403359 0.164922 0.0913147
1023 2 0.435484 0.170398 0.121596
1024 1 0.414757 0.00914064 0.0365862
1025 2 0.386776 0.0155009 0.0512399
1026 2 0.401278 0.00212759 0.016136
1027 1 0.150475 0.0045582 0.00643699
1028 2 0.116885 0.00109236 0.0152527
1029 2 0.165652 0.0217164 0.020624
1033 1 0.275054 0.167361 0.171537
1034 2 0.297906 0.148091 0.170823
1035 2 0.263027 0.168048 0.193767
1036 1 0.193273 0.149549 0.147819
1037 2 0.172135 0.151492 0.165952
1038 2 0.226251 0.151671 0.156353
1042 1 0.320821 0.0134572 0.192606
1044 2 0.320216 0.0284817 0.173572
1045 1 0.360813 0.199594 0.199506
1046 2 0.370077 0.212104 0.180563
1047 2 0.391011 0.1951 0.209845
1048 1 0.305477 0.0611371 0.150987
1049 2 0.328275 0.0749863 0.137008
1050 2 0.273128 0.0637987 0.141959
1052 2 0.231663 0.00178126 0.0893307
1062 2 0.203612 0.0329447 0.320139
1071 2 0.483032 0.152125 0.326656
1072 1 0.458568 0.111348 0.271
1073 2 0.48682 0.0943931 0.269762
1074 2 0.44198 0.107171 0.251124
1177 1 0.405304 0.253103 0.038905
1178 2 0.437072 0.261607 0.0441986
1179 2 0.400144 0.260869 0.0175594
1180 1 0.152594 0.190781 0.0992814
1181 2 0.138035 0.174034 0.0843881
1182 2 0.163703 0.176325 0.116319
1183 1 0.328054 0.336895 0.0398941
1184 2 0.324592 0.317193 0.0553879
1185 2 0.35936 0.347615 0.0439623
1186 1 0.264461 0.256099 0.0250015
1187 2 0.254543 0.243737 0.0441834
1188 2 0.243728 0.245865 0.00780788
1189 1 0.301345 0.308037 0.126402
1190 2 0.319722 0.300028 0.107951
1191 2 0.310098 0.291888 0.143657
1195 1 0.132734 0.145605 0.0558113
1196 2 0.141033 0.123166 0.0671955
1197 2 0.109346 0.135699 0.0406993
1198 1 0.375518 0.185466 0.0606368
1199 2 0.394037 0.206586 0.0528683
1200 2 0.341579 0.193239 0.05979
1201 1 0.236187 0.357826 0.208555
1202 2 0.209548 0.371397 0.217641
1203 2 0.224385 0.348104 0.188606
1204 1 0.259656 0.43079 0.277864
1205 2 0.226531 0.423149 0.276949
1206 2 0.27871 0.408938 0.281806
1207 1 0.376938 0.258782 0.280024
1208 2 0.392835 0.234601 0.28031
1209 2 0.392055 0.26991 0.262466
1210 1 0.43275 0.328047 0.260038
1211 2 0.442619 0.322185 0.238927
1212 2 0.426356 0.354089 0.260782
1213 1 0.314989 0.374182 0.28664
1214 2 0.34871 0.372782 0.280213
1215 2 0.316263 0.366175 0.309204
1216 1 0.236874 0.231653 0.0801419
1217 2 0.207235 0.217573 0.0841955
1218 2 0.263654 0.221499 0.0926564
1219 1 0.134592 0.0692561 0.16868
1220 2 0.118691 0.0467957 0.160143
1221 2 0.125794 0.07599 0.189768
1222 1 0.385233 0.22333 0.138885
1223 2 0.360555 0.211478 0.126594
1224 2 0.403529 0.240131 0.125566
1240 1 0.281412 0.182496 0.234257
1241 2 0.282913 0.193573 0.256082
1242 2 0.307719 0.191177 0.220759
1243 1 0.235377 0.238283 0.188724
1244 2 0.254627 0.217729 0.181997
1245 2 0.256186 0.259966 0.187152
1267 1 0.251055 0.125056 0.313894
1268 2 0.221308 0.119948 0.303712
1269 2 0.274766 0.124666 0.297055
1327 1 0.346573 0.285892 0.00219433
1328 2 0.314975 0.276373 0.00585382
1329 2 0.349392 0.306375 0.0162327
1346 2 0.33757 0.42967 0.011189
1351 1 0.311617 0.436261 0.147565
1352 2 0.344594 0.442368 0.149313
1353 2 0.308325 0.410604 0.143379
1354 1 0.389241 0.495046 0.0311966
1355 2 0.379658 0.472798 0.0211653
1356 2 0.383079 0.491035 0.0529927
1357 1 0.401156 0.455595 0.171456
1358 2 0.430766 0.444783 0.180126
1359 2 0.379943 0.458438 0.189475
1360 1 0.461625 0.315502 0.0018183
1367 2 0.224532 0.457644 0.00125729
1368 2 0.216864 0.422037 0.0199953
1369 1 0.396059 0.360565 0.174966
1370 2 0.423918 0.374345 0.182205
1371 2 0.366032 0.369142 0.184219
1372 1 0.250775 0.477849 0.227453
1373 2 0.25556 0.459772 0.244368
1374 2 0.217278 0.476684 0.22083
1375 1 0.323929 0.388573 0.212216
1376 2 0.32705 0.414072 0.219889
1377 2 0.290333 0.378914 0.213888
1378 1 0.33732 0.272995 0.169154
1379 2 0.356794 0.252113 0.161338
1380 2 0.339371 0.27092 0.191709
1383 2 0.496261 0.496803 0.3213
1387 1 0.219065 0.299068 0.100574
1388 2 0.251409 0.303418 0.108313
1389 2 0.221108 0.274621 0.0904812
1390 1 0.200723 0.40654 0.151739
1391 2 0.210475 0.431652 0.150978
1392 2 0.229118 0.39097 0.149987
1495 1 0.418419 0.415961 0.0399745
1496 2 0.426918 0.390084 0.0460417
1497 2 0.444011 0.421466 0.0248177
1510 1 0.24147 0.352991 0.0156011
1511 2 0.273294 0.346589 0.0243473
1512 2 0.223761 0.330556 0.013003
1528 1 0.252848 0.480289 0.0651639
1529 2 0.232303 0.495766 0.0772462
1530 2 0.244123 0.487828 0.045176
1552 1 0.342325 0.457804 0.227998
1553 2 0.31207 0.468796 0.219387
1554 2 0.346337 0.473661 0.245702
1555 1 0.282421 0.368883 0.150332
1556 2 0.276567 0.366097 0.172866
1557 2 0.290586 0.343749 0.142295
1576 1 0.327163 0.449135 0.328119
1577 2 0.305386 0.448984 0.310101
1876 1 0.308744 0.0373589 0.251639
1877 2 0.32281 0.0539335 0.237967
1878 2 0.306374 0.0152348 0.239099
1879 1 0.446045 0.0360182 0.328364
1880 2 0.464508 0.0508001 0.314383
1881 2 0.42344 0.0225605 0.315326
1882 1 0.434668 0.0369932 0.226778
1883 2 0.463837 0.0472483 0.217614
1884 2 0.439307 0.012373 0.234187
1885 1 0.392529 0.0997609 0.221133
1886 2 0.360853 0.103442 0.210699
1887 2 0.401808 0.0747036 0.217729
1897 1 0.383761 0.125058 0.304139
1898 2 0.358566 0.12536 0.288416
1899 2 0.413868 0.122061 0.292513
1915 1 0.385354 0.00583602 0.288521
1916 2 0.383095 0.0187522 0.26766
1994 2 0.0480664 7.44757e-05 0.00224917
2022 2 0.404841 0.0537907 0.00300894
2044 1 0.36368 0.0979485 0.118489
2045 2 0.35316 0.0942767 0.097051
2046 2 0.385517 0.118706 0.116457
2056 1 0.484374 0.0472182 0.0824338
2057 2 0.469526 0.0366411 0.0646587
2060 2 0.379815 0.00139498 0.103914
2062 1 0.492621 0.110699 0.108914
2063 2 0.464448 0.127312 0.105265
2064 2 0.481575 0.0872799 0.0996497
2072 2 0.497826 0.142349 0.27815
2084 2 0.49651 0.0945484 0.196217
2185 1 0.497834 0.27536 0.0411093
2186 2 0.486951 0.289827 0.0221346
2188 1 0.427052 0.349056 0.0571247
2189 2 0.44895 0.331813 0.0469158
2190 2 0.434521 0.34689 0.0793977
2191 1 0.493239 0.19258 0.140106
2192 2 0.498361 0.218411 0.143693
2197 1 0.423572 0.28588 0.116052
2198 2 0.458789 0.283814 0.109203
2199 2 0.414968 0.31247 0.117556
2209 1 0.350709 0.284881 0.0786253
2210 2 0.376665 0.281126 0.0935908
2211 2 0.359219 0.26815 0.060683
2212 1 0.42502 0.279578 0.332338
2213 2 0.416825 0.273514 0.310742
2218 1 0.46085 0.21088 0.201239
2219 2 0.489317 0.216522 0.213019
2220 2 0.468152 0.194545 0.184711
2224 1 0.490652 0.13076 0.170097
2225 2 0.494531 0.121949 0.148862
2226 2 0.482481 0.155576 0.166591
2227 1 0.302535 0.191797 0.112422
2228 2 0.290274 0.169836 0.101455
2229 2 0.294974 0.185923 0.133973
2230 1 0.411707 0.192511 0.282717
2231 2 0.443918 0.183825 0.281204
2232 2 0.393428 0.175361 0.295702
2233 1 0.470907 0.408727 0.297682
2234 2 0.440852 0.400308 0.288647
2235 2 0.463231 0.415659 0.319003
2251 1 0.277497 0.208721 0.291756
2252 2 0.292953 0.231269 0.296344
2253 2 0.276774 0.195318 0.310873
2353 1 0.461191 0.438246 0.09911
2354 2 0.428071 0.430977 0.0997091
2355 2 0.462851 0.463691 0.0925436
2368 1 0.484404 0.477367 0.0118314
2370 2 0.456744 0.488437 0.0209852
2371 1 0.37383 0.415384 0.0928625
2372 2 0.384033 0.421526 0.0718042
2373 2 0.339231 0.408593 0.0909763
2374 1 0.40898 0.353945 0.116929
2375 2 0.409625 0.357526 0.140537
2376 2 0.392605 0.375664 0.109112
2393 2 0.48443 0.316931 0.179478
2395 1 0.43946 0.285158 0.203398
2396 2 0.449748 0.260675 0.205089
2397 2 0.41943 0.286264 0.18522
2416 1 0.481721 0.43021 0.202688
2418 2 0.49294 0.422226 0.182733
2419 1 0.395337 0.394638 0.259672
2420 2 0.404308 0.418033 0.251121
2421 2 0.370791 0.385384 0.244945
2564 2 0.404065 0.499029 0.147941
3047 2 0.469105 0.096829 0.0107577
3260 2 0.493865 0.229547 0.325975
3425 2 0.492701 0.329804 0.28278
4045 1 0.0962956 0.243746 0.0830706
4046 2 0.114357 0.226725 0.0963165
4047 2 0.0920865 0.264706 0.0966342
4074 2 0.00713171 0.00552302 0.256014
4078 1 0.00783828 0.0711047 0.190908
4079 2 0.001825 0.060447 0.170473
4080 2 0.0132509 0.0506243 0.205064
4096 1 0.0472343 0.129734 0.254449
4097 2 0.0505023 0.144327 0.235024
4098 2 0.0575094 0.146142 0.271126
4231 1 0.0612137 0.196094 0.229248
4232 2 0.0879898 0.211284 0.235601
4233 2 0.0357232 0.213034 0.230546
4234 1 0.0297457 0.23362 0.155652
4235 2 0.0548482 0.215483 0.153191
4236 2 0.0429061 0.252255 0.169336
4264 1 0.0186399 0.181949 0.313811
4265 2 0.000609891 0.201216 0.304151
4378 1 0.112952 0.429688 0.0610653
4379 2 0.145098 0.417999 0.0570693
4380 2 0.0958783 0.412436 0.0748635
4395 2 0.00140184 0.360233 0.149931
4402 1 0.00843791 0.496256 0.151195
4546 1 0.0212965 0.476255 0.0243736
4547 2 0.00674432 0.45192 0.0261731
4548 2 0.0283176 0.48613 0.0456533
4549 1 0.0625948 0.491486 0.0758772
4550 2 0.0795616 0.471226 0.0681282
4551 2 0.0593022 0.489315 0.0983799
4921 1 0.0284863 0.0529433 0.260267
4922 2 0.0292149 0.0804352 0.261022
4923 2 0.0550246 0.0493775 0.246096
37 1 0.19647 0.172564 0.35403
38 2 0.208602 0.153974 0.340157
39 2 0.187825 0.193198 0.341454
49 1 0.092952 0.123818 0.339431
55 1 0.254055 0.112206 0.397023
56 2 0.244818 0.102843 0.376234
57 2 0.285272 0.100635 0.40081
70 1 0.12139 0.0673315 0.396666
71 2 0.15444 0.0653105 0.389717
72 2 0.117311 0.0602929 0.418143
73 1 0.027715 0.147366 0.500212
74 2 0.0201763 0.123802 0.508631
75 2 0.04719 0.142044 0.482433
76 1 0.206375 0.164484 0.448687
77 2 0.191452 0.18428 0.43749
78 2 0.189079 0.143933 0.440912
79 1 0.247791 0.0768943 0.51892
80 2 0.260266 0.0947924 0.504631
81 2 0.235624 0.0569245 0.506467
82 1 0.0864546 0.045696 0.517278
83 2 0.105657 0.0243164 0.516111
84 2 0.0537715 0.0379654 0.521802
85 1 0.0728693 0.125542 0.436351
86 2 0.055084 0.148768 0.433113
87 2 0.0936952 0.1275 0.418334
92 2 0.0836648 0.052101 0.335783
98 2 0.107601 0.113656 0.662581
103 1 0.0476568 0.0202662 0.588282
104 2 0.0750854 0.0328744 0.597378
105 2 0.0190404 0.0237058 0.599731
106 1 0.196101 0.137303 0.544424
107 2 0.212492 0.115645 0.535804
108 2 0.163353 0.130003 0.549184
112 1 0.00303106 0.189302 0.555484
139 1 0.00202599 0.0868961 0.588489
141 2 0.00884032 0.072953 0.570477
201 2 0.148414 0.234125 0.33409
223 1 0.0100512 0.155128 0.373343
225 2 0.0353936 0.140498 0.363076
229 1 0.0666448 0.256055 0.422424
230 2 0.0606506 0.275609 0.406676
231 2 0.0635535 0.267569 0.442939
242 2 0.00497567 0.246035 0.419936
247 1 0.0178237 0.287736 0.527075
248 2 0.0401195 0.284665 0.544233
249 2 0.00625229 0.312533 0.529548
250 1 0.0918045 0.288497 0.574563
251 2 0.0979278 0.265376 0.58335
252 2 0.117297 0.295755 0.560273
253 1 0.145375 0.319854 0.531621
254 2 0.164463 0.339904 0.538848
255 2 0.146056 0.327198 0.510073
256 1 0.129025 0.15019 0.389921
257 2 0.154688 0.160119 0.376536
258 2 0.113431 0.134576 0.374397
262 1 0.034152 0.192691 0.444972
263 2 0.0357664 0.197628 0.467203
264 2 0.0458255 0.216648 0.437922
268 1 0.00186731 0.35942 0.625749
270 2 0.0224984 0.343777 0.640062
271 1 0.0748081 0.158121 0.644057
272 2 0.0946018 0.177198 0.634639
273 2 0.0447054 0.155496 0.633466
274 1 0.11678 0.21807 0.613307
275 2 0.114036 0.202453 0.595542
276 2 0.148068 0.228806 0.609993
283 1 0.0421112 0.217104 0.500936
284 2 0.0375687 0.230552 0.520089
285 2 0.034462 0.192295 0.508808
388 1 0.229712 0.358681 0.333336
389 2 0.206282 0.358976 0.349689
391 1 0.207575 0.417229 0.479737
392 2 0.21854 0.392227 0.478074
393 2 0.212019 0.426092 0.459447
397 1 0.203826 0.473853 0.342669
398 2 0.207961 0.452269 0.354919
399 2 0.219658 0.492267 0.355478
409 1 0.0770037 0.400143 0.493056
410 2 0.104273 0.395735 0.47929
411 2 0.0561526 0.378666 0.491711
413 2 0.0494514 0.490911 0.507939
415 1 0.269558 0.329202 0.526816
416 2 0.293749 0.310374 0.530321
417 2 0.241881 0.319594 0.515625
418 1 0.180665 0.400492 0.536283
419 2 0.181694 0.405958 0.514396
420 2 0.147985 0.399544 0.543178
421 1 0.141338 0.423025 0.420022
422 2 0.117274 0.404225 0.416519
423 2 0.122086 0.441946 0.430757
424 1 0.0523496 0.293743 0.471972
425 2 0.0438792 0.282241 0.491058
426 2 0.0329852 0.316318 0.472022
430 1 0.142942 0.344044 0.469121
431 2 0.120636 0.322758 0.46952
432 2 0.165358 0.340201 0.451851
433 1 0.19821 0.445149 0.656808
434 2 0.208976 0.453542 0.635892
435 2 0.216231 0.422263 0.661842
442 1 0.130134 0.371772 0.648641
443 2 0.105304 0.388031 0.642466
444 2 0.14095 0.35587 0.633274
448 1 0.202115 0.299745 0.624903
449 2 0.203668 0.287216 0.645398
450 2 0.196327 0.281008 0.608665
457 1 0.0976391 0.451772 0.653245
459 2 0.133365 0.449744 0.652414
557 2 0.0533626 0.494486 0.45259
583 1 0.176945 0.488965 0.502343
584 2 0.202236 0.470136 0.498993
598 1 0.0878458 0.470069 0.480759
599 2 0.119305 0.480784 0.487865
600 2 0.0894013 0.444445 0.485203
949 1 0.11368 0.0565145 0.613363
950 2 0.114404 0.0670388 0.634329
951 2 0.146545 0.0601618 0.605571
1057 1 0.310461 0.179461 0.343142
1058 2 0.306457 0.153515 0.337489
1059 2 0.299291 0.180635 0.365224
1060 1 0.187021 0.0338935 0.340239
1061 2 0.156461 0.0467268 0.337423
1063 1 0.440836 0.0404146 0.406821
1064 2 0.456824 0.0625231 0.400577
1065 2 0.438852 0.0407547 0.429556
1066 1 0.494772 0.096978 0.386813
1067 2 0.47537 0.113984 0.376938
1069 1 0.466791 0.156869 0.345696
1070 2 0.471804 0.183197 0.34713
1078 1 0.390669 0.12644 0.362852
1079 2 0.420109 0.140324 0.359232
1080 2 0.382956 0.123827 0.340399
1081 1 0.343697 0.0902377 0.40103
1082 2 0.354329 0.0649818 0.397691
1083 2 0.363554 0.103695 0.385974
1084 1 0.267736 0.125692 0.484602
1085 2 0.247492 0.138423 0.469575
1086 2 0.299457 0.124935 0.474665
1090 1 0.338049 0.0480013 0.483865
1091 2 0.311701 0.0334335 0.476275
1092 2 0.345591 0.0663612 0.468705
1093 1 0.375201 0.0531337 0.538826
1094 2 0.346344 0.0610144 0.551308
1095 2 0.363753 0.0512994 0.517641
1098 2 0.178409 0.00478242 0.515857
1102 1 0.0787222 0.058912 0.45538
1103 2 0.0769898 0.0582688 0.477759
1104 2 0.0790783 0.0849658 0.449771
1105 1 0.170349 0.202961 0.538143
1106 2 0.187917 0.179559 0.539388
1107 2 0.136809 0.195786 0.544527
1108 1 0.19383 0.0887001 0.596186
1109 2 0.199781 0.10361 0.578398
1110 2 0.213454 0.099505 0.611155
1111 1 0.310021 0.0222704 0.649666
1112 2 0.338272 0.0322217 0.65923
1113 2 0.288406 0.0429457 0.651487
1114 1 0.373408 0.10473 0.605674
1115 2 0.367333 0.10136 0.628537
1116 2 0.345242 0.0945135 0.595536
1120 1 0.274685 0.00804828 0.590435
1121 2 0.291098 0.0120371 0.61077
1123 1 0.223292 0.0011029 0.53524
1125 2 0.251534 0.0141854 0.54404
1126 1 0.29961 0.0721282 0.571318
1127 2 0.280162 0.0750178 0.552282
1128 2 0.28526 0.050165 0.579816
1129 1 0.281762 0.0930413 0.653572
1130 2 0.312739 0.103883 0.65899
1131 2 0.260817 0.11467 0.651105
1141 1 0.319784 0.179321 0.661881
1142 2 0.331539 0.197351 0.646492
1143 2 0.291837 0.167991 0.653
1225 1 0.296232 0.422436 0.383663
1226 2 0.309417 0.429957 0.363026
1227 2 0.323007 0.411439 0.394392
1228 1 0.139419 0.250282 0.368356
1229 2 0.117446 0.2701 0.371308
1230 2 0.156171 0.250613 0.387778
1231 1 0.274347 0.182925 0.401951
1232 2 0.267091 0.157864 0.406948
1233 2 0.246079 0.19248 0.391549
1234 1 0.433891 0.343845 0.356793
1235 2 0.430227 0.31822 0.349006
1236 2 0.448172 0.35744 0.340454
1237 1 0.270675 0.299251 0.361666
1238 2 0.25717 0.322793 0.356324
1239 2 0.282178 0.28999 0.341565
1246 1 0.334319 0.359996 0.344007
1247 2 0.363676 0.353745 0.354552
1248 2 0.314347 0.366606 0.361532
1249 1 0.227179 0.254251 0.396813
1250 2 0.252353 0.248521 0.41154
1251 2 0.242224 0.270276 0.380938
1252 1 0.222101 0.289635 0.484567
1253 2 0.194427 0.273108 0.480559
1254 2 0.249195 0.272755 0.48551
1255 1 0.341905 0.161282 0.526453
1256 2 0.323897 0.143522 0.514814
1257 2 0.317607 0.178183 0.532612
1258 1 0.327235 0.186927 0.453296
1259 2 0.326746 0.213303 0.459741
1260 2 0.302642 0.184913 0.437761
1261 1 0.203445 0.249785 0.583554
1262 2 0.1881 0.239879 0.565553
1263 2 0.237663 0.247954 0.57942
1264 1 0.142787 0.208356 0.422966
1265 2 0.138065 0.186047 0.409939
1266 2 0.113256 0.222436 0.419979
1270 1 0.160655 0.240643 0.477149
1271 2 0.145935 0.232452 0.457382
1272 2 0.157603 0.220129 0.491028
1273 1 0.294463 0.245255 0.561442
1274 2 0.313316 0.265351 0.551599
1275 2 0.285344 0.233069 0.541879
1282 1 0.236271 0.150623 0.62827
1283 2 0.236874 0.160718 0.607309
1284 2 0.212655 0.165566 0.639594
1285 1 0.396937 0.310794 0.631183
1286 2 0.366826 0.303598 0.621337
1287 2 0.392105 0.33565 0.637206
1288 1 0.193279 0.192899 0.663328
1291 1 0.0921783 0.175385 0.561386
1292 2 0.1006 0.150863 0.55514
1293 2 0.0581775 0.180908 0.557408
1294 1 0.0783553 0.256313 0.66656
1296 2 0.0905718 0.246939 0.64642
1312 1 0.327509 0.228624 0.612165
1313 2 0.323075 0.253415 0.61928
1314 2 0.316485 0.227887 0.590247
1382 2 0.478344 0.494451 0.355643
1393 1 0.443817 0.430502 0.360335
1394 2 0.430771 0.453729 0.368185
1395 2 0.422757 0.412189 0.370429
1399 1 0.497988 0.358616 0.452245
1402 1 0.356694 0.498219 0.424662
1404 2 0.377732 0.485234 0.41081
1408 1 0.226875 0.44273 0.4231
1409 2 0.195464 0.434362 0.416721
1410 2 0.248685 0.435983 0.406447
1411 1 0.13802 0.3342 0.361282
1412 2 0.106296 0.329651 0.369772
1413 2 0.138275 0.323604 0.34006
1414 1 0.367367 0.400963 0.416821
1415 2 0.34649 0.40027 0.435246
1416 2 0.392227 0.382554 0.418341
1417 1 0.427384 0.474483 0.486214
1418 2 0.401318 0.460764 0.495824
1419 2 0.412462 0.480611 0.466632
1420 1 0.301629 0.490641 0.519609
1421 2 0.313208 0.46662 0.521289
1422 2 0.290211 0.489595 0.498439
1423 1 0.263827 0.395243 0.561042
1424 2 0.275618 0.379962 0.543191
1425 2 0.230639 0.397981 0.554185
1426 1 0.449839 0.384124 0.504201
1427 2 0.468947 0.404527 0.512212
1428 2 0.463469 0.374354 0.484903
1429 1 0.362103 0.437807 0.522094
1430 2 0.362999 0.412032 0.512798
1431 2 0.386594 0.435193 0.5392
1432 1 0.244266 0.352868 0.45848
1433 2 0.240733 0.347724 0.436299
1434 2 0.238622 0.329881 0.469451
1435 1 0.197167 0.332043 0.408556
1436 2 0.176217 0.339119 0.391958
1437 2 0.199302 0.306383 0.409403
1438 1 0.323942 0.379636 0.472094
1439 2 0.293017 0.368181 0.467817
1440 2 0.344072 0.359767 0.479813
1441 1 0.248987 0.361153 0.608568
1442 2 0.254666 0.374688 0.589386
1443 2 0.234808 0.337454 0.604892
1450 1 0.401896 0.380257 0.650878
1451 2 0.432819 0.380072 0.660081
1452 2 0.386789 0.395505 0.66644
1456 1 0.336795 0.340181 0.586108
1457 2 0.334817 0.329117 0.564692
1458 2 0.308643 0.333729 0.597622
1459 1 0.299337 0.29909 0.633735
1460 2 0.266662 0.308255 0.63297
1461 2 0.308495 0.302401 0.6556
1480 1 0.250856 0.382563 0.66604
1482 2 0.248472 0.375404 0.643998
1578 2 0.324987 0.474502 0.334675
1600 1 0.321636 0.426034 0.608321
1601 2 0.347085 0.410659 0.617462
1602 2 0.300674 0.411559 0.595166
1603 1 0.280022 0.491038 0.458583
1604 2 0.260683 0.47349 0.445807
1605 2 0.311335 0.492815 0.447758
1624 1 0.246326 0.470009 0.60523
1625 2 0.277383 0.457023 0.604643
1626 2 0.252614 0.495801 0.598541
1627 1 0.147995 0.488825 0.59306
1628 2 0.115402 0.478916 0.588594
1629 2 0.169978 0.469448 0.588596
1900 1 0.240588 0.0277976 0.459466
1901 2 0.241466 0.00953236 0.443887
1902 2 0.208398 0.024833 0.468153
1909 1 0.446571 0.00647112 0.482927
1910 2 0.471334 0.0144261 0.496805
1911 2 0.41845 0.0193349 0.490124
1918 1 0.356796 0.0346488 0.356771
1919 2 0.337534 0.0531833 0.348838
1920 2 0.389396 0.038593 0.348441
1926 2 0.0820113 0.0053413 0.455654
2065 1 0.354258 0.243706 0.356128
2066 2 0.323557 0.254547 0.352388
2067 2 0.351825 0.218196 0.35323
2068 1 0.354237 0.112954 0.45637
2069 2 0.356263 0.106436 0.434876
2070 2 0.356757 0.139318 0.456416
2089 1 0.488244 0.160425 0.434045
2090 2 0.467133 0.14029 0.429146
2091 2 0.46566 0.180998 0.437194
2094 2 0.485153 0.113532 0.539253
2113 1 0.435166 0.0174162 0.626125
2114 2 0.420711 0.014356 0.606009
2119 1 0.402911 0.000111911 0.572787
2120 2 0.399254 0.0213049 0.559157
2214 2 0.396976 0.271162 0.345095
2236 1 0.320453 0.271113 0.411574
2237 2 0.337381 0.255838 0.396346
2238 2 0.306344 0.288455 0.396951
2242 1 0.48677 0.253507 0.448782
2244 2 0.461556 0.234337 0.44869
2254 1 0.421314 0.20246 0.447097
2255 2 0.411417 0.213221 0.46696
2256 2 0.390328 0.193836 0.441191
2257 1 0.384769 0.222524 0.504383
2258 2 0.416804 0.226517 0.513399
2259 2 0.372512 0.198967 0.512094
2260 1 0.274058 0.20849 0.509218
2261 2 0.288943 0.211469 0.488836
2262 2 0.239811 0.205443 0.504891
2264 2 0.482752 0.0366386 0.604406
2265 2 0.486602 0.071943 0.584723
2272 1 0.387381 0.170394 0.580919
2273 2 0.383792 0.147372 0.593513
2274 2 0.369218 0.165062 0.561494
2275 1 0.465214 0.0999059 0.471127
2276 2 0.486475 0.1085 0.487204
2277 2 0.43636 0.112954 0.474816
2278 1 0.30295 0.256973 0.466301
2279 2 0.332145 0.266414 0.476063
2280 2 0.305854 0.267185 0.445288
2281 1 0.428322 0.276052 0.562386
2282 2 0.422264 0.279321 0.58498
2283 2 0.457904 0.289148 0.556698
2290 1 0.490664 0.340126 0.546361
2291 2 0.478155 0.344925 0.56696
2292 2 0.467251 0.349739 0.531741
2295 2 0.492563 0.416986 0.632072
2299 1 0.444238 0.0977934 0.563709
2300 2 0.423434 0.103794 0.581102
2301 2 0.421809 0.0855577 0.550194
2302 1 0.418628 0.203638 0.631698
2303 2 0.390864 0.211437 0.620372
2304 2 0.44195 0.192399 0.617661
2405 2 0.49254 0.421289 0.396196
2422 1 0.419275 0.341658 0.421902
2423 2 0.428874 0.342175 0.399571
2424 2 0.448502 0.33989 0.435085
2440 1 0.448382 0.288935 0.49619
2441 2 0.464735 0.282746 0.477015
2442 2 0.466853 0.274825 0.510929
2443 1 0.370555 0.311143 0.471861
2444 2 0.401186 0.303453 0.48174
2445 2 0.379586 0.32114 0.451963
2446 1 0.350139 0.298311 0.536748
2447 2 0.381439 0.28858 0.543404
2448 2 0.355857 0.306195 0.516018
2449 1 0.419331 0.432767 0.568164
2450 2 0.425659 0.447369 0.586028
2451 2 0.424806 0.406663 0.573752
2452 1 0.443711 0.485569 0.6082
2453 2 0.463561 0.476396 0.624595
2454 2 0.415679 0.492927 0.620203
2458 1 0.493696 0.441804 0.529343
2459 2 0.494921 0.464991 0.518775
2460 2 0.467249 0.44161 0.544282
2461 1 0.482818 0.456211 0.658311
2464 1 0.419549 0.367363 0.580642
2465 2 0.385194 0.363728 0.580534
2466 2 0.428003 0.361027 0.6013
2590 1 0.427948 0.499409 0.373526
2635 1 0.337693 0.463432 0.661387
2636 2 0.324402 0.448943 0.644983
2933 2 0.480315 0.0133254 0.348599
3100 1 0.461465 0.193346 0.532687
3101 2 0.440245 0.182368 0.548006
3102 2 0.476104 0.21134 0.546332
3165 2 0.478569 0.104152 0.666547
3259 1 0.486143 0.228139 0.348563
3261 2 0.463707 0.249004 0.352411
3473 2 0.497516 0.346774 0.661867
4085 2 0.0204471 0.0507487 0.453392
4120 1 0.0448844 0.0638239 0.361176
4121 2 0.0748096 0.0695945 0.373277
4122 2 0.0206178 0.0738794 0.375382
4138 1 0.105171 0.105993 0.555168
4139 2 0.0908735 0.0977303 0.574473
4140 2 0.0967499 0.0864823 0.541111
4266 2 0.00233769 0.177979 0.333707
4423 1 0.056258 0.299391 0.370815
4424 2 0.0334545 0.28765 0.355954
4425 2 0.0456976 0.324705 0.371862
4426 1 0.02694 0.368958 0.360042
4427 2 0.00611831 0.357092 0.344596
4428 2 0.0321859 0.393516 0.35329
4429 1 0.0493556 0.400967 0.416318
4430 2 0.0308675 0.383205 0.405201
4431 2 0.0490047 0.423128 0.403892
4444 1 0.0501634 0.45606 0.376658
4445 2 0.057435 0.482152 0.379528
4446 2 0.0659734 0.451191 0.356413
4447 1 0.0714725 0.466386 0.572458
4448 2 0.0760672 0.441163 0.564216
4449 2 0.0575864 0.481945 0.555796
4450 1 0.0923304 0.398083 0.551828
4451 2 0.0857589 0.401769 0.529336
4452 2 0.0700161 0.379044 0.558328
4465 1 0.0120669 0.461257 0.620884
4466 2 0.0336833 0.454626 0.638443
4467 2 0.0300674 0.456629 0.601358
4471 1 0.0239419 0.344434 0.568193
4472 2 0.0123363 0.353853 0.588676
4473 2 0.0439257 0.32412 0.574923
4626 2 0.0282944 0.430954 0.4661
97 1 0.132816 0.0960951 0.667957
99 2 0.153291 0.108413 0.68299
109 1 0.150834 0.035558 0.699305
110 2 0.159917 0.0509606 0.717422
111 2 0.14403 0.0528373 0.681741
124 1 0.00737967 0.105017 0.792274
125 2 0.026923 0.115673 0.775783
127 1 0.291854 0.0233063 0.871003
128 2 0.274689 0.0130345 0.887805
129 2 0.307767 0.0449911 0.878292
130 1 0.158951 0.0543004 0.824462
131 2 0.130462 0.0538915 0.812105
132 2 0.180756 0.0386307 0.813834
136 1 0.261126 0.029989 0.706338
137 2 0.236104 0.0119798 0.709652
138 2 0.253648 0.0449038 0.687977
145 1 0.127623 0.0670449 0.881169
146 2 0.133452 0.0698659 0.858738
147 2 0.154241 0.0518306 0.888068
148 1 0.0589066 0.18382 0.99814
150 2 0.0349105 0.171594 0.986413
160 1 0.0510031 0.0398628 0.920771