LAMMPS data file. CGCMM style. generated by VMD/TopoTools v1.1 on Sat Nov 20 12:25:00 EST 2010
 84 atoms
 56 bonds
 28 angles
 0 dihedrals
 0 impropers
 2 atom types
 1 bond types
 1 angle types
 0 dihedral types
 0 improper types
 -5.267500 4.732500  xlo xhi
 -4.985000 5.015000  ylo yhi
 -4.934500 5.065500  zlo zhi

 Masses

 1 1.007940 # HT
 2 15.999400 # OT

 Atoms

1 1 2 -0.834000 -2.250000 3.844000 4.629000 # OT TIP3
2 1 1 0.417000 -2.890000 3.290000 4.998000 # HT TIP3
3 1 1 0.417000 -2.836000 4.245000 3.962000 # HT TIP3
4 2 2 -0.834000 -3.339000 1.681000 -3.057000 # OT TIP3
5 2 1 0.417000 -3.057000 0.739000 -3.019000 # HT TIP3
6 2 1 0.417000 -4.222000 1.599000 -3.517000 # HT TIP3
7 3 2 -0.834000 -0.382000 3.125000 2.777000 # OT TIP3
8 3 1 0.417000 0.405000 2.919000 3.314000 # HT TIP3
9 3 1 0.417000 -0.998000 3.458000 3.422000 # HT TIP3
10 4 2 -0.834000 -1.597000 -0.313000 4.815000 # OT TIP3
11 4 1 0.417000 -1.891000 0.272000 4.097000 # HT TIP3
12 4 1 0.417000 -1.183000 -1.027000 4.327000 # HT TIP3
13 5 2 -0.834000 -2.290000 1.185000 2.540000 # OT TIP3
14 5 1 0.417000 -2.533000 1.236000 1.561000 # HT TIP3
15 5 1 0.417000 -1.590000 1.855000 2.580000 # HT TIP3
16 6 2 -0.834000 -1.680000 -3.561000 -1.307000 # OT TIP3
17 6 1 0.417000 -1.982000 -3.737000 -2.205000 # HT TIP3
18 6 1 0.417000 -0.782000 -3.263000 -1.467000 # HT TIP3
19 7 2 -0.834000 -0.461000 -2.395000 3.295000 # OT TIP3
20 7 1 0.417000 0.460000 -2.298000 3.123000 # HT TIP3
21 7 1 0.417000 -0.566000 -3.384000 3.363000 # HT TIP3
22 8 2 -0.834000 -0.346000 0.717000 0.023000 # OT TIP3
23 8 1 0.417000 0.059000 0.126000 -0.605000 # HT TIP3
24 8 1 0.417000 0.409000 0.785000 0.634000 # HT TIP3
25 9 2 -0.834000 -1.314000 3.353000 -1.599000 # OT TIP3
26 9 1 0.417000 -0.506000 2.930000 -1.916000 # HT TIP3
27 9 1 0.417000 -1.959000 2.727000 -1.803000 # HT TIP3
28 10 2 -0.834000 0.450000 4.067000 0.337000 # OT TIP3
29 10 1 0.417000 -0.278000 3.840000 -0.289000 # HT TIP3
30 10 1 0.417000 -0.061000 3.770000 1.117000 # HT TIP3
31 11 2 -0.834000 -2.579000 -1.225000 0.058000 # OT TIP3
32 11 1 0.417000 -2.316000 -2.066000 -0.348000 # HT TIP3
33 11 1 0.417000 -1.781000 -0.660000 0.048000 # HT TIP3
34 12 2 -0.834000 0.141000 -3.389000 -4.501000 # OT TIP3
35 12 1 0.417000 -0.303000 -3.890000 -3.766000 # HT TIP3
36 12 1 0.417000 1.031000 -3.698000 -4.414000 # HT TIP3
37 13 2 -0.834000 0.461000 1.754000 -3.057000 # OT TIP3
38 13 1 0.417000 1.412000 1.627000 -2.982000 # HT TIP3
39 13 1 0.417000 0.209000 0.956000 -3.566000 # HT TIP3
40 14 2 -0.834000 2.314000 -4.772000 4.152000 # OT TIP3
41 14 1 0.417000 2.447000 -4.804000 3.157000 # HT TIP3
42 14 1 0.417000 3.219000 -4.664000 4.426000 # HT TIP3
43 15 2 -0.834000 2.529000 -0.492000 -3.604000 # OT TIP3
44 15 1 0.417000 3.313000 -0.418000 -4.143000 # HT TIP3
45 15 1 0.417000 1.783000 -0.489000 -4.232000 # HT TIP3
46 16 2 -0.834000 2.881000 -1.482000 0.700000 # OT TIP3
47 16 1 0.417000 3.550000 -0.775000 0.812000 # HT TIP3
48 16 1 0.417000 2.070000 -1.166000 1.169000 # HT TIP3
49 17 2 -0.834000 4.016000 -0.914000 3.814000 # OT TIP3
50 17 1 0.417000 4.377000 0.001000 3.813000 # HT TIP3
51 17 1 0.417000 3.726000 -1.259000 4.661000 # HT TIP3
52 18 2 -0.834000 1.439000 0.144000 2.455000 # OT TIP3
53 18 1 0.417000 2.310000 -0.164000 2.837000 # HT TIP3
54 18 1 0.417000 1.121000 0.819000 3.116000 # HT TIP3
55 19 2 -0.834000 1.255000 4.802000 -4.636000 # OT TIP3
56 19 1 0.417000 1.954000 4.121000 -4.329000 # HT TIP3
57 19 1 0.417000 0.459000 4.264000 -4.804000 # HT TIP3
58 20 2 -0.834000 1.140000 -1.331000 -1.296000 # OT TIP3
59 20 1 0.417000 1.732000 -1.163000 -2.051000 # HT TIP3
60 20 1 0.417000 1.807000 -1.592000 -0.622000 # HT TIP3
61 21 2 -0.834000 -4.312000 -2.219000 2.114000 # OT TIP3
62 21 1 0.417000 -3.512000 -1.810000 1.703000 # HT TIP3
63 21 1 0.417000 -4.947000 -1.571000 1.930000 # HT TIP3
64 22 2 -0.834000 -4.551000 2.366000 4.140000 # OT TIP3
65 22 1 0.417000 -4.798000 1.479000 4.095000 # HT TIP3
66 22 1 0.417000 -4.204000 2.563000 3.256000 # HT TIP3
67 23 2 -0.834000 -2.722000 -1.078000 -3.800000 # OT TIP3
68 23 1 0.417000 -2.299000 -1.608000 -4.440000 # HT TIP3
69 23 1 0.417000 -3.444000 -1.594000 -3.585000 # HT TIP3
70 24 2 -0.834000 -1.562000 3.099000 -4.684000 # OT TIP3
71 24 1 0.417000 -2.453000 2.847000 -4.423000 # HT TIP3
72 24 1 0.417000 -1.111000 2.775000 -3.907000 # HT TIP3
73 25 2 -0.834000 -3.686000 4.385000 2.173000 # OT TIP3
74 25 1 0.417000 -3.667000 3.706000 1.444000 # HT TIP3
75 25 1 0.417000 -2.944000 4.953000 1.980000 # HT TIP3
76 26 2 -0.834000 2.572000 -4.580000 -1.522000 # OT TIP3
77 26 1 0.417000 2.636000 -4.661000 -2.497000 # HT TIP3
78 26 1 0.417000 1.628000 -4.766000 -1.470000 # HT TIP3
79 27 2 -0.834000 -3.867000 2.080000 0.078000 # OT TIP3
80 27 1 0.417000 -3.799000 2.102000 -0.863000 # HT TIP3
81 27 1 0.417000 -4.642000 1.549000 0.302000 # HT TIP3
82 28 2 -0.834000 3.578000 -4.168000 1.351000 # OT TIP3
83 28 1 0.417000 2.928000 -4.470000 0.693000 # HT TIP3
84 28 1 0.417000 3.563000 -3.199000 1.335000 # HT TIP3

 Bonds

1 1 1 2
2 1 1 3
3 1 4 5
4 1 4 6
5 1 7 8
6 1 7 9
7 1 10 11
8 1 10 12
9 1 13 14
10 1 13 15
11 1 16 17
12 1 16 18
13 1 19 20
14 1 19 21
15 1 22 23
16 1 22 24
17 1 25 26
18 1 25 27
19 1 28 29
20 1 28 30
21 1 31 32
22 1 31 33
23 1 34 35
24 1 34 36
25 1 37 38
26 1 37 39
27 1 40 41
28 1 40 42
29 1 43 44
30 1 43 45
31 1 46 47
32 1 46 48
33 1 49 50
34 1 49 51
35 1 52 53
36 1 52 54
37 1 55 56
38 1 55 57
39 1 58 59
40 1 58 60
41 1 61 62
42 1 61 63
43 1 64 65
44 1 64 66
45 1 67 68
46 1 67 69
47 1 70 71
48 1 70 72
49 1 73 74
50 1 73 75
51 1 76 77
52 1 76 78
53 1 79 80
54 1 79 81
55 1 82 83
56 1 82 84

 Angles

1 1 2 1 3
2 1 5 4 6
3 1 8 7 9
4 1 11 10 12
5 1 14 13 15
6 1 17 16 18
7 1 20 19 21
8 1 23 22 24
9 1 26 25 27
10 1 29 28 30
11 1 32 31 33
12 1 35 34 36
13 1 38 37 39
14 1 41 40 42
15 1 44 43 45
16 1 47 46 48
17 1 50 49 51
18 1 53 52 54
19 1 56 55 57
20 1 59 58 60
21 1 62 61 63
22 1 65 64 66
23 1 68 67 69
24 1 71 70 72
25 1 74 73 75
26 1 77 76 78
27 1 80 79 81
28 1 83 82 84

