LAMMPS data file from restart file: timestep = 10000, procs = 2

5376 atoms
3584 bonds
1792 angles

2 atom types
1 bond types
1 angle types

-4.0892008500203438e+00 3.3554200850020521e+01 xlo xhi
-3.8067008500203450e+00 3.3836700850020520e+01 ylo yhi
-3.7562008500203454e+00 3.3887200850020520e+01 zlo zhi

Masses

1 1.00794
2 15.9994

Pair Coeffs

1 0.046 0.400014
2 0.1521 3.15057

Bond Coeffs

1 45000 0.9572

Angle Coeffs

1 5500 104.52

Atoms

25 9 2 -8.3399999999999996e-01 -1.8106555159224142e+00 1.2775363991627042e+00 2.6612804839575226e+00 0 0 0
26 9 1 4.1699999999999998e-01 -1.0448927805991524e+00 1.1379874987272931e+00 3.2183705732436518e+00 0 0 0
72 24 1 4.1699999999999998e-01 -1.8521393602288279e+00 1.8941957941699687e+00 1.3228348823050906e-01 0 0 0
115 39 2 -8.3399999999999996e-01 -1.6848034157230001e+00 -1.3163574899930590e+00 5.4120593735468780e-01 0 0 0
117 39 1 4.1699999999999998e-01 -1.3976293735650418e+00 -2.2292912473969517e+00 5.2389918566765203e-01 0 0 0
71 24 1 4.1699999999999998e-01 -3.8677325277351216e-01 1.5213842139286919e+00 2.0692943703739175e-01 0 0 0
70 24 2 -8.3399999999999996e-01 -1.0098870580371648e+00 2.0450874955049549e+00 -2.9673978699728654e-01 0 0 0
116 39 1 4.1699999999999998e-01 -8.7344748132482408e-01 -8.1033859960681554e-01 5.8438676161345171e-01 0 0 0
260 87 1 4.1699999999999998e-01 -2.5365619763066056e+00 1.9699678508443101e+00 5.3436702992912331e+00 1 0 0
88 30 2 -8.3399999999999996e-01 8.2821385506501599e-01 -8.7436845412163233e-02 8.8076495159454282e-01 0 0 0
89 30 1 4.1699999999999998e-01 1.0364990209742473e+00 -2.7372501526014004e-01 1.7962600852633965e+00 0 0 0
90 30 1 4.1699999999999998e-01 1.5407075401044699e+00 4.7807305816546819e-01 5.8282432557758224e-01 0 0 0
82 28 2 -8.3399999999999996e-01 3.4683285704728055e+00 -2.0315365793233342e+00 -4.1820274869917373e-01 0 0 0
83 28 1 4.1699999999999998e-01 4.2842073450588600e+00 -1.5404676508662378e+00 -5.1520570191041415e-01 0 0 0
1389 463 1 4.1699999999999998e-01 -3.6720999571355488e+00 3.5441094570223157e+00 3.4194384221501020e+00 0 0 0
4140 1380 1 4.1699999999999998e-01 4.4287636414261033e+00 5.1041231522010335e+00 -4.7406110821353753e-01 0 0 1
27 9 1 4.1699999999999998e-01 -2.5090272926243253e+00 1.5194935326793502e+00 3.2695152870965671e+00 0 0 0
5131 1711 2 -8.3399999999999996e-01 6.0562739513868546e+00 -2.8925514049420196e+00 -2.9946438511789575e+00 0 1 1
259 87 2 -8.3399999999999996e-01 -3.3273261717305771e+00 2.2720201194663208e+00 4.8968202514936063e+00 1 0 0
1370 457 1 4.1699999999999998e-01 -1.4730037546144530e+00 3.9887871549021456e+00 4.1477583092648995e-01 0 0 0
261 87 1 4.1699999999999998e-01 -4.0433870792589772e+00 1.8239540468732569e+00 5.3470555170419374e+00 1 0 0
1369 457 2 -8.3399999999999996e-01 -1.3536910034940779e+00 4.5382493413857450e+00 1.1894197596189562e+00 0 0 0
1371 457 1 4.1699999999999998e-01 -2.1071587842197421e+00 4.3373307880106626e+00 1.7445191276098138e+00 0 0 0
84 28 1 4.1699999999999998e-01 3.1529922303009004e+00 -1.8026953971586490e+00 4.5610334138027664e-01 0 0 0
4138 1380 2 -8.3399999999999996e-01 5.0068826893775356e+00 5.5358060202065360e+00 1.5494266074968399e-01 0 0 1
4139 1380 1 4.1699999999999998e-01 5.7269928903330847e+00 5.8766279756465973e+00 -3.7562420933339880e-01 0 0 1
1004 335 1 4.1699999999999998e-01 2.1603515696251961e+01 2.4390025292868398e+01 -1.7602646151079719e+00 0 0 0
28 10 2 -8.3399999999999996e-01 -7.0877420118982659e-01 5.5240919363170402e+00 -2.1426487287309666e+00 0 0 0
5133 1711 1 4.1699999999999998e-01 5.9207836934261699e+00 -2.1732870240165885e+00 -2.3777781751898992e+00 0 1 1
4281 1427 1 4.1699999999999998e-01 1.2059664406952812e+01 4.3297654292448264e+00 -2.0902402159761895e+00 0 0 1
2760 920 1 4.1699999999999998e-01 -7.6553203443002538e-02 3.2431462602053216e+01 4.9879696078101770e+00 0 -1 0
16 6 2 -8.3399999999999996e-01 -3.6259053073524727e-01 -3.7420055518094988e+00 3.7326903087338064e+00 0 0 0
17 6 1 4.1699999999999998e-01 -5.1935683519602183e-01 -2.8544014421088972e+00 4.0548720973597305e+00 0 0 0
63 21 1 4.1699999999999998e-01 2.2948493620724175e+00 3.1093451035334663e+01 2.2833495377018860e+00 0 -1 0
18 6 1 4.1699999999999998e-01 -4.1993671621882278e-02 -3.6198237305120160e+00 2.8390978170692405e+00 0 0 0
1490 497 1 4.1699999999999998e-01 -3.0922534210105050e+00 -1.6501589985569476e-01 7.7502943546379477e-01 0 0 0
1489 497 2 -8.3399999999999996e-01 -3.8044870801341895e+00 3.9799096942797352e-01 4.7177531372104564e-01 0 0 0
1491 497 1 4.1699999999999998e-01 3.3046463260408871e+01 -1.1951149923419147e-01 6.1470011498648081e-01 -1 0 0
1355 452 1 4.1699999999999998e-01 2.6258568353093636e+00 2.8075930664716093e+00 1.3223806835345577e+00 0 0 0
1356 452 1 4.1699999999999998e-01 3.1789315357053338e+00 1.5108444615825256e+00 1.8741080056809567e+00 0 0 0
1354 452 2 -8.3399999999999996e-01 2.7063149539178637e+00 1.8743702880677633e+00 1.1253109728276014e+00 0 0 0
1381 461 2 -8.3399999999999996e-01 5.8420520550192769e+00 -7.4411567397227163e-01 -1.2298867404092881e+00 0 0 0
1383 461 1 4.1699999999999998e-01 6.5852167077795922e+00 -4.8949185309309895e-01 -6.8299620193121591e-01 0 0 0
158 53 1 4.1699999999999998e-01 5.9956441072996061e+00 2.8649112805931409e+00 1.6892483759440120e+00 0 0 0
1382 461 1 4.1699999999999998e-01 5.5086961214349213e+00 8.1473999294702004e-02 -1.5813017683447588e+00 0 0 0
312 104 1 4.1699999999999998e-01 3.3126455349342351e+01 2.0599209527247524e+00 5.0312727957865366e-01 0 0 0
310 104 2 -8.3399999999999996e-01 3.2671633754808411e+01 2.8995365354361633e+00 5.6948022075377303e-01 0 0 0
4171 1391 2 -8.3399999999999996e-01 6.7594086865198069e+00 6.2906543893235245e+00 -1.7500315302918339e+00 0 0 1
1396 466 2 -8.3399999999999996e-01 3.0417271605177714e+00 1.0669916563230064e+00 4.8398086760490742e+00 0 0 0
304 102 2 -8.3399999999999996e-01 -3.2836062211884354e+00 -1.5309029280135742e+00 3.0055862506511142e+00 1 0 0
1623 541 1 4.1699999999999998e-01 -2.7813102914929688e-01 1.3093558517507820e-01 4.9379918349799947e+00 1 0 0
1432 478 2 -8.3399999999999996e-01 3.2383863255344698e+00 -1.4344530395620554e+00 2.3694997199389549e+00 0 0 0
1433 478 1 4.1699999999999998e-01 4.1298223741966158e+00 -1.0858288880703157e+00 2.3739539218697736e+00 0 0 0
5299 1767 2 -8.3399999999999996e-01 2.9531942431174951e+01 2.8832215789636880e+01 -1.6852935392558557e+00 0 0 1
1434 478 1 4.1699999999999998e-01 2.9597902597485071e+00 -1.3926624831887215e+00 3.2843032369037006e+00 0 0 0
311 104 1 4.1699999999999998e-01 3.3016478801491374e+01 3.2967276431498167e+00 1.3691919196977498e+00 0 0 0
2778 926 1 4.1699999999999998e-01 9.5134094797164437e-01 2.5351327889074380e+00 1.2699177119940014e+01 0 0 0
30 10 1 4.1699999999999998e-01 -1.2094295974379654e+00 6.1054512762662050e+00 -1.5703015660274753e+00 0 0 0
305 102 1 4.1699999999999998e-01 -3.9160549375504461e+00 -1.9934687799170887e+00 2.4558077528983846e+00 1 0 0
354 118 1 4.1699999999999998e-01 2.7434929696889796e+00 3.9109124746024797e+00 -1.0962408121936034e+00 0 0 0
370 124 2 -8.3399999999999996e-01 1.5616935489878392e+00 4.4882153142799162e+00 6.8883897850564058e-01 0 0 0
372 124 1 4.1699999999999998e-01 8.3165719097056456e-01 3.9046731162882438e+00 8.9557684949696270e-01 0 0 0
352 118 2 -8.3399999999999996e-01 3.5108604504599965e+00 4.1064861827191832e+00 -1.6339347983804315e+00 0 0 0
353 118 1 4.1699999999999998e-01 3.8595508658124276e+00 3.2484460807131148e+00 -1.8756045395399945e+00 0 0 0
4107 1369 1 4.1699999999999998e-01 3.3319156003911814e+01 4.1357014784930044e+00 -7.4797088029527803e-01 -1 0 1
54 18 1 4.1699999999999998e-01 3.5247209636273791e+00 1.3355927004912349e-01 -2.3989102039466310e+00 0 0 0
4105 1369 2 -8.3399999999999996e-01 -3.6176120740103164e+00 4.4505716173123915e+00 -1.3116568637115158e+00 0 0 1
1402 468 2 -8.3399999999999996e-01 5.0400111798400076e+00 2.6964379292647163e+00 3.3858100231172861e+00 0 0 0
1403 468 1 4.1699999999999998e-01 4.5141435095339038e+00 2.1978485179943572e+00 4.0111827432345786e+00 0 0 0
1404 468 1 4.1699999999999998e-01 4.7851226040491373e+00 3.6076340217643148e+00 3.5306311470303831e+00 0 0 0
1398 466 1 4.1699999999999998e-01 3.1432547550729524e+00 1.3102434214248149e-01 5.0126520886638399e+00 0 0 0
1397 466 1 4.1699999999999998e-01 2.1029975861087280e+00 1.2281415509482656e+00 4.9348644403465247e+00 0 0 0
1622 541 1 4.1699999999999998e-01 1.6887740012022867e-02 1.5942774920988318e+00 5.1898792686814534e+00 1 0 0
1621 541 2 -8.3399999999999996e-01 2.3035370968565783e-01 8.6925637226099095e-01 4.6025195601537252e+00 1 0 0
52 18 2 -8.3399999999999996e-01 3.0789346391524655e+00 -6.8252836981004306e-01 -2.6258287302613010e+00 0 0 0
306 102 1 4.1699999999999998e-01 -2.8832149557864999e+00 -8.8716994560133111e-01 2.4211972758426352e+00 1 0 0
2483 828 1 4.1699999999999998e-01 1.4379137947942422e+01 2.8057658859160981e+01 1.3401779346775129e+01 0 0 0
278 93 1 4.1699999999999998e-01 3.0135896440672230e+01 8.0735041143939679e+00 -3.1344679560823954e+00 0 0 0
1065 355 1 4.1699999999999998e-01 -2.7949411313063521e-01 2.5369248791328427e+01 -2.0136592583210700e+00 0 0 0
281 94 1 4.1699999999999998e-01 -1.6483964641456605e+00 3.3335827409720935e+01 6.3240163709032693e+00 1 -1 0
53 18 1 4.1699999999999998e-01 3.0918582912353090e+00 -1.1957061359355303e+00 -1.8179300719421136e+00 0 0 0
4173 1391 1 4.1699999999999998e-01 7.4900961994603783e+00 6.6404688111461372e+00 -1.2401861921109023e+00 0 0 1
5294 1765 1 4.1699999999999998e-01 2.4336766672446750e+01 3.3404740597639616e+01 -3.6994352801211932e+00 0 0 1
138 46 1 4.1699999999999998e-01 7.9389306446790737e+00 1.8015376588002106e+00 -1.1275865520529438e+00 0 0 0
157 53 2 -8.3399999999999996e-01 6.2927604284423104e+00 3.0092892069680239e+00 7.9086513212480014e-01 0 0 0
123 41 1 4.1699999999999998e-01 8.1866451319547018e+00 -9.5255324705357047e-01 1.0080576340154064e+00 0 0 0
121 41 2 -8.3399999999999996e-01 8.3121826246259705e+00 -1.9002740855458211e+00 9.6029938939881188e-01 0 0 0
159 53 1 4.1699999999999998e-01 6.0024904948761471e+00 3.8971376449880193e+00 5.8185696044785118e-01 0 0 0
1698 566 1 4.1699999999999998e-01 5.4959310618871253e+00 9.8517657801172032e-01 2.3726120040933631e+00 0 0 0
5069 1690 1 4.1699999999999998e-01 2.1416370391379767e+00 3.2663798856660890e+01 -3.5715084808662350e+00 0 0 1
46 16 2 -8.3399999999999996e-01 1.0591936586866762e+01 4.9301889976192914e-01 3.2311960260387158e+00 0 0 0
137 46 1 4.1699999999999998e-01 7.6028118063361916e+00 1.6574670310030077e+00 3.4146731473009950e-01 0 0 0
48 16 1 4.1699999999999998e-01 1.1346469841846586e+01 1.0818921071949417e+00 3.2422770258114388e+00 0 0 0
142 48 2 -8.3399999999999996e-01 1.0564865656614959e+01 -6.6480567893489928e-01 2.8276693814467446e-01 0 0 0
143 48 1 4.1699999999999998e-01 1.1172547714565416e+01 -1.1469965519069358e+00 -2.7797515315071353e-01 0 0 0
144 48 1 4.1699999999999998e-01 9.8739821549443949e+00 -1.2953760736850066e+00 4.8593849963947733e-01 0 0 0
136 46 2 -8.3399999999999996e-01 8.0646845345857194e+00 1.2229242537810645e+00 -3.7551555640324574e-01 0 0 0
4166 1389 1 4.1699999999999998e-01 1.4786806196203901e+01 2.1823722432764949e+00 -1.2659905481339573e+00 0 0 1
4165 1389 2 -8.3399999999999996e-01 1.3846300969167590e+01 2.1185274881294340e+00 -1.4320997034584053e+00 0 0 1
4167 1389 1 4.1699999999999998e-01 1.3763010699011257e+01 2.2156301910760021e+00 -2.3807052264676516e+00 0 0 1
460 154 2 -8.3399999999999996e-01 1.4708978688826033e+01 2.4333038498189161e+00 3.6076319795409839e+00 0 0 0
461 154 1 4.1699999999999998e-01 1.5574049912321737e+01 2.2608758583439279e+00 3.9792978839256081e+00 0 0 0
462 154 1 4.1699999999999998e-01 1.4852502574736793e+01 2.4458724455929435e+00 2.6613458139546058e+00 0 0 0
4170 1390 1 4.1699999999999998e-01 7.9080164564769699e+00 3.5095965730715646e+00 -2.1684614893550567e+00 0 0 1
4168 1390 2 -8.3399999999999996e-01 7.3399001106347406e+00 2.9255029635081042e+00 -2.6707498452408598e+00 0 0 1
1453 485 2 -8.3399999999999996e-01 1.5218705007485330e+01 3.3326256135402545e+01 3.5244011463079765e+00 0 -1 0
1498 500 2 -8.3399999999999996e-01 1.4444149879872423e+01 -2.0276945812804326e+00 1.2307665324738650e+00 0 0 0
1499 500 1 4.1699999999999998e-01 1.3984368975285189e+01 -2.6883128154998941e+00 1.7488410062086670e+00 0 0 0
4144 1382 2 -8.3399999999999996e-01 1.1976952168572438e+01 1.7041793535744452e+00 4.4459302819780167e-01 0 0 1
47 16 1 4.1699999999999998e-01 1.0114393967995865e+01 7.2977697921345985e-01 2.4361404376260865e+00 0 0 0
3332 1111 1 4.1699999999999998e-01 -2.5630343015843353e+00 2.1541304807762867e+01 1.4674749893269716e+01 1 0 0
4146 1382 1 4.1699999999999998e-01 1.1421376153671662e+01 9.5313624386311346e-01 2.3605502888458529e-01 0 0 1
1448 483 1 4.1699999999999998e-01 1.4166878941428617e+01 4.2435944024474370e-02 9.8892124042410678e-01 0 0 0
4145 1382 1 4.1699999999999998e-01 1.2511144024715350e+01 1.8325116378883877e+00 -3.3923546544224337e-01 0 0 1
91 31 2 -8.3399999999999996e-01 1.2149855143711282e+01 3.4379531837984612e+00 4.9461975120452379e+00 0 0 0
118 40 2 -8.3399999999999996e-01 1.2474397471170448e+01 -2.2378123281884745e+00 -6.9581164196681389e-01 0 0 0
1422 474 1 4.1699999999999998e-01 1.0651319060239663e+01 -7.9413390515679660e-01 4.4189340285642569e+00 0 0 0
4200 1400 1 4.1699999999999998e-01 8.7571739926114187e+00 1.7093642188573455e-01 -3.0063797456834132e+00 0 0 1
122 41 1 4.1699999999999998e-01 8.2409387292359053e+00 -2.1977985488184384e+00 1.8672828023298980e+00 0 0 0
148 50 2 -8.3399999999999996e-01 1.0035385973586589e+01 5.8171869737023254e+00 2.5186428828346337e+00 0 0 0
149 50 1 4.1699999999999998e-01 1.0283591197351285e+01 5.0021806365614765e+00 2.0823209960676090e+00 0 0 0
150 50 1 4.1699999999999998e-01 9.0830892728091577e+00 5.7653323325494128e+00 2.6002466431504176e+00 0 0 0
98 33 1 4.1699999999999998e-01 9.4943939712020224e+00 3.5855926095426600e+00 3.7127614445499013e-01 0 0 0
93 31 1 4.1699999999999998e-01 1.3003238994794867e+01 3.2374587930340493e+00 4.5618059221032059e+00 0 0 0
97 33 2 -8.3399999999999996e-01 1.0051457330542366e+01 3.5437256775978057e+00 1.1485435631868253e+00 0 0 0
99 33 1 4.1699999999999998e-01 1.0775021467949262e+01 2.9708309674953428e+00 8.9464425546066284e-01 0 0 0
120 40 1 4.1699999999999998e-01 1.2958931168824293e+01 -2.4319264099408970e+00 -1.4981610835011043e+00 0 0 0
119 40 1 4.1699999999999998e-01 1.3128429846424027e+01 -2.2994645138145131e+00 3.6358257265067806e-04 0 0 0
104 35 1 4.1699999999999998e-01 7.9837357257451451e+00 -3.4703686099530793e+00 1.1571730603376995e-01 0 0 0
103 35 2 -8.3399999999999996e-01 7.9308145110473127e+00 3.3318250421117796e+01 -3.1179195616494226e-01 0 -1 0
457 153 2 -8.3399999999999996e-01 7.1107972653252869e+00 1.3270358311938868e+01 -3.0757512588010378e+00 0 0 0
1421 474 1 4.1699999999999998e-01 1.1624403106183566e+01 -1.9490182693944393e+00 4.3130923488043944e+00 0 0 0
376 126 2 -8.3399999999999996e-01 9.4682842543147512e+00 3.3117480139772075e+00 3.7902110702626874e+00 0 0 0
378 126 1 4.1699999999999998e-01 9.5887909792148758e+00 3.4215618312306058e+00 2.8470060120866085e+00 0 0 0
377 126 1 4.1699999999999998e-01 1.0353676541715274e+01 3.1889189788924392e+00 4.1325720126759267e+00 0 0 0
1420 474 2 -8.3399999999999996e-01 1.1080456594798884e+01 -1.4725727789926224e+00 4.9402602152255888e+00 0 0 0
4199 1400 1 4.1699999999999998e-01 9.5726619109687636e+00 1.7413010589842193e-01 -1.7309105639498865e+00 0 0 1
1436 479 1 4.1699999999999998e-01 1.3055644631374886e+01 5.7459451009100029e+00 7.4274927111988287e+00 0 0 0
468 156 1 4.1699999999999998e-01 1.0029020831312572e+01 4.6399805088368868e+00 -1.5487519022131488e+00 0 0 0
165 55 1 4.1699999999999998e-01 4.9780078680675039e+00 6.7995601010648485e+00 1.5840399647134831e+00 0 0 0
387 129 1 4.1699999999999998e-01 6.6830749075968221e+00 5.0878155197528301e+00 2.6062989693258727e+00 0 0 0
386 129 1 4.1699999999999998e-01 7.6712252095393900e+00 4.3490476918570113e+00 3.4835861387961167e+00 0 0 0
385 129 2 -8.3399999999999996e-01 7.4194796389156430e+00 5.2283766214586862e+00 3.2014167127712225e+00 0 0 0
113 38 1 4.1699999999999998e-01 9.3276248162627837e+00 4.8012158179575266e+00 6.5246685299779710e+00 0 0 0
4503 1501 1 4.1699999999999998e-01 1.1873283754571673e+01 6.4092885917738283e+00 -1.1213362036457397e-03 0 0 1
4499 1500 1 4.1699999999999998e-01 1.5168273738447709e+01 5.5224071348057002e+00 1.5131255804388948e+00 0 0 1
4473 1491 1 4.1699999999999998e-01 1.4599040015470823e+01 3.3560439188644393e+00 5.6804617103082666e-01 0 0 1
4471 1491 2 -8.3399999999999996e-01 1.5194537062610468e+01 3.8835210245339971e+00 1.1003674618302028e+00 0 0 1
4198 1400 2 -8.3399999999999996e-01 9.6545597550143185e+00 9.7580976420707621e-02 -2.6815159567524840e+00 0 0 1
836 279 1 4.1699999999999998e-01 1.6019506143243234e+00 2.8692605140796740e+01 -2.7281609777877018e+00 0 0 0
105 35 1 4.1699999999999998e-01 8.8272602486912515e+00 3.2983363512021370e+01 -2.9049021457096602e-01 0 -1 0
1142 381 1 4.1699999999999998e-01 9.3312265933924721e+00 3.1642891826540879e+01 2.3373987508075702e+00 0 0 0
4280 1427 1 4.1699999999999998e-01 1.2993437217294293e+01 5.2425007922728888e+00 -1.3241890302323434e+00 0 0 1
5068 1690 2 -8.3399999999999996e-01 1.5850422496913072e+00 3.1971401615110675e+01 -3.2151264313399137e+00 0 0 1
1696 566 2 -8.3399999999999996e-01 5.6680200734844934e+00 6.6370796859564596e-02 2.1667053281417106e+00 0 0 0
92 31 1 4.1699999999999998e-01 1.2355366695231620e+01 3.8968829110990963e+00 5.7606710526845841e+00 0 0 0
1608 536 1 4.1699999999999998e-01 -3.6412882199300274e+00 2.0982850740634751e+00 1.4496434443030527e+01 1 0 0
521 174 1 4.1699999999999998e-01 1.4141119337249165e+01 1.1262352043229589e+01 -3.1609709258271503e+00 0 0 0
1861 621 2 -8.3399999999999996e-01 2.1780644412242545e+01 2.0786903462687750e+01 1.4129506915103118e+01 0 0 0
50 17 1 4.1699999999999998e-01 1.7031233444691956e+01 -7.7589547980064566e-02 2.2800382052842467e+00 0 0 0
51 17 1 4.1699999999999998e-01 1.7145437109200866e+01 -1.3000669185644216e+00 3.1656783917918085e+00 0 0 0
1454 485 1 4.1699999999999998e-01 1.5806062120533824e+01 3.3538947508150287e+01 2.7991485154108826e+00 0 -1 0
1447 483 2 -8.3399999999999996e-01 1.4475598484222317e+01 9.4808311266554934e-01 1.0155955193800859e+00 0 0 0
1449 483 1 4.1699999999999998e-01 1.3752508834793094e+01 1.4589310049565496e+00 6.5173945742413775e-01 0 0 0
4125 1375 1 4.1699999999999998e-01 1.7492111981192533e+01 3.1273125264994439e+00 -1.2579973293158480e+00 0 0 1
4472 1491 1 4.1699999999999998e-01 1.6065416187158039e+01 3.5441446076951371e+00 8.9394834648409649e-01 0 0 1
29 10 1 4.1699999999999998e-01 -1.2625491932421880e+00 4.7496767583089667e+00 -2.2417979737488096e+00 0 0 0
49 17 2 -8.3399999999999996e-01 1.6726921315128035e+01 -9.8102812961602481e-01 2.3661297467023630e+00 0 0 0
133 45 2 -8.3399999999999996e-01 1.7770500028171806e+01 1.4202891097927415e+00 1.5948342708768797e+00 0 0 0
134 45 1 4.1699999999999998e-01 1.8551222544059804e+01 1.0761799922444464e+00 1.1609248101777006e+00 0 0 0
135 45 1 4.1699999999999998e-01 1.7548377916383757e+01 2.2085980818241175e+00 1.0994062793563106e+00 0 0 0
231 77 1 4.1699999999999998e-01 1.8418020000031994e+01 -1.0593272711078670e+00 -2.8772980348180961e+00 0 0 0
4124 1375 1 4.1699999999999998e-01 1.7301905679383935e+01 1.6826552020376697e+00 -1.6686538894858933e+00 0 0 1
183 61 1 4.1699999999999998e-01 2.3066333540748843e+01 4.8867244695566203e-01 -2.4450756639095084e+00 0 0 0
229 77 2 -8.3399999999999996e-01 1.7593787668764197e+01 -5.8709013908539376e-01 -2.9949846549642700e+00 0 0 0
181 61 2 -8.3399999999999996e-01 2.2171759467209803e+01 2.4844526333745254e-01 -2.2037365468320482e+00 0 0 0
230 77 1 4.1699999999999998e-01 1.7355976913297965e+01 -2.9632676465841135e-01 -2.1145747533217949e+00 0 0 0
3091 1031 2 -8.3399999999999996e-01 -3.7342972148335636e+00 9.9955528195902943e+00 1.4938240513472543e+01 0 0 0
182 61 1 4.1699999999999998e-01 2.1644457097295046e+01 1.0083784383288110e+00 -2.4500521315492025e+00 0 0 0
5057 1686 1 4.1699999999999998e-01 -3.8499815112194096e+00 2.4583206729139423e+01 -3.3483289962790170e+00 0 0 1
166 56 2 -8.3399999999999996e-01 2.1858991031653701e+01 5.7164407130011465e+00 2.1397224534452084e+00 0 0 0
168 56 1 4.1699999999999998e-01 2.1794583066663400e+01 6.4710897776922618e+00 2.7250197200037940e+00 0 0 0
172 58 2 -8.3399999999999996e-01 2.0982630696529569e+01 1.4505799640753754e+00 3.4056923919093851e-01 0 0 0
173 58 1 4.1699999999999998e-01 2.1869321339731641e+01 1.1202440846158197e+00 1.9609302490847336e-01 0 0 0
174 58 1 4.1699999999999998e-01 2.0450146134195489e+01 1.0047693732568614e+00 -3.1816276406520805e-01 0 0 0
184 62 2 -8.3399999999999996e-01 2.1063301141147427e+01 -1.0271031620882329e+00 2.6964147779403893e+00 0 0 0
185 62 1 4.1699999999999998e-01 2.1734817120526291e+01 -4.7950524114225246e-01 2.2896979394160066e+00 0 0 0
190 64 2 -8.3399999999999996e-01 2.3877328235219707e+01 1.4186347268394677e+00 5.3589590770798701e-01 0 0 0
191 64 1 4.1699999999999998e-01 2.4602670397152956e+01 1.0538079345566169e+00 2.8947469317009755e-02 0 0 0
192 64 1 4.1699999999999998e-01 2.4253442118682287e+01 1.5988903011046851e+00 1.3974421705673290e+00 0 0 0
320 107 1 4.1699999999999998e-01 2.3205188312307563e+01 -1.3335425653428650e+00 -1.5392905668831154e+00 0 0 0
319 107 2 -8.3399999999999996e-01 2.3392930183243390e+01 -2.0458919883403386e+00 -9.2812211346850848e-01 0 0 0
321 107 1 4.1699999999999998e-01 2.3734084458617875e+01 -2.7507360188739316e+00 -1.4785984580077707e+00 0 0 0
186 62 1 4.1699999999999998e-01 2.0872129733817232e+01 -5.9419130267200337e-01 3.5284350003239400e+00 0 0 0
189 63 1 4.1699999999999998e-01 1.9876889079457168e+01 -2.3638312321712718e+00 -1.8477453391952148e-01 0 0 0
167 56 1 4.1699999999999998e-01 2.2799658197834958e+01 5.5757718288421874e+00 2.0321407788152053e+00 0 0 0
587 196 1 4.1699999999999998e-01 2.0035722972389664e+01 2.3622250642048721e+00 -2.4844530507202700e+00 0 0 0
557 186 1 4.1699999999999998e-01 2.4382236847096735e+01 4.6952121945314733e+00 2.0380587124525640e+00 0 0 0
558 186 1 4.1699999999999998e-01 2.5479998209271095e+01 5.5113065362741853e+00 1.3893951680185257e+00 0 0 0
556 186 2 -8.3399999999999996e-01 2.4528863626723208e+01 5.4068776166273018e+00 1.4149626366288786e+00 0 0 0
586 196 2 -8.3399999999999996e-01 1.9459971542204041e+01 1.6553671172059348e+00 -2.1927661927295814e+00 0 0 0
588 196 1 4.1699999999999998e-01 1.9490881518530628e+01 1.0127553442243702e+00 -2.9015069692794833e+00 0 0 0
397 133 2 -8.3399999999999996e-01 9.7758938227513248e-02 9.4235650385968288e+00 -3.0607886293229716e+00 0 0 0
4123 1375 2 -8.3399999999999996e-01 1.6964504723103737e+01 2.3506508304209595e+00 -1.0718630147551069e+00 0 0 1
5238 1746 1 4.1699999999999998e-01 1.8505919845878964e+01 4.9191691308617482e+00 -2.6177070202770416e+00 0 1 1
4240 1414 2 -8.3399999999999996e-01 2.0177945442275949e+01 -1.9238593469254277e+00 -1.9199501316368803e+00 0 0 1
1185 395 1 4.1699999999999998e-01 2.3994234373006371e+01 8.5424219149787817e-01 3.8905441124976692e+00 0 1 0
1183 395 2 -8.3399999999999996e-01 2.4662311079978839e+01 1.1422667681509990e+00 3.2685063406381332e+00 0 1 0
241 81 2 -8.3399999999999996e-01 2.0078132887697510e+01 5.9452489358034946e+00 7.7370572788835190e-03 0 0 0
242 81 1 4.1699999999999998e-01 2.0005939627625292e+01 6.8596206158866977e+00 -2.6599114435594284e-01 0 0 0
774 258 1 4.1699999999999998e-01 2.0948984015865982e+01 2.5464750800041358e+00 1.7301594363588020e+00 0 0 0
243 81 1 4.1699999999999998e-01 2.0583776944803979e+01 5.9770648296987741e+00 8.1985016194386429e-01 0 0 0
4242 1414 1 4.1699999999999998e-01 2.0948542502102615e+01 -1.3569098518062246e+00 -1.9510130752520054e+00 0 0 1
187 63 2 -8.3399999999999996e-01 1.9609112571825250e+01 -2.7617390791294696e+00 6.4358573925249907e-01 0 0 0
188 63 1 4.1699999999999998e-01 2.0129791079540581e+01 -2.3087167211475959e+00 1.3068205606909054e+00 0 0 0
1223 408 1 4.1699999999999998e-01 2.4118344355487075e+01 -2.3913752007035112e+00 1.2198124148244416e+00 0 1 0
250 84 2 -8.3399999999999996e-01 2.3565273327276731e+01 -2.5684619746754351e+00 5.2160255247026459e+00 0 0 0
252 84 1 4.1699999999999998e-01 2.3329009522065586e+01 -2.2992975693437279e+00 4.3283622719506578e+00 0 0 0
5236 1746 2 -8.3399999999999996e-01 1.8343369378226818e+01 4.5681576938957633e+00 -1.7421586897715216e+00 0 1 1
4275 1425 1 4.1699999999999998e-01 1.5105788191267070e+01 4.9880137027529390e+00 -2.9917333405824902e+00 0 0 1
331 111 2 -8.3399999999999996e-01 2.4653574995429295e+01 3.8908910814147966e+00 3.6071854913528139e+00 0 0 0
332 111 1 4.1699999999999998e-01 2.4613844365463834e+01 2.9345311975765904e+00 3.6034366562420033e+00 0 0 0
4273 1425 2 -8.3399999999999996e-01 1.4426346072647334e+01 5.6615817608007379e+00 -2.9620652571872639e+00 0 0 1
708 236 1 4.1699999999999998e-01 1.0906035583899584e+01 1.7245898972039956e+01 -3.0374099880295224e+00 0 0 0
248 83 1 4.1699999999999998e-01 2.1476576274547959e+01 4.9063484495814293e+00 -3.3098473442767551e+00 0 0 0
247 83 2 -8.3399999999999996e-01 2.1314464398969989e+01 4.2407898007983214e+00 -2.6412880232935452e+00 0 0 0
773 258 1 4.1699999999999998e-01 2.1185403385273087e+01 3.8818154107469747e+00 2.4030825327168310e+00 0 0 0
772 258 2 -8.3399999999999996e-01 2.0837672788576803e+01 3.0045190264192287e+00 2.5632414252044766e+00 0 0 0
1893 631 1 4.1699999999999998e-01 1.9687820094196017e+01 5.5842210690314751e+00 4.1180416592790641e+00 0 0 0
1450 484 2 -8.3399999999999996e-01 1.8512580588075632e+01 4.1161342153659373e+00 3.5314157569021054e+00 0 0 0
1452 484 1 4.1699999999999998e-01 1.9305693906506832e+01 3.5955849354869294e+00 3.4040737582438396e+00 0 0 0
5237 1746 1 4.1699999999999998e-01 1.8819370938179709e+01 5.1561308807889823e+00 -1.1557046144080481e+00 0 1 1
4274 1425 1 4.1699999999999998e-01 1.4905129276392657e+01 6.4797288841429097e+00 -2.8293339355498248e+00 0 0 1
1231 411 2 -8.3399999999999996e-01 2.1648248576872803e+01 3.3012296943434606e+01 5.2833439382797831e-02 0 0 0
1232 411 1 4.1699999999999998e-01 2.1219289154395263e+01 3.2565891028045087e+01 -6.7718825326002197e-01 0 0 0
1233 411 1 4.1699999999999998e-01 2.1619702959560662e+01 -3.7038018356958005e+00 -1.8277259205436058e-01 0 1 0
4241 1414 1 4.1699999999999998e-01 2.0241463483215167e+01 -2.4587152742444522e+00 -2.7112224695502292e+00 0 0 1
5295 1765 1 4.1699999999999998e-01 2.3245440374582511e+01 3.3057008217907750e+01 -2.7095153791998703e+00 0 0 1
4064 1355 1 4.1699999999999998e-01 -1.9898614540534370e+00 3.3738218271648407e+01 -3.4661240435719116e+00 0 -1 1
5293 1765 2 -8.3399999999999996e-01 2.4014292637772513e+01 3.3615712651026129e+01 -2.8232401691325522e+00 0 0 1
1064 355 1 4.1699999999999998e-01 2.0350945424304889e-01 2.6798742775104394e+01 -2.1365883356882915e+00 0 0 0
444 148 1 4.1699999999999998e-01 5.7048864054448334e+00 2.0797079116919583e+00 -2.4317118189035920e+00 0 0 0
490 164 2 -8.3399999999999996e-01 8.4073348002268400e-01 1.2133405755811454e+01 -3.2380917156574927e+00 0 0 0
34 12 2 -8.3399999999999996e-01 3.2567494000424915e+01 3.2347829002670721e+01 -1.3741462702871359e+00 -1 -1 0
33 11 1 4.1699999999999998e-01 3.0977066562335690e+01 2.1798747328098855e-01 1.3861538678185852e+00 -1 0 0
1387 463 2 -8.3399999999999996e-01 -3.7841566548402112e+00 4.1552161281547457e+00 2.6912811927704583e+00 0 0 0
1388 463 1 4.1699999999999998e-01 3.3363653055253749e+01 4.8843705184604538e+00 3.0640263248777719e+00 -1 0 0
275 92 1 4.1699999999999998e-01 3.0985590831920664e+01 2.4719080116795311e+00 6.7810917292550688e-01 0 0 0
31 11 2 -8.3399999999999996e-01 3.1266708492074276e+01 -6.6952980174595655e-01 1.1748805700775407e+00 -1 0 0
32 11 1 4.1699999999999998e-01 3.1249884766033698e+01 -1.1331513315357880e+00 2.0121301817996438e+00 -1 0 0
5190 1730 1 4.1699999999999998e-01 4.0708887444273678e+00 2.9244199171368731e+01 -2.4420117034225388e+00 0 0 1
257 86 1 4.1699999999999998e-01 2.5455323837216888e+01 4.0928634779784483e+00 -2.6066070770380301e+00 0 0 0
655 219 2 -8.3399999999999996e-01 2.4599580213271729e+01 3.7135430387704167e+00 -9.6512431217444572e-01 0 0 0
657 219 1 4.1699999999999998e-01 2.4675572836007454e+01 4.3472577495351743e+00 -2.5178979871170926e-01 0 0 0
656 219 1 4.1699999999999998e-01 2.4367495907314961e+01 2.8918657575927371e+00 -5.3245987229662717e-01 0 0 0
1329 443 1 4.1699999999999998e-01 2.7245018643921437e+01 -2.6722554634715534e+00 -2.8407102155249708e-01 0 1 0
251 84 1 4.1699999999999998e-01 2.3519692722721743e+01 -1.7630050854981745e+00 5.7311748476669173e+00 0 0 0
442 148 2 -8.3399999999999996e-01 4.8399945388722792e+00 1.6739949281332196e+00 -2.4915368124688282e+00 0 0 0
1328 443 1 4.1699999999999998e-01 2.6338743519392779e+01 -2.1826314725959080e+00 8.2533686246153870e-01 0 1 0
1224 408 1 4.1699999999999998e-01 2.4928136625359237e+01 -3.4222976523850566e+00 1.9769701205645580e+00 0 1 0
1327 443 2 -8.3399999999999996e-01 2.6958358368718677e+01 -1.8760686397360886e+00 1.6328587235374448e-01 0 1 0
1184 395 1 4.1699999999999998e-01 2.5405088720295769e+01 5.5977705773501452e-01 3.4272592760330465e+00 0 1 0
1222 408 2 -8.3399999999999996e-01 2.4646383966058814e+01 -2.5080955509280596e+00 2.0096005792013996e+00 0 1 0
862 288 2 -8.3399999999999996e-01 1.4275493256262241e+01 2.8513195524834767e+01 -3.6145064282177555e+00 0 0 0
38 13 1 4.1699999999999998e-01 2.9847620696426961e+01 1.0435624195605140e+00 -2.0855306799241071e+00 -1 0 0
459 153 1 4.1699999999999998e-01 6.5240080348239413e+00 1.3979304594266647e+01 -2.8125221318017131e+00 0 0 0
274 92 2 -8.3399999999999996e-01 3.0323145265001646e+01 1.8626425722764868e+00 1.0039660220086866e+00 0 0 0
276 92 1 4.1699999999999998e-01 2.9488617166894070e+01 2.2595753911512171e+00 7.5451762259118205e-01 0 0 0
1613 538 1 4.1699999999999998e-01 3.1070317449796224e+01 -2.2313566896464256e+00 4.0983564038861049e+00 0 0 0
244 82 2 -8.3399999999999996e-01 2.7208764960177849e+01 5.3115527667350726e+00 1.1478556896156782e+00 0 0 0