LAMMPS (27 Nov 2018)
# LAMMPS atomistic input script

echo		screen
  orthogonal box = (-0.505141 -0.806203 -0.862753) to (15.7831 15.482 15.4255)
  4 by 2 by 2 MPI processor grid
WARNING: Pair style in data file differs from currently defined pair style (../read_data.cpp:580)
  reading atoms ...
  383 atoms
  reading velocities ...
  383 velocities
  scanning bonds ...
  4 = max bonds/atom
  scanning angles ...
  6 = max angles/atom
  scanning dihedrals ...
  9 = max dihedrals/atom
  scanning impropers ...
  4 = max impropers/atom
  reading bonds ...
  342 bonds
  reading angles ...
  562 angles
  reading dihedrals ...
  534 dihedrals
  reading impropers ...
  348 impropers
  4 = max # of 1-2 neighbors
  6 = max # of 1-3 neighbors
  10 = max # of special neighbors
PPPM initialization ...
  using 12-bit tables for long-range coulomb (../kspace.cpp:321)
  G vector (1/distance) = 0.288287
  grid = 10 10 10
  stencil order = 5
  estimated absolute RMS force accuracy = 0.00279394
  estimated relative force accuracy = 8.41388e-06
  using double precision FFTs
  3d grid and FFT values/proc = 1296 90
Neighbor list info ...
  update every 1 steps, delay 10 steps, check yes
  max neighbors/atom: 2000, page size: 100000
  master list distance cutoff = 11.5
  ghost atom cutoff = 11.5
  binsize = 5.75, bins = 3 3 3
  3 neighbor lists, perpetual/occasional/extra = 3 0 0
  (1) pair lj/class2/coul/long, perpetual, skip from (3)
      attributes: half, newton on
      pair build: skip
      stencil: none
      bin: none
  (2) pair lj/class2/coul/long/soft, perpetual, skip from (3)
      attributes: half, newton on
      pair build: skip
      stencil: none
      bin: none
  (3) neighbor class addition, perpetual
      attributes: half, newton on
      pair build: half/bin/newton
      stencil: half/bin/3d/newton
      bin: standard
Per MPI rank memory allocation (min/avg/max) = 13.61 | 13.92 | 14.89 Mbytes
Step S/CPU Temp Press Volume TotEng PotEng v_lambda v_q1 v_q2 v_q3 
       0            0    301.82904     533.3184    4321.3892   -79.144423   -422.82793            1       -0.159       -0.106        0.053 
     100    799.51858    297.06821    2966.9114    4321.3892   -67.550969   -405.81346        0.999    -0.158841    -0.105894     0.052947 
     200    1111.1841    310.89475   -1076.6004    4321.3892   -32.998901   -387.00525        0.998    -0.158682    -0.105788     0.052894 
     300    1459.1789    313.65424    320.85082    4321.3892   -29.026776   -386.17527        0.997    -0.158523    -0.105682     0.052841 
     400    1415.1559    311.37233   -4525.9921    4321.3892   -43.910969   -398.46112        0.996    -0.158364    -0.105576     0.052788 
     500    1489.9869    288.38744   -1783.6133    4321.3892   -59.978436    -388.3564        0.995    -0.158205     -0.10547     0.052735 
     600    1372.2162    300.78589    2406.4287    4321.3892   -58.529306     -401.025        0.994    -0.158046    -0.105364     0.052682 
     700    1273.4802    302.48787    1188.4083    4321.3892   -19.664773   -364.09847        0.993    -0.157887    -0.105258     0.052629 
     800    1379.5701    324.19685     3525.573    4321.3892   -6.5601902   -375.71324        0.992    -0.157728    -0.105152     0.052576 
     900    1417.4117    302.20264    580.80929    4321.3892   -31.492626   -375.60153        0.991    -0.157569    -0.105046     0.052523 
    1000    1423.0943    288.09813   -3390.5518    4321.3892   -50.795041   -378.84358         0.99     -0.15741     -0.10494      0.05247 
    1100    1339.6567    279.41478   -1585.8135    4321.3892   -65.305421   -383.46649        0.989    -0.157251    -0.104834     0.052417 
    1200    1283.0804    297.57659   -5628.1846    4321.3892   -61.457533    -400.2989        0.988    -0.157092    -0.104728     0.052364 
    1300    1374.8154    302.95867    2800.3971    4321.3892   -25.223933   -370.19371        0.987    -0.156933    -0.104622     0.052311 
    1400    1548.7979    314.63757    169.32405    4321.3892   -9.2461401   -367.51433        0.986    -0.156774    -0.104516     0.052258 
    1500    1543.4384    302.78598    2667.3171    4321.3892   -28.872419   -373.64556        0.985    -0.156615     -0.10441     0.052205 
    1600    1505.9924     307.4754   -3144.1719    4321.3892   -42.805804   -392.91864        0.984    -0.156456    -0.104304     0.052152 
    1700    1519.2347    291.11376   -51.878589    4321.3892   -44.622256    -376.1046        0.983    -0.156297    -0.104198     0.052099 
    1800    1442.3107    297.91891    1568.4932    4321.3892   -38.314165   -377.54533        0.982    -0.156138    -0.104092     0.052046 
    1900    1416.7513    299.44141   -3439.0539    4321.3892   -34.396006   -375.36079        0.981    -0.155979    -0.103986     0.051993 
    2000    1320.1308    311.55135   -4036.9906    4321.3892   -38.635681   -393.38969         0.98     -0.15582     -0.10388      0.05194 
    2100    1352.1874    294.77184    1722.2251    4321.3892   -52.682147   -388.32983        0.979    -0.155661    -0.103774     0.051887 
    2200    1398.9382    275.77965   -798.41267    4321.3892   -87.333361   -401.35522        0.978    -0.155502    -0.103668     0.051834 
    2300    1401.8526    288.31697    1440.4268    4321.3892   -95.443884    -423.7416        0.977    -0.155343    -0.103562     0.051781 
    2400    1410.2793     300.6133    1047.3407    4321.3892   -67.450573   -409.74975        0.976    -0.155184    -0.103456     0.051728 
    2500    1342.2665     304.4924    4512.7456    4321.3892   -46.485002   -393.20119        0.975    -0.155025     -0.10335     0.051675 
    2600    1399.6709    304.59021   -1440.2459    4321.3892   -41.296463   -388.12403        0.974    -0.154866    -0.103244     0.051622 
    2700    1393.5595    307.63992    1801.3517    4321.3892   -35.974699   -386.27487        0.973    -0.154707    -0.103138     0.051569 
    2800    1416.1276    301.99824     680.3111    4321.3892   -37.283922   -381.16009        0.972    -0.154548    -0.103032     0.051516 
    2900     1467.076    290.21584   -655.51621    4321.3892   -55.113989    -385.5739        0.971    -0.154389    -0.102926     0.051463 
    3000    1507.7721    284.82664    2047.2406    4321.3892   -81.291143   -405.61453         0.97     -0.15423     -0.10282      0.05141 
    3100    1470.3382    285.07726   -4149.6477    4321.3892   -85.012313   -409.62108        0.969    -0.154071    -0.102714     0.051357 
    3200    1514.1911    299.64651    1428.5333    4321.3892   -52.958903   -394.15722        0.968    -0.153912    -0.102608     0.051304 
    3300    1511.3429    311.60785    36.886282    4321.3892   -40.626937   -395.44527        0.967    -0.153753    -0.102502     0.051251 
    3400    1570.8737    299.11947    3828.1184    4321.3892   -43.612199    -384.2104        0.966    -0.153594    -0.102396     0.051198 
    3500    1588.4825    297.08441    2021.8438    4321.3892    -52.83333   -391.11427        0.965    -0.153435     -0.10229     0.051145 
    3600    1514.3641    294.38448    510.47993    4321.3892   -76.148011   -411.35462        0.964    -0.153276    -0.102184     0.051092 
    3700    1579.6325    267.42535    1976.3472    4321.3892   -92.292608   -396.80168        0.963    -0.153117    -0.102078     0.051039 
    3800    1579.4417    305.93263   -2594.8587    4321.3892    -60.46367    -408.8198        0.962    -0.152958    -0.101972     0.050986 
    3900    1556.0604    295.41636   -2413.3469    4321.3892   -39.598538   -375.98011        0.961    -0.152799    -0.101866     0.050933 
    4000    1480.4195    291.39244     23.97447    4321.3892   -39.171532    -370.9712         0.96     -0.15264     -0.10176      0.05088 
    4100    1427.5893    302.95007   -136.92129    4321.3892   -61.300632   -406.26062        0.959    -0.152481    -0.101654     0.050827 
    4200    1507.0531     290.0336   -1924.0805    4321.3892    -78.49136   -408.74376        0.958    -0.152322    -0.101548     0.050774 
    4300     1530.443    301.52983    1346.5118    4321.3892   -65.981817   -409.32462        0.957    -0.152163    -0.101442     0.050721 
    4400    1522.4039    296.09695    2033.2832    4321.3892   -38.949103   -376.10565        0.956    -0.152004    -0.101336     0.050668 
    4500    1469.3288    299.67261   -2870.5264    4321.3892   -36.881907   -378.10995        0.955    -0.151845     -0.10123     0.050615 
    4600    1476.1078    317.35258   -43.577562    4321.3892   -46.136233   -407.49591        0.954    -0.151686    -0.101124     0.050562 
    4700    1521.8164    285.69675   -2599.4101    4321.3892    -67.71719   -393.03135        0.953    -0.151527    -0.101018     0.050509 
    4800    1567.0075    297.89711   -3002.7695    4321.3892   -82.138424   -421.34476        0.952    -0.151368    -0.100912     0.050456 
    4900    1603.8725    292.54174    392.88991    4321.3892   -77.729344   -410.83769        0.951    -0.151209    -0.100806     0.050403 
    5000    1596.5842    324.83308    522.49599    4321.3892   -37.736703    -407.6142         0.95     -0.15105      -0.1007      0.05035 
    5100    1606.1392     312.9193    -878.4909    4321.3892   -35.650262   -391.96191        0.949    -0.150891    -0.100594     0.050297 
    5200    1596.9711    301.10369    4932.6479    4321.3892    -53.77998   -396.63755        0.948    -0.150732    -0.100488     0.050244 
    5300      1465.77    299.48781   -279.78852    4321.3892   -74.767934   -415.78555        0.947    -0.150573    -0.100382     0.050191 
    5400    1373.2951    283.80778   -213.42159    4321.3892   -98.619463   -421.78271        0.946    -0.150414    -0.100276     0.050138 
    5500    1420.5231    264.12997   -2228.6488    4321.3892   -130.10614   -430.86286        0.945    -0.150255     -0.10017     0.050085 
    5600    1515.9938    266.04428   -2171.6706    4321.3892   -108.55638   -411.49288        0.944    -0.150096    -0.100064     0.050032 
    5700      1549.72    276.23021    1058.2904    4321.3892    -77.55162   -392.08652        0.943    -0.149937    -0.099958     0.049979 
    5800    1522.7747    296.33023    2834.8108    4321.3892   -52.620617    -390.0428        0.942    -0.149778    -0.099852     0.049926 
    5900    1501.6416    310.56588    2024.1237    4321.3892   -35.466522    -389.0984        0.941    -0.149619    -0.099746     0.049873 
    6000    1518.1573    305.31866    90.498107    4321.3892   -37.024388   -384.68142         0.94     -0.14946     -0.09964      0.04982 
    6100    1492.5011    298.08903    1653.7952    4321.3892   -59.680839    -399.1057        0.939    -0.149301    -0.099534     0.049767 
    6200     1441.766    282.17236   -1566.1626    4321.3892   -77.565829   -398.86687        0.938    -0.149142    -0.099428     0.049714 
    6300    1425.2832    297.96681   -2194.5697    4321.3892   -58.623811   -397.90951        0.937    -0.148983    -0.099322     0.049661 
    6400    1555.6883    320.41355    286.39321    4321.3892   -19.662831   -384.50795        0.936    -0.148824    -0.099216     0.049608 
    6500    1569.0293    301.95644   -1411.1846    4321.3892    -24.09389   -367.92246        0.935    -0.148665     -0.09911     0.049555 
    6600    1459.2486    303.94603    428.05651    4321.3892   -48.559803   -394.65386        0.934    -0.148506    -0.099004     0.049502 
    6700    1407.3379    307.53794     1933.383    4321.3892   -65.054887   -415.23894        0.933    -0.148347    -0.098898     0.049449 
    6800    1396.4378    283.43758   -1552.7689    4321.3892   -67.772351   -390.51406        0.932    -0.148188    -0.098792     0.049396 
    6900     1312.334    294.20856   -86.309891    4321.3892   -60.748487   -395.75478        0.931    -0.148029    -0.098686     0.049343 
    7000    1328.9804    309.35057   -1620.5208    4321.3892   -35.894847   -388.14288         0.93     -0.14787     -0.09858      0.04929 
    7100    1271.3608    307.56399   -1880.8175    4321.3892   -18.413736   -368.62745        0.929    -0.147711    -0.098474     0.049237 
    7200    1280.4326    306.93914   -851.36608    4321.3892   -46.917022   -396.41924        0.928    -0.147552    -0.098368     0.049184 
    7300    1365.3317     299.9729    828.31029    4321.3892   -75.239942   -416.80992        0.927    -0.147393    -0.098262     0.049131 
    7400    1450.2442    315.71577   -2258.2975    4321.3892   -77.889538   -437.38543        0.926    -0.147234    -0.098156     0.049078 
    7500    1506.8723    300.07141   -1066.1338    4321.3892   -81.309686   -422.99183        0.925    -0.147075     -0.09805     0.049025 
    7600    1479.5677    300.46763    2522.7745    4321.3892   -59.141607   -401.27491        0.924    -0.146916    -0.097944     0.048972 
    7700    1486.7071    313.96637    534.54997    4321.3892   -32.408256   -389.91217        0.923    -0.146757    -0.097838     0.048919 
    7800    1460.0973     321.9645    5106.3828    4321.3892   -36.110275   -402.72141        0.922    -0.146598    -0.097732     0.048866 
    7900    1473.6768    307.50736   -3942.5615    4321.3892   -65.330897   -415.48013        0.921    -0.146439    -0.097626     0.048813 
    8000    1504.0498    294.39848   -1832.9535    4321.3892   -70.459732   -405.68229         0.92     -0.14628     -0.09752      0.04876 
    8100    1468.7781    304.28718   -189.43195    4321.3892   -55.133331   -401.61584        0.919    -0.146121    -0.097414     0.048707 
    8200    1557.1646    319.02283    4230.5317    4321.3892   -47.629777   -410.89132        0.918    -0.145962    -0.097308     0.048654 
    8300    1556.6952     293.4999    181.18352    4321.3892   -69.981799   -404.18117        0.917    -0.145803    -0.097202     0.048601 
    8400    1451.0615    274.30746    1400.9176    4321.3892   -92.417033   -404.76255        0.916    -0.145644    -0.097096     0.048548 
    8500    1390.1269    299.11094   -1413.3952    4321.3892   -73.457265   -414.04575        0.915    -0.145485     -0.09699     0.048495 
    8600    1526.8274    293.96637   -966.76211    4321.3892   -62.221729   -396.95226        0.914    -0.145326    -0.096884     0.048442 
    8700    1502.3239    300.59003    2603.3929    4321.3892   -51.141883   -393.41456        0.913    -0.145167    -0.096778     0.048389 
    8800    1477.6603    308.15475   -3167.6166    4321.3892   -51.633564   -402.51996        0.912    -0.145008    -0.096672     0.048336 
    8900    1404.4793    281.16982    486.65033    4321.3892   -84.815835   -404.97531        0.911    -0.144849    -0.096566     0.048283 
    9000    1424.7846    298.03984   -324.86358    4321.3892   -100.12166   -439.49052         0.91     -0.14469     -0.09646      0.04823 
    9100    1459.1724    296.61591    2439.8998    4321.3892   -85.458332    -423.2058        0.909    -0.144531    -0.096354     0.048177 
    9200    1531.9879    285.76254   -703.26192    4321.3892    -70.24585   -395.63492        0.908    -0.144372    -0.096248     0.048124 
    9300    1531.1159    309.08622    480.80176    4321.3892   -59.014943   -410.96197        0.907    -0.144213    -0.096142     0.048071 
    9400    1364.9221    302.81366    4047.2007    4321.3892   -46.537085   -391.34175        0.906    -0.144054    -0.096036     0.048018 
    9500    1319.5761    315.47312   -2178.3733    4321.3892   -40.286299    -399.5059        0.905    -0.143895     -0.09593     0.047965 
    9600    1391.9897    283.75501    5823.4447    4321.3892   -60.734392   -383.83755        0.904    -0.143736    -0.095824     0.047912 
    9700    1404.1358    290.17475   -1708.2225    4321.3892   -80.431455   -410.84458        0.903    -0.143577    -0.095718     0.047859 
    9800    1445.6242    292.05836     44.59996    4321.3892   -62.767593   -395.32553        0.902    -0.143418    -0.095612     0.047806 
    9900    1365.5774    298.31941   -223.25286    4321.3892   -35.976309    -375.6635        0.901    -0.143259    -0.095506     0.047753 
   10000    1343.7083    299.18429    1708.9208    4321.3892   -34.382217   -375.05423          0.9      -0.1431      -0.0954       0.0477 
   10100    1282.9797    308.71854   -652.52818    4321.3892   -46.004329    -397.5327        0.899    -0.142941    -0.095294     0.047647 
   10200    1278.3479    312.09094    2652.1454    4321.3892    -67.04801   -422.41643        0.898    -0.142782    -0.095188     0.047594 
   10300    1253.7734    284.06759    4280.0315    4321.3892   -101.02383   -424.48292        0.897    -0.142623    -0.095082     0.047541 
   10400    1213.7166    279.67797    3325.4782    4321.3892    -118.3233   -436.78406        0.896    -0.142464    -0.094976     0.047488 
   10500    1328.4058    300.54216     4902.639    4321.3892   -84.105683   -426.32386        0.895    -0.142305     -0.09487     0.047435 
   10600    1465.8074    301.81404   -2332.3657    4321.3892   -68.683729   -412.35015        0.894    -0.142146    -0.094764     0.047382 
   10700    1497.7154    299.59422    -974.5001    4321.3892   -48.852191   -389.99098        0.893    -0.141987    -0.094658     0.047329 
   10800    1508.0315    297.19353   -2907.1175    4321.3892   -32.148071   -370.55326        0.892    -0.141828    -0.094552     0.047276 
   10900    1506.1204    313.07882    2531.8457    4321.3892    -35.85479   -392.34808        0.891    -0.141669    -0.094446     0.047223 
   11000       1485.6    299.93491   -671.40624    4321.3892   -69.205125   -410.73184         0.89     -0.14151     -0.09434      0.04717 
   11100    1508.5851    288.40496    1294.2822    4321.3892   -77.440587    -405.8385        0.889    -0.141351    -0.094234     0.047117 
   11200    1474.6083    290.25797    2987.3865    4321.3892    -72.14407   -402.65195        0.888    -0.141192    -0.094128     0.047064 
   11300    1519.2505    289.05307   -2966.9913    4321.3892   -58.245234   -387.38113        0.887    -0.141033    -0.094022     0.047011 
   11400    1462.5515    311.58023    -276.8416    4321.3892   -42.351822   -397.13871        0.886    -0.140874    -0.093916     0.046958 
   11500    1475.7244    307.61084    2290.9877    4321.3892   -48.393446    -398.6605        0.885    -0.140715     -0.09381     0.046905 
   11600    1468.7527    296.95781   -803.58343    4321.3892   -64.065362   -402.20214        0.884    -0.140556    -0.093704     0.046852 
   11700    1495.5499     272.8082    1850.6135    4321.3892   -78.218691   -388.85705        0.883    -0.140397    -0.093598     0.046799 
   11800    1476.2318     312.6592     3001.618    4321.3892   -47.892144   -403.90762        0.882    -0.140238    -0.093492     0.046746 
   11900    1445.4409    313.62658   -1689.0219    4321.3892   -31.056706    -388.1737        0.881    -0.140079    -0.093386     0.046693 
   12000    1440.4924    302.97275    620.04023    4321.3892    -48.25552   -393.24133         0.88     -0.13992     -0.09328      0.04664 
   12100    1466.3791    291.42456   -122.21844    4321.3892   -65.244678   -397.08092        0.879    -0.139761    -0.093174     0.046587 
   12200    1372.8119    295.25634   -468.12311    4321.3892   -74.393155   -410.59253        0.878    -0.139602    -0.093068     0.046534 
   12300    1463.0819    297.06434    -3829.052    4321.3892   -75.441852   -413.69993        0.877    -0.139443    -0.092962     0.046481 
   12400    1405.0799    298.62743    4292.7505    4321.3892   -58.637954   -398.67588        0.876    -0.139284    -0.092856     0.046428 
   12500    1447.8319    325.69871   -1542.3571    4321.3892   -34.894417   -405.75758        0.875    -0.139125     -0.09275     0.046375 
   12600    1582.0637     314.7589   -145.67134    4321.3892   -38.271649   -396.67799        0.874    -0.138966    -0.092644     0.046322 
   12700    1522.5446    290.57958   -6210.2061    4321.3892   -69.834003   -400.70809        0.873    -0.138807    -0.092538     0.046269 
   12800    1422.2014    310.50159   -988.79272    4321.3892   -73.672571   -427.23124        0.872    -0.138648    -0.092432     0.046216 
   12900    1348.5691    297.20165    2670.8527    4321.3892   -66.793998   -405.20843        0.871    -0.138489    -0.092326     0.046163 
   13000    1167.9127    297.59296   -5707.7473    4321.3892   -58.116875   -396.97688         0.87     -0.13833     -0.09222      0.04611 
   13100    1116.8856    303.87235    2720.6474    4321.3892   -53.019804   -399.02996        0.869    -0.138171    -0.092114     0.046057 
   13200    1093.7912    297.08227     -3447.08    4321.3892   -52.126306   -390.40481        0.868    -0.138012    -0.092008     0.046004 
   13300    1111.8549    304.87324    837.71201    4321.3892   -56.938878   -404.08873        0.867    -0.137853    -0.091902     0.045951 
   13400      1185.52    295.71627   -1690.5318    4321.3892   -64.452351   -401.17543        0.866    -0.137694    -0.091796     0.045898 
   13500    1202.3081    303.17794   -823.49168    4321.3892   -70.380678   -415.60014        0.865    -0.137535     -0.09169     0.045845 
   13600    1236.2635    297.94265   -4363.6264    4321.3892    -67.89628   -407.15447        0.864    -0.137376    -0.091584     0.045792 
   13700    1175.5566    297.93837   -858.47349    4321.3892   -65.744991    -404.9983        0.863    -0.137217    -0.091478     0.045739 
   13800    1114.0434    308.64566    4236.3317    4321.3892   -61.568294   -413.01368        0.862    -0.137058    -0.091372     0.045686 
   13900    1161.0874    293.79546   -5285.5947    4321.3892   -45.962415   -380.49833        0.861    -0.136899    -0.091266     0.045633 
   14000    1182.9257     317.3683    5742.7486    4321.3892   -21.262636   -382.64022         0.86     -0.13674     -0.09116      0.04558 
   14100    1225.0526    308.56488   -5126.5601    4321.3892   -24.543463   -375.89687        0.859    -0.136581    -0.091054     0.045527 
   14200    1153.1328    312.50717   -2967.7283    4321.3892   -60.266416   -416.10878        0.858    -0.136422    -0.090948     0.045474 
   14300    1146.2023     280.3445    1161.8108    4321.3892   -69.486462   -388.70617        0.857    -0.136263    -0.090842     0.045421 
   14400    1048.1464    298.02449     223.2749    4321.3892   -54.587909   -393.93929        0.856    -0.136104    -0.090736     0.045368 
   14500     1070.075    312.49431    5073.2368    4321.3892   -34.587521   -390.41524        0.855    -0.135945     -0.09063     0.045315 
   14600    1100.5549    311.79571   -1064.3385    4321.3892   -35.289832   -390.32208        0.854    -0.135786    -0.090524     0.045262 
   14700    1141.1659    307.51884   -3133.3242    4321.3892   -55.875888    -406.0382        0.853    -0.135627    -0.090418     0.045209 
   14800    1073.1447    291.30857    1547.0991    4321.3892   -64.340939   -396.04511        0.852    -0.135468    -0.090312     0.045156 
   14900    1123.2553    291.73711   -2802.8061    4321.3892   -54.421905   -386.61403        0.851    -0.135309    -0.090206     0.045103 
   15000     1114.115    307.84429   -1364.0879    4321.3892   -33.109336   -383.64222         0.85     -0.13515      -0.0901      0.04505 
   15100    1164.6567    300.94823    -2069.528    4321.3892   -35.105444   -377.78599        0.849    -0.134991    -0.089994     0.044997 
   15200    1184.8632     299.9947    2344.5372    4321.3892   -66.859769   -408.45457        0.848    -0.134832    -0.089888     0.044944 
   15300    1133.0897    284.53436    2090.3525    4321.3892   -79.072232   -403.06281        0.847    -0.134673    -0.089782     0.044891 
   15400    1145.1322    289.84745   -1971.5776    4321.3892   -68.284194   -398.32463        0.846    -0.134514    -0.089676     0.044838 
   15500    1222.2926    295.29948    2244.7691    4321.3892   -53.884117   -390.13261        0.845    -0.134355     -0.08957     0.044785 
   15600    1251.4967    304.81618   -1953.7928    4321.3892   -38.604608   -385.68948        0.844    -0.134196    -0.089464     0.044732 
   15700    1240.8469    303.46279    826.91683    4321.3892   -30.607525   -376.15133        0.843    -0.134037    -0.089358     0.044679 
   15800    1219.1611    319.00067   -1882.5451    4321.3892  -0.73884969   -363.97516        0.842    -0.133878    -0.089252     0.044626 
   15900    1144.2072    335.88205   -2136.2347    4321.3892     2.110362   -380.34827        0.841    -0.133719    -0.089146     0.044573 
   16000    1240.2659    305.70264    774.86413    4321.3892   -34.125517   -382.21977         0.84     -0.13356     -0.08904      0.04452 
   16100    1391.7542    287.34396   -1075.3773    4321.3892    -52.59834   -379.78812        0.839    -0.133401    -0.088934     0.044467 
   16200    1369.7226    290.97976    4455.7316    4321.3892   -63.473331   -394.80309        0.838    -0.133242    -0.088828     0.044414 
   16300    1316.9074    284.33437   -3479.2716    4321.3892   -72.185243    -395.9481        0.837    -0.133083    -0.088722     0.044361 
   16400    1259.0753    290.72643    658.74002    4321.3892    -69.16996   -400.21126        0.836    -0.132924    -0.088616     0.044308 
   16500    1177.4315    298.63425    2602.0401    4321.3892   -40.303268   -380.34896        0.835    -0.132765     -0.08851     0.044255 
   16600    1189.6838    321.66061   -2924.4672    4321.3892   -27.148933   -393.41403        0.834    -0.132606    -0.088404     0.044202 
   16700    1208.7035    304.84052    3402.9152    4321.3892   -46.461362   -393.57395        0.833    -0.132447    -0.088298     0.044149 
   16800     1212.786    279.96838   -31.755067    4321.3892   -71.104128   -389.89556        0.832    -0.132288    -0.088192     0.044096 
   16900    1209.7139    313.41749   -1457.8898    4321.3892   -69.242419   -426.12134        0.831    -0.132129    -0.088086     0.044043 
   17000    1238.1275    293.25744    2783.1552    4321.3892   -64.082981   -398.00627         0.83     -0.13197     -0.08798      0.04399 
   17100    1172.8856    298.05147   -2417.1006    4321.3892   -59.484397    -398.8665        0.829    -0.131811    -0.087874     0.043937 
   17200    1179.4476    289.85397   -847.04845    4321.3892   -60.792064   -390.83992        0.828    -0.131652    -0.087768     0.043884 
   17300    1233.4856     292.7474    2406.1463    4321.3892   -55.682432   -389.02495        0.827    -0.131493    -0.087662     0.043831 
   17400     1213.699    310.39453    4068.6111    4321.3892   -41.927296   -395.36406        0.826    -0.131334    -0.087556     0.043778 
   17500     1261.096    310.77669   -1741.8794    4321.3892   -39.991758   -393.86368        0.825    -0.131175     -0.08745     0.043725 
   17600     1304.102    296.18009   -501.91042    4321.3892   -68.374229   -405.62545        0.824    -0.131016    -0.087344     0.043672 
   17700    1290.1381    284.10525   -3320.2214    4321.3892   -87.315777   -410.81774        0.823    -0.130857    -0.087238     0.043619 
   17800    1394.2427    294.71923    986.86455    4321.3892   -80.410117    -415.9979        0.822    -0.130698    -0.087132     0.043566 
   17900    1370.9549    297.02564    4129.2371    4321.3892   -55.220422   -393.43444        0.821    -0.130539    -0.087026     0.043513 
   18000    1258.6911    307.46081    4318.6981    4321.3892     -50.8644   -400.96063         0.82     -0.13038     -0.08692      0.04346 
   18100    1359.2081     304.8455    263.08921    4321.3892   -44.474014   -391.59227        0.819    -0.130221    -0.086814     0.043407 
   18200    1429.6085    295.04443    1256.3628    4321.3892   -33.505885   -369.46397        0.818    -0.130062    -0.086708     0.043354 
   18300    1366.6088    289.63599     -2161.05    4321.3892   -30.892209   -360.69186        0.817    -0.129903    -0.086602     0.043301 
   18400    1303.4786    296.36887   -1846.2247    4321.3892   -40.773084   -378.23926        0.816    -0.129744    -0.086496     0.043248 
   18500    1169.3623    293.93601     1944.684    4321.3892   -60.858162   -395.55411        0.815    -0.129585     -0.08639     0.043195 
   18600    1161.6407    292.34389    3029.9102    4321.3892   -77.951818   -410.83487        0.814    -0.129426    -0.086284     0.043142 
   18700    1169.6844    285.76174    3134.5812    4321.3892   -91.447518   -416.83568        0.813    -0.129267    -0.086178     0.043089 
   18800    1191.1333    286.48252   -1858.9691    4321.3892   -79.472587   -405.68148        0.812    -0.129108    -0.086072     0.043036 
   18900    1156.0333     296.9935    3536.3454    4321.3892   -43.103317   -381.28073        0.811    -0.128949    -0.085966     0.042983 
   19000    1103.9581    325.87338   -1431.0285    4321.3892    -35.23606   -406.29812         0.81     -0.12879     -0.08586      0.04293 
   19100    1116.3523    304.94286     1086.042    4321.3892   -49.673636   -396.90275        0.809    -0.128631    -0.085754     0.042877 
   19200    1112.7042    276.91079    953.34225    4321.3892   -75.261453   -390.57131        0.808    -0.128472    -0.085648     0.042824 
   19300    1062.7683    304.21126    246.60379    4321.3892    -84.94467   -431.34074        0.807    -0.128313    -0.085542     0.042771 
   19400    1060.0931    288.98987   -1586.2189    4321.3892   -77.160065     -406.224        0.806    -0.128154    -0.085436     0.042718 
   19500    1093.3706    306.09827   -622.62184    4321.3892   -45.071662    -393.6164        0.805    -0.127995     -0.08533     0.042665 
   19600    1131.8671    312.95674   -962.12615    4321.3892   -27.889216    -384.2435        0.804    -0.127836    -0.085224     0.042612 
   19700    1082.8301    307.15807    606.37667    4321.3892   -43.610608   -393.36211        0.803    -0.127677    -0.085118     0.042559 
   19800    1125.3684    290.93294    4747.3332    4321.3892   -73.368119   -404.64457        0.802    -0.127518    -0.085012     0.042506 
   19900    1157.3181    304.90811   -9.7680339    4321.3892   -70.397459   -417.58701        0.801    -0.127359    -0.084906     0.042453 
   20000     1226.659    297.36504    267.49004    4321.3892   -53.416817   -392.01731          0.8      -0.1272      -0.0848       0.0424 
   20100    1187.6033    309.36448   -699.31156    4321.3892    -52.75135   -405.01522        0.799    -0.127041    -0.084694     0.042347 
   20200    1186.4985    288.79174   -2596.8801    4321.3892   -64.389978    -393.2283        0.798    -0.126882    -0.084588     0.042294 
   20300    1188.3024    287.06357    1254.6686    4321.3892   -60.836497   -387.70702        0.797    -0.126723    -0.084482     0.042241 
   20400    1208.7272    306.38942    362.79122    4321.3892   -17.314665   -366.19094        0.796    -0.126564    -0.084376     0.042188 
   20500    1326.2146    317.17793   -308.85943    4321.3892   -17.684634   -378.84545        0.795    -0.126405     -0.08427     0.042135 
   20600    1320.3025     298.7281    3540.9569    4321.3892   -47.095036    -387.2476        0.794    -0.126246    -0.084164     0.042082 
   20700    1452.7124    304.09855    -1055.223    4321.3892   -65.499228   -411.76696        0.793    -0.126087    -0.084058     0.042029 
   20800    1488.5799    292.85356    5644.6383    4321.3892   -64.552459   -398.01585        0.792    -0.125928    -0.083952     0.041976 
   20900     1497.926    308.55708   -1163.5757    4321.3892   -46.313545   -397.65806        0.791    -0.125769    -0.083846     0.041923 
   21000    1502.9589    323.70537    2412.1226    4321.3892   -18.022459   -386.61587         0.79     -0.12561     -0.08374      0.04187 
   21100    1390.5107    317.13265    62.524255    4321.3892    5.0613693   -356.04788        0.789    -0.125451    -0.083634     0.041817 
   21200    1412.1218    311.47714   -2977.4167    4321.3892   -35.352091   -390.02159        0.788    -0.125292    -0.083528     0.041764 
   21300    1421.9294    282.57108    3887.2085    4321.3892   -51.276835   -373.03189        0.787    -0.125133    -0.083422     0.041711 
   21400    1444.7274     302.0349    2186.2322    4321.3892   -51.509822   -395.42773        0.786    -0.124974    -0.083316     0.041658 
   21500    1427.3159    304.70461    1837.9402    4321.3892   -43.899246   -390.85707        0.785    -0.124815     -0.08321     0.041605 
   21600    1360.3787    311.38462     519.1464    4321.3892   -41.841973   -396.40612        0.784    -0.124656    -0.083104     0.041552 
   21700    1339.7688    309.03045   -2149.5652    4321.3892   -60.078766    -411.9623        0.783    -0.124497    -0.082998     0.041499 
   21800    1331.2977    281.16231    1283.3741    4321.3892   -82.921144   -403.07208        0.782    -0.124338    -0.082892     0.041446 
   21900    1289.5255    284.24408   -1374.6307    4321.3892   -69.856777   -393.51683        0.781    -0.124179    -0.082786     0.041393 
   22000    1229.6526    307.83252     83.65886    4321.3892   -45.078967   -395.59845         0.78     -0.12402     -0.08268      0.04134 
   22100    1247.7477     290.7094   -2361.7754    4321.3892   -43.135688    -374.1576        0.779    -0.123861    -0.082574     0.041287 
   22200    1209.5132    312.26215    3660.4257    4321.3892   -49.010815   -404.57418        0.778    -0.123702    -0.082468     0.041234 
   22300    1196.0989    294.24094   -2791.8484    4321.3892   -60.459176   -395.50234        0.777    -0.123543    -0.082362     0.041181 
   22400    1333.7362    301.88122     1108.368    4321.3892   -71.185538   -414.92846        0.776    -0.123384    -0.082256     0.041128 
   22500    1364.4108    292.94974   -1250.9244    4321.3892   -68.309337   -401.88225        0.775    -0.123225     -0.08215     0.041075 
   22600    1442.2675    300.98285    808.37744    4321.3892   -25.324579   -368.04455        0.774    -0.123066    -0.082044     0.041022 
   22700    1501.0846    324.69359   -1190.1385    4321.3892   -24.114974   -393.83365        0.773    -0.122907    -0.081938     0.040969 
   22800    1474.9403    300.33458   -1466.1376    4321.3892   -57.925163   -399.90697        0.772    -0.122748    -0.081832     0.040916 
   22900    1569.9331    298.79394    644.70397    4321.3892   -70.055371    -410.2829        0.771    -0.122589    -0.081726     0.040863 
   23000    1465.4553    301.21472    361.82149    4321.3892   -67.429306   -410.41331         0.77     -0.12243     -0.08162      0.04081 
   23100    1419.6441    290.57376   -587.38256    4321.3892   -50.799621   -381.66708        0.769    -0.122271    -0.081514     0.040757 
   23200     1368.865    311.70909   -2238.6641    4321.3892   -17.684756   -372.61837        0.768    -0.122112    -0.081408     0.040704 
   23300    1336.8213    323.14446    93.895987    4321.3892   -16.467863   -384.42258        0.767    -0.121953    -0.081302     0.040651 
   23400    1360.8315    298.57424    1516.6034    4321.3892   -40.814839    -380.7922        0.766    -0.121794    -0.081196     0.040598 
   23500     1351.539     303.7375    -404.0141    4321.3892   -61.007777   -406.86438        0.765    -0.121635     -0.08109     0.040545 
   23600    1363.6881    300.80512     472.8006    4321.3892   -58.927373   -401.44496        0.764    -0.121476    -0.080984     0.040492 
   23700    1471.6837    284.27265     4524.524    4321.3892   -57.019311   -380.71188        0.763    -0.121317    -0.080878     0.040439 
   23800    1458.2836    311.35475    2958.1711    4321.3892   -36.757198   -391.28733        0.762    -0.121158    -0.080772     0.040386 
   23900    1475.3449    314.19056   -5056.1931    4321.3892   -10.631246   -368.39043        0.761    -0.120999    -0.080666     0.040333 
   24000    1427.5747    320.97357    4016.7518    4321.3892   -12.336437   -377.81924         0.76     -0.12084     -0.08056      0.04028 
   24100    1253.7445    281.45033   -684.85249    4321.3892   -56.783742   -377.26263        0.759    -0.120681    -0.080454     0.040227 
   24200    1304.6199    288.86266   -3435.8033    4321.3892   -66.758372   -395.67745        0.758    -0.120522    -0.080348     0.040174 
   24300    1316.3365    289.94297   -1962.8339    4321.3892   -49.635887   -379.78509        0.757    -0.120363    -0.080242     0.040121 
   24400     1349.931    303.90991    1167.3818    4321.3892    -27.35888   -373.41181        0.756    -0.120204    -0.080136     0.040068 
   24500    1311.5021    317.81796   -2853.2683    4321.3892   -28.467155   -390.35676        0.755    -0.120045     -0.08003     0.040015 
   24600    1301.5314    297.52941   -2636.4547    4321.3892   -41.933373   -380.72102        0.754    -0.119886    -0.079924     0.039962 
   24700    1274.6876    297.62619    1015.9082    4321.3892   -79.429899   -418.32775        0.753    -0.119727    -0.079818     0.039909 
   24800    1309.5668     272.1133   -5112.7843    4321.3892   -95.314069   -405.16117        0.752    -0.119568    -0.079712     0.039856 
   24900    1267.9231    304.24669    2027.0979    4321.3892   -73.446014   -419.88242        0.751    -0.119409    -0.079606     0.039803 
   25000    1257.2762    304.19748    1297.1305    4321.3892   -49.738555   -396.11893         0.75     -0.11925      -0.0795      0.03975 
   25100    1173.3986    293.85485   -1475.2161    4321.3892    -43.74911   -378.35265        0.749    -0.119091    -0.079394     0.039697 
   25200     1173.843     298.1298    2597.8521    4321.3892    -40.67815   -380.14944        0.748    -0.118932    -0.079288     0.039644 
   25300    1136.7181    293.32335   -853.66595    4321.3892   -66.321484   -400.31982        0.747    -0.118773    -0.079182     0.039591 
   25400     1141.687    283.44438    4228.0305    4321.3892   -85.802063   -408.55151        0.746    -0.118614    -0.079076     0.039538 
   25500    1122.8881    277.74514    -276.2015    4321.3892   -67.561071   -383.82098        0.745    -0.118455     -0.07897     0.039485 
   25600    1209.4385    301.87174    1230.8279    4321.3892   -41.558744   -385.29087        0.744    -0.118296    -0.078864     0.039432 
   25700    1379.9686    320.34652   -2536.8067    4321.3892   -39.616657   -404.38544        0.743    -0.118137    -0.078758     0.039379 
   25800    1506.8861     289.8209   -1053.8077    4321.3892   -43.250299   -373.26051        0.742    -0.117978    -0.078652     0.039326 
   25900    1393.0407    299.45019   -2853.9015    4321.3892   -60.337778   -401.31256        0.741    -0.117819    -0.078546     0.039273 
   26000     1360.867    274.31128   -4562.0627    4321.3892   -91.584464   -403.93434         0.74     -0.11766     -0.07844      0.03922 
   26100    1306.3464    274.58682    1939.1072    4321.3892   -89.583065   -402.24668        0.739    -0.117501    -0.078334     0.039167 
   26200    1325.3433    312.73933    2947.9268    4321.3892   -54.119408   -410.22613        0.738    -0.117342    -0.078228     0.039114 
   26300    1299.4842    302.43209   -359.01193    4321.3892   -45.019773   -389.38996        0.737    -0.117183    -0.078122     0.039061 
   26400    1394.3129    308.59768     3228.774    4321.3892   -32.055346    -383.4461        0.736    -0.117024    -0.078016     0.039008 
   26500    1387.0878    311.28125   -4415.4236    4321.3892   -27.035841   -381.48229        0.735    -0.116865     -0.07791     0.038955 
   26600    1339.7899    301.05145    1333.2112    4321.3892     -48.6348   -391.43289        0.734    -0.116706    -0.077804     0.038902 
   26700    1383.2241    289.61019    1545.4903    4321.3892   -75.108734     -404.879        0.733    -0.116547    -0.077698     0.038849 
   26800    1346.8674    283.59734   -2201.4288    4321.3892   -67.477108   -390.40074        0.732    -0.116388    -0.077592     0.038796 
   26900    1313.5696    285.38026    2394.8877    4321.3892   -48.025464   -372.97925        0.731    -0.116229    -0.077486     0.038743 
   27000    1316.6099     296.0431   -1943.8395    4321.3892   -38.724741   -375.81997         0.73     -0.11607     -0.07738      0.03869 
   27100    1327.3095    312.97748    750.88589    4321.3892   -34.779432   -391.15732        0.729    -0.115911    -0.077274     0.038637 
   27200     1334.798    293.69275    2740.9447    4321.3892   -39.567954   -373.98692        0.728    -0.115752    -0.077168     0.038584 
   27300    1294.2636    284.74637   -1613.6352    4321.3892    -64.18333   -388.41531        0.727    -0.115593    -0.077062     0.038531 
   27400    1307.2397    291.35153   -2801.7693    4321.3892   -79.186599   -410.93968        0.726    -0.115434    -0.076956     0.038478 
   27500    1385.9648    296.07087    1700.8008    4321.3892    -66.23954   -403.36639        0.725    -0.115275     -0.07685     0.038425 
   27600    1487.8829    302.35922    92.308839    4321.3892   -28.814634   -373.10184        0.724    -0.115116    -0.076744     0.038372 
   27700    1534.6253    311.78126    824.32852    4321.3892   -29.900051   -384.91584        0.723    -0.114957    -0.076638     0.038319 
   27800    1464.2956    313.82787    1050.1162    4321.3892   -44.438164   -401.78437        0.722    -0.114798    -0.076532     0.038266 
   27900     1508.456    309.38859     4140.299    4321.3892   -55.029286   -407.32062        0.721    -0.114639    -0.076426     0.038213 
   28000    1430.6249    295.09738   -790.42573    4321.3892   -51.365239    -387.3836         0.72     -0.11448     -0.07632      0.03816 
   28100    1371.3222     306.6308    7616.3571    4321.3892   -46.265553   -395.41668        0.719    -0.114321    -0.076214     0.038107 
   28200    1334.7038     302.8113   -2708.2421    4321.3892   -48.329691   -393.13166        0.718    -0.114162    -0.076108     0.038054 
   28300    1291.1724    295.36563   -297.25687    4321.3892   -48.639957   -384.96378        0.717    -0.114003    -0.076002     0.038001 
   28400    1297.3452     303.6831    1952.3715    4321.3892   -50.605678   -396.40034        0.716    -0.113844    -0.075896     0.037948 
   28500    1258.3261    296.57541    3068.4538    4321.3892   -52.238087   -389.93944        0.715    -0.113685     -0.07579     0.037895 
   28600    1279.5702    291.49088   -653.07362    4321.3892   -51.903738    -383.8155        0.714    -0.113526    -0.075684     0.037842 
   28700     1270.405    308.30108    4199.4232    4321.3892   -41.702576    -392.7556        0.713    -0.113367    -0.075578     0.037789 
   28800     1455.209    317.13134    1274.7964    4321.3892   -22.935115   -384.04288        0.712    -0.113208    -0.075472     0.037736 
   28900     1462.565    300.71664    594.13522    4321.3892   -20.289494   -362.70634        0.711    -0.113049    -0.075366     0.037683 
   29000    1440.8332    279.18392   -2375.3739    4321.3892   -56.302013    -374.2002         0.71     -0.11289     -0.07526      0.03763 
   29100    1518.2109    296.28788    -2373.717    4321.3892   -67.978889   -405.35284        0.709    -0.112731    -0.075154     0.037577 
   29200    1524.1872    311.72881    4381.3624    4321.3892   -59.248333    -414.2044        0.708    -0.112572    -0.075048     0.037524 
   29300    1516.7328    305.58182    258.26273    4321.3892   -36.326255   -384.28294        0.707    -0.112413    -0.074942     0.037471 
   29400    1382.9097    322.27487    811.92535    4321.3892   -3.3838752   -370.34842        0.706    -0.112254    -0.074836     0.037418 
   29500    1418.6401    305.07915   -2307.9186    4321.3892   -13.157852   -360.54216        0.705    -0.112095     -0.07473     0.037365 
   29600    1535.5521    299.03692    5177.3805    4321.3892   -31.284368   -371.78857        0.704    -0.111936    -0.074624     0.037312 
   29700    1554.0133    304.93084    511.47368    4321.3892   -39.903694   -387.11912        0.703    -0.111777    -0.074518     0.037259 
   29800    1599.2432     292.1094    1605.4566    4321.3892   -52.011249   -384.62729        0.702    -0.111618    -0.074412     0.037206 
   29900     1568.559    274.21711   -184.88682    4321.3892   -73.624417   -385.86706        0.701    -0.111459    -0.074306     0.037153 
   30000    1510.9643    299.62725   -5460.6129    4321.3892   -73.380504   -414.55689          0.7      -0.1113      -0.0742       0.0371 
   30100    1433.2969    296.14084    4469.9558    4321.3892   -38.680129   -375.88665        0.699    -0.111141    -0.074094     0.037047 
   30200    1458.0778    296.32376    2499.9633    4321.3892   -22.710054   -360.12487        0.698    -0.110982    -0.073988     0.036994 
   30300    1271.8361    318.64203    23.053661    4321.3892    -28.67395   -391.50189        0.697    -0.110823    -0.073882     0.036941 
   30400    1175.7443    302.48202   -896.57596    4321.3892   -46.752931   -391.17996        0.696    -0.110664    -0.073776     0.036888 
   30500    1123.7241    277.69182    2321.7586    4321.3892   -82.901596   -399.10078        0.695    -0.110505     -0.07367     0.036835 
   30600    1081.3683    291.51921    2475.6951    4321.3892   -73.166332   -405.11034        0.694    -0.110346    -0.073564     0.036782 
   30700    1109.4674    300.10586    2300.2643    4321.3892    -51.61842   -393.33979        0.693    -0.110187    -0.073458     0.036729 
   30800     1118.124    309.77486   -1662.1034    4321.3892   -33.044949   -385.77612        0.692    -0.110028    -0.073352     0.036676 
   30900    1081.2615    302.68417   -820.19779    4321.3892   -29.246976   -373.90419        0.691    -0.109869    -0.073246     0.036623 
   31000    1084.2284    315.18571   -2651.1029    4321.3892   -46.427381   -405.31972         0.69     -0.10971     -0.07314      0.03657 
   31100    1257.9272    276.74282    2559.4703    4321.3892   -86.876107    -401.9947        0.689    -0.109551    -0.073034     0.036517 
   31200    1324.3069    282.72034     2113.888    4321.3892   -85.242974   -407.16798        0.688    -0.109392    -0.072928     0.036464 
   31300    1464.7799    308.22837   -146.22006    4321.3892   -59.105779     -410.076        0.687    -0.109233    -0.072822     0.036411 
   31400    1644.4309    311.15855   -1893.7217    4321.3892   -43.624577    -397.9313        0.686    -0.109074    -0.072716     0.036358 
   31500    1535.1833    296.99432   -2524.3084    4321.3892   -48.595982   -386.77434        0.685    -0.108915     -0.07261     0.036305 
   31600    1651.6326    275.79249    708.28445    4321.3892   -69.497556   -383.53403        0.684    -0.108756    -0.072504     0.036252 
   31700    1442.7669    282.66929   -935.43524    4321.3892   -84.505423    -406.3723        0.683    -0.108597    -0.072398     0.036199 
   31800    1450.4155    302.85465    3706.6324    4321.3892   -57.920511   -402.77184        0.682    -0.108438    -0.072292     0.036146 
   31900    1450.1459    305.81702    3439.4875    4321.3892   -31.383285   -379.60778        0.681    -0.108279    -0.072186     0.036093 
   32000    1436.2452    315.89275    1649.3115    4321.3892   -26.766052   -386.46347         0.68     -0.10812     -0.07208      0.03604 
   32100    1434.5962    296.79509    1289.4011    4321.3892   -41.192051   -379.14354        0.679    -0.107961    -0.071974     0.035987 
   32200     1447.284    281.36822    1.9901924    4321.3892   -67.687285   -388.07268        0.678    -0.107802    -0.071868     0.035934 
   32300    1392.5737    274.79788   -1677.4095    4321.3892   -73.063916   -385.96787        0.677    -0.107643    -0.071762     0.035881 
   32400    1322.6851     302.8516    3824.5147    4321.3892   -30.686699   -375.53456        0.676    -0.107484    -0.071656     0.035828 
   32500    1330.7695    305.99827    1103.8044    4321.3892   -24.616927    -373.0478        0.675    -0.107325     -0.07155     0.035775 
   32600    1267.1933     293.9869     4383.661    4321.3892   -42.324774   -377.07867        0.674    -0.107166    -0.071444     0.035722 
   32700    1403.1036    293.13509   -1106.2756    4321.3892   -60.962637   -394.74661        0.673    -0.107007    -0.071338     0.035669 
   32800    1298.2732    289.72942    -73.97468    4321.3892   -66.543487   -396.44952        0.672    -0.106848    -0.071232     0.035616 
   32900    1275.4394    295.91508    3799.7627    4321.3892   -46.798127   -383.74759        0.671    -0.106689    -0.071126     0.035563 
   33000     1336.732    326.27249    -5267.896    4321.3892   -19.008985   -390.52549         0.67     -0.10653     -0.07102      0.03551 
   33100    1462.9898    322.08752    248.38764    4321.3892   -23.752081    -390.5033        0.669    -0.106371    -0.070914     0.035457 
   33200    1451.4684    302.91989    354.93608    4321.3892   -50.931724   -395.85735        0.668    -0.106212    -0.070808     0.035404 
   33300    1387.8514    297.20989    5589.6021    4321.3892   -63.907032   -402.33085        0.667    -0.106053    -0.070702     0.035351 
   33400    1424.3944    288.94653    -1926.488    4321.3892   -51.932383   -380.94697        0.666    -0.105894    -0.070596     0.035298 
   33500     1407.517    287.97152    496.10706    4321.3892   -37.525312   -365.42968        0.665    -0.105735     -0.07049     0.035245 
   33600    1314.7249     305.1325   -2984.3316    4321.3892   -39.949034   -387.39408        0.664    -0.105576    -0.070384     0.035192 
   33700     1289.445    283.73138    4057.1362    4321.3892    -46.29121   -369.36746        0.663    -0.105417    -0.070278     0.035139 
   33800    1240.1385    309.18599    -585.3975    4321.3892   -30.773682   -382.83432        0.662    -0.105258    -0.070172     0.035086 
   33900    1304.6734    311.23188   -28.225178    4321.3892   -9.1509874   -363.54122        0.661    -0.105099    -0.070066     0.035033 
   34000    1370.6078    318.54843     82.65965    4321.3892   -8.8048808   -371.52624         0.66     -0.10494     -0.06996      0.03498 
   34100     1431.296    294.76137    1829.4891    4321.3892   -45.830319   -381.46608        0.659    -0.104781    -0.069854     0.034927 
   34200     1382.959    300.06359   -36.558283    4321.3892   -54.537041   -396.21028        0.658    -0.104622    -0.069748     0.034874 
   34300    1338.0708    286.20326    1600.4373    4321.3892   -53.601204   -379.49211        0.657    -0.104463    -0.069642     0.034821 
   34400    1327.0072     297.2517   -2618.2976    4321.3892   -25.815634   -364.28706        0.656    -0.104304    -0.069536     0.034768 
   34500    1343.4255    310.40908     931.1379    4321.3892   -4.6312592   -358.08459        0.655    -0.104145     -0.06943     0.034715 
   34600    1466.2176    307.27334     3063.362    4321.3892   -24.705045   -374.58781        0.654    -0.103986    -0.069324     0.034662 
   34700    1410.7159    307.95168      2770.39    4321.3892   -40.594144   -391.24931        0.653    -0.103827    -0.069218     0.034609 
   34800    1421.4676    307.08721    2777.3788    4321.3892   -46.564088   -396.23491        0.652    -0.103668    -0.069112     0.034556 
   34900    1331.9042    292.11065   -3257.2458    4321.3892   -53.168103   -385.78558        0.651    -0.103509    -0.069006     0.034503 
   35000    1305.8831    282.50756    3533.4189    4321.3892   -76.137534   -397.82026         0.65     -0.10335      -0.0689      0.03445 
   35100    1359.0262    274.43235    815.92178    4321.3892   -87.380698   -399.86843        0.649    -0.103191    -0.068794     0.034397 
   35200    1342.3183    293.92769    212.86773    4321.3892   -58.573599   -393.26007        0.648    -0.103032    -0.068688     0.034344 
   35300    1456.3986    318.27809    2699.2097    4321.3892   -38.778321   -401.19186        0.647    -0.102873    -0.068582     0.034291 
   35400    1459.8495     292.4782     437.6607    4321.3892   -48.435783   -381.47177        0.646    -0.102714    -0.068476     0.034238 
   35500    1345.0772    284.77259    3500.9302    4321.3892   -57.156342   -381.41819        0.645    -0.102555     -0.06837     0.034185 
   35600    1347.8249    295.98286   -2185.0307    4321.3892   -48.268819   -385.29545        0.644    -0.102396    -0.068264     0.034132 
   35700    1298.7306    321.13184   -447.27462    4321.3892   -20.770093    -386.4331        0.643    -0.102237    -0.068158     0.034079 
   35800    1287.2757    308.24086   -912.80082    4321.3892   -27.576388   -378.56083        0.642    -0.102078    -0.068052     0.034026 
   35900    1295.3661    280.97611    2772.4689    4321.3892   -58.771735   -378.71064        0.641    -0.101919    -0.067946     0.033973 
   36000    1290.0865    289.01741   -2382.5207    4321.3892   -63.061635   -392.15692         0.64     -0.10176     -0.06784      0.03392 
   36100    1268.5726    308.41415    1773.9206    4321.3892   -48.525365   -399.70713        0.639    -0.101601    -0.067734     0.033867 
   36200    1260.4874    304.72037    2453.2217    4321.3892   -36.390236   -383.36601        0.638    -0.101442    -0.067628     0.033814 
   36300     1288.834    285.79803    2915.0765    4321.3892   -32.676813    -358.1063        0.637    -0.101283    -0.067522     0.033761 
   36400    1249.9441    314.39747    734.79496    4321.3892   -29.713479   -387.70827        0.636    -0.101124    -0.067416     0.033708 
   36500    1248.1682    290.85894   -2695.8598    4321.3892   -53.021312    -384.2135        0.635    -0.100965     -0.06731     0.033655 
   36600    1222.6062    268.87634    2125.6375    4321.3892   -85.188029    -391.3493        0.634    -0.100806    -0.067204     0.033602 
   36700    1203.6881      290.279    1836.4696    4321.3892   -70.713162   -401.24498        0.633    -0.100647    -0.067098     0.033549 
   36800    1257.6184    303.32568   -1550.8491    4321.3892   -43.320374   -388.70805        0.632    -0.100488    -0.066992     0.033496 
   36900    1228.8469    309.75117   -4542.8393    4321.3892   -34.226165   -386.93036        0.631    -0.100329    -0.066886     0.033443 
   37000    1206.5895    318.15136    8616.2657    4321.3892   -43.467821   -405.73705         0.63     -0.10017     -0.06678      0.03339 
   37100    1217.9125    290.94217   -102.58813    4321.3892   -70.221263   -401.50822        0.629    -0.100011    -0.066674     0.033337 
   37200    1238.5737    303.92424   -1423.5177    4321.3892   -73.788505   -419.85775        0.628    -0.099852    -0.066568     0.033284 
   37300    1240.3737    293.48754   -1227.5642    4321.3892   -67.787063   -401.97235        0.627    -0.099693    -0.066462     0.033231 
   37400    1461.5593    304.48735   -1716.9283    4321.3892   -57.091373   -403.80181        0.626    -0.099534    -0.066356     0.033178 
   37500     1551.139    306.95581   -1089.8056    4321.3892   -55.998686   -405.51988        0.625    -0.099375     -0.06625     0.033125 
   37600    1492.3716    306.07047    5340.3839    4321.3892   -49.622301   -398.13539        0.624    -0.099216    -0.066144     0.033072 
   37700    1446.5335     289.0157    2327.9423    4321.3892   -59.431555    -388.5249        0.623    -0.099057    -0.066038     0.033019 
   37800    1455.7649     275.1542    1582.1408    4321.3892   -70.163908   -383.47358        0.622    -0.098898    -0.065932     0.032966 
   37900    1364.5022    280.87671   -2589.5608    4321.3892   -70.032652   -389.85837        0.621    -0.098739    -0.065826     0.032913 
   38000    1415.2167     308.7834   -4169.7717    4321.3892   -38.840309   -390.44253         0.62     -0.09858     -0.06572      0.03286 
   38100    1418.9155    313.27023     5170.417    4321.3892   -33.685783   -390.39702        0.619    -0.098421    -0.065614     0.032807 
   38200     1397.937    300.80122   -393.18816    4321.3892   -52.319897   -394.83305        0.618    -0.098262    -0.065508     0.032754 
   38300    1443.8421    273.52503   -3230.9154    4321.3892   -88.125809    -399.5804        0.617    -0.098103    -0.065402     0.032701 
   38400    1437.9548    281.74019   -2078.4452    4321.3892   -90.641305   -411.45025        0.616    -0.097944    -0.065296     0.032648 
   38500     1403.006    291.71216     1014.791    4321.3892   -54.130659   -386.29438        0.615    -0.097785     -0.06519     0.032595 
   38600    1294.8311    304.51431   -2847.1344    4321.3892   -47.601764   -394.34291        0.614    -0.097626    -0.065084     0.032542 
   38700     1314.849    299.64192   -5368.7846    4321.3892   -50.707977   -391.90107        0.613    -0.097467    -0.064978     0.032489 
   38800     1307.782    298.42816    771.93008    4321.3892   -61.202375    -401.0134        0.612    -0.097308    -0.064872     0.032436 
   38900    1352.3228    291.55177    2553.5097    4321.3892    -72.72977   -404.71086        0.611    -0.097149    -0.064766     0.032383 
   39000     1300.919    313.38431    3955.9073    4321.3892   -65.451984   -422.29312         0.61     -0.09699     -0.06466      0.03233 
   39100    1302.3658    312.45585    1711.5521    4321.3892   -39.317377   -395.10131        0.609    -0.096831    -0.064554     0.032277 
   39200    1306.3383    312.38477   -1449.4289    4321.3892   -34.653909    -390.3569        0.608    -0.096672    -0.064448     0.032224 
   39300    1298.9948    293.40597   -2836.7531    4321.3892   -71.580179   -405.67259        0.607    -0.096513    -0.064342     0.032171 
   39400    1401.8783    309.16956    513.57345    4321.3892   -82.948166   -434.99009        0.606    -0.096354    -0.064236     0.032118 
   39500     1435.922    296.05887    2424.9908    4321.3892   -76.844095   -413.95729        0.605    -0.096195     -0.06413     0.032065 
   39600     1318.486    301.19916    1457.0589    4321.3892   -55.683694   -398.64997        0.604    -0.096036    -0.064024     0.032012 
   39700    1320.7532    300.15413    -53.47307    4321.3892   -19.968056   -361.74439        0.603    -0.095877    -0.063918     0.031959 
   39800    1323.8759    313.95687   -416.68615    4321.3892   -2.0217671   -359.51486        0.602    -0.095718    -0.063812     0.031906 
   39900    1416.5587    304.52303   -1523.8964    4321.3892   -7.9252159   -354.67629        0.601    -0.095559    -0.063706     0.031853 
   40000    1365.2396    304.57435     1275.835    4321.3892   -26.825294   -373.63479          0.6      -0.0954      -0.0636       0.0318 
   40100    1390.9117    307.41094   -2362.1464    4321.3892   -49.479793   -399.51924        0.599    -0.095241    -0.063494     0.031747 
   40200    1488.3729    291.15852    510.51633    4321.3892    -71.18817   -402.72148        0.598    -0.095082    -0.063388     0.031694 
   40300    1551.5563    290.75915    925.94507    4321.3892   -62.224742    -393.3033        0.597    -0.094923    -0.063282     0.031641 
   40400    1580.2723    314.42438   -1775.2882    4321.3892   -49.801596   -407.82702        0.596    -0.094764    -0.063176     0.031588 
   40500    1626.2589    311.63924    90.314115    4321.3892    -70.16888   -425.02295        0.595    -0.094605     -0.06307     0.031535 
   40600    1584.9955    270.47235    1518.0102    4321.3892   -91.116102    -399.0947        0.594    -0.094446    -0.062964     0.031482 
   40700    1575.2405    297.78499   -1691.9901    4321.3892   -68.555549   -407.63422        0.593    -0.094287    -0.062858     0.031429 
   40800    1520.0236    303.90401    1447.0998    4321.3892   -47.693781   -393.73999        0.592    -0.094128    -0.062752     0.031376 
   40900    1543.5468    296.38485    870.36415    4321.3892    -39.96056   -377.44493        0.591    -0.093969    -0.062646     0.031323 
   41000    1472.4483    300.92504    1232.7828    4321.3892   -36.932052    -379.5862         0.59     -0.09381     -0.06254      0.03127 
   41100    1458.8335    307.49203   -3689.5463    4321.3892   -42.998331   -393.13011        0.589    -0.093651    -0.062434     0.031217 
   41200    1452.4132    291.02988    1422.2966    4321.3892   -60.999808   -392.38663        0.588    -0.093492    -0.062328     0.031164 
   41300    1522.7328    296.48792   -326.59323    4321.3892   -61.636779   -399.23851        0.587    -0.093333    -0.062222     0.031111 
   41400    1536.5055    308.33193    2749.7146    4321.3892     -33.3708   -384.45895        0.586    -0.093174    -0.062116     0.031058 
   41500    1462.4138    298.86938   -1399.9568    4321.3892   -19.273137   -359.58656        0.585    -0.093015     -0.06201     0.031005 
   41600    1441.7603    287.17392    281.18612    4321.3892   -28.389888   -355.38606        0.584    -0.092856    -0.061904     0.030952 
   41700    1464.4847    279.26611   -2345.4281    4321.3892   -65.697846   -383.68963        0.583    -0.092697    -0.061798     0.030899 
   41800    1490.5377    293.14116   -1188.9371    4321.3892   -73.947306   -407.73818        0.582    -0.092538    -0.061692     0.030846 
   41900    1504.9642    272.10943   -2272.6273    4321.3892   -57.712739   -367.55543        0.581    -0.092379    -0.061586     0.030793 
   42000    1489.5082    301.00925   -924.72127    4321.3892   -40.000735   -382.75076         0.58     -0.09222     -0.06148      0.03074 
   42100    1537.3206    291.22713   -26.948296    4321.3892   -30.576313   -362.18775        0.579    -0.092061    -0.061374     0.030687 
   42200     1572.228    305.13945     2034.458    4321.3892   -29.376596   -376.82957        0.578    -0.091902    -0.061268     0.030634 
   42300    1546.1413    302.42616    523.51717    4321.3892   -34.255716   -378.61914        0.577    -0.091743    -0.061162     0.030581 
   42400    1507.6177    307.96934   -804.61291    4321.3892    -58.72427   -409.39955        0.576    -0.091584    -0.061056     0.030528 
   42500    1457.5437    283.82752    2783.0879    4321.3892   -74.943386    -398.1291        0.575    -0.091425     -0.06095     0.030475 
   42600    1316.0107     295.2907     678.6576    4321.3892    -63.49075   -399.72925        0.574    -0.091266    -0.060844     0.030422 
   42700    1314.0104    316.05692    4602.3768    4321.3892   -31.176502   -391.06086        0.573    -0.091107    -0.060738     0.030369 
   42800      1391.75    306.02424   -1903.4121    4321.3892   -34.476527   -382.93697        0.572    -0.090948    -0.060632     0.030316 
   42900    1469.1372    288.12841     -847.037    4321.3892   -46.176641   -374.25966        0.571    -0.090789    -0.060526     0.030263 
   43000    1539.9885    296.18669   -429.87397    4321.3892   -61.856471    -399.1152         0.57     -0.09063     -0.06042      0.03021 
   43100    1475.3732    301.19505   -163.48815    4321.3892   -57.256083   -400.21768        0.569    -0.090471    -0.060314     0.030157 
   43200    1470.5485    312.59235    2090.8474    4321.3892   -16.005651   -371.94501        0.568    -0.090312    -0.060208     0.030104 
   43300    1501.1273    306.62729    1244.2693    4321.3892   -15.994652   -365.14177        0.567    -0.090153    -0.060102     0.030051 
   43400    1495.4023    317.61817     3080.198    4321.3892   -42.313993    -403.9761        0.566    -0.089994    -0.059996     0.029998 
   43500    1399.8912    282.47464    2232.9874    4321.3892   -61.192974   -382.83821        0.565    -0.089835     -0.05989     0.029945 
   43600    1384.1983    289.25453   -2125.1686    4321.3892   -59.466332   -388.83163        0.564    -0.089676    -0.059784     0.029892 
   43700    1439.8422    286.66462    2134.5668    4321.3892   -51.345824   -377.76206        0.563    -0.089517    -0.059678     0.029839 
   43800    1450.6314    305.63891   -5352.7239    4321.3892   -38.778083   -386.79976        0.562    -0.089358    -0.059572     0.029786 
   43900     1489.778     289.9485    2336.8494    4321.3892   -40.267367   -370.42286        0.561    -0.089199    -0.059466     0.029733 
   44000     1547.771    294.95854   -219.42772    4321.3892   -48.083707   -383.94398         0.56     -0.08904     -0.05936      0.02968 
   44100    1529.3702    304.10834    708.78092    4321.3892   -57.205803   -403.48468        0.559    -0.088881    -0.059254     0.029627 
   44200    1606.0472     292.8546   -1318.0548    4321.3892   -62.389551   -395.85414        0.558    -0.088722    -0.059148     0.029574 
   44300    1452.4274    326.10348   -412.85249    4321.3892   -20.848879   -392.17294        0.557    -0.088563    -0.059042     0.029521 
   44400    1353.4422    318.94383    3423.3413    4321.3892   -12.187511    -375.3591        0.556    -0.088404    -0.058936     0.029468 
   44500    1325.6097    286.40913   -934.16842    4321.3892   -39.921002   -366.04632        0.555    -0.088245     -0.05883     0.029415 
   44600    1407.6841    298.30026    1445.0806    4321.3892   -46.054601   -385.71999        0.554    -0.088086    -0.058724     0.029362 
   44700    1404.0499    298.95503      1753.94    4321.3892   -38.443652   -378.85461        0.553    -0.087927    -0.058618     0.029309 
   44800    1394.4863    310.71126    3910.0487    4321.3892   -17.879269   -371.67669        0.552    -0.087768    -0.058512     0.029256 
   44900    1345.2523    341.40145   -3699.2656    4321.3892   -4.1542347   -392.89763        0.551    -0.087609    -0.058406     0.029203 
   45000    1329.6769    282.37339   -2422.3118    4321.3892   -36.514785   -358.04474         0.55     -0.08745      -0.0583      0.02915 
   45100    1348.8138    300.37616   -1707.3905    4321.3892   -56.983558   -399.01271        0.549    -0.087291    -0.058194     0.029097 
   45200    1356.6558    284.73771    982.64971    4321.3892   -64.977973    -389.2001        0.548    -0.087132    -0.058088     0.029044 
   45300    1350.2786    291.94188    4496.0099    4321.3892   -58.550138   -390.97543        0.547    -0.086973    -0.057982     0.028991 
   45400    1277.7186    332.60405    137.57061    4321.3892   -20.346937   -399.07301        0.546    -0.086814    -0.057876     0.028938 
   45500    1355.6798    302.64275    2594.1083    4321.3892   -20.032342   -364.64239        0.545    -0.086655     -0.05777     0.028885 
   45600    1405.0772    305.62593   -913.84758    4321.3892   -33.945677   -381.95258        0.544    -0.086496    -0.057664     0.028832 
   45700    1376.3439    289.65462   -1808.7219    4321.3892   -42.754543    -372.5754        0.543    -0.086337    -0.057558     0.028779 
   45800    1274.1117    307.04603   -3202.6499    4321.3892   -43.738385   -393.36232        0.542    -0.086178    -0.057452     0.028726 
   45900    1282.5029    288.76213   -2814.9115    4321.3892   -42.855631   -371.66025        0.541    -0.086019    -0.057346     0.028673 
   46000    1296.9677    310.96482    873.49857    4321.3892   -40.640784   -394.72692         0.54     -0.08586     -0.05724      0.02862 
   46100    1245.6811    295.19712    2241.1623    4321.3892   -45.344215   -381.47616        0.539    -0.085701    -0.057134     0.028567 
   46200    1248.8037    317.01461    631.15348    4321.3892   -33.622089   -394.59694        0.538    -0.085542    -0.057028     0.028514 
   46300    1256.8479    327.94666   -3507.6689    4321.3892   -3.4270184   -376.84986        0.537    -0.085383    -0.056922     0.028461 
   46400    1208.4947    302.26529   -513.28174    4321.3892   -5.2832124   -349.46346        0.536    -0.085224    -0.056816     0.028408 
   46500    1191.7738    294.68298    1897.3999    4321.3892    -47.88882   -383.43532        0.535    -0.085065     -0.05671     0.028355 
   46600    1139.5486    282.33859    4760.1574    4321.3892   -59.558334   -381.04865        0.534    -0.084906    -0.056604     0.028302 
   46700    1219.2082    298.86418    -1698.214    4321.3892   -58.317852   -398.62537        0.533    -0.084747    -0.056498     0.028249 
   46800      1166.43    305.33255    3453.6861    4321.3892   -54.420686   -402.09353        0.532    -0.084588    -0.056392     0.028196 
   46900    1257.5866    307.80606    -1283.719    4321.3892   -44.060842   -394.55019        0.531    -0.084429    -0.056286     0.028143 
   47000    1338.0146    312.40361   -4832.6306    4321.3892   -26.144146   -381.86859         0.53     -0.08427     -0.05618      0.02809 
   47100    1393.0878    300.13081   -988.07409    4321.3892    -32.10073   -373.85051        0.529    -0.084111    -0.056074     0.028037 
   47200    1355.0793    282.85234   -3497.9681    4321.3892   -67.376361   -389.45168        0.528    -0.083952    -0.055968     0.027984 
   47300    1277.7564    286.74976   -1572.8196    4321.3892   -68.734346   -395.24753        0.527    -0.083793    -0.055862     0.027931 
   47400    1212.9573    302.78725    3708.0599    4321.3892   -54.562631   -399.33722        0.526    -0.083634    -0.055756     0.027878 
   47500    1143.6545    304.68415    7.2210624    4321.3892   -40.439064   -387.37359        0.525    -0.083475     -0.05565     0.027825 
   47600    1056.0748    316.24796   -1834.3081    4321.3892   -14.343662   -374.44555        0.524    -0.083316    -0.055544     0.027772 
   47700    1005.8817    304.82739    5430.4066    4321.3892   -0.2404699    -347.3381        0.523    -0.083157    -0.055438     0.027719 
   47800    1010.1191    309.53696   -4056.1769    4321.3892   -33.745321   -386.20559        0.522    -0.082998    -0.055332     0.027666 
   47900    998.89719    286.60229   -847.28536    4321.3892   -55.336479   -381.68175        0.521    -0.082839    -0.055226     0.027613 
   48000    988.35363    304.10153   -731.71033    4321.3892   -58.766971   -405.03809         0.52     -0.08268     -0.05512      0.02756 
   48100    1026.0946    296.74192     972.4579    4321.3892    -53.38939   -391.28035        0.519    -0.082521    -0.055014     0.027507 
   48200    1062.5241    302.58756    3914.8497    4321.3892   -19.270384   -363.81759        0.518    -0.082362    -0.054908     0.027454 
   48300    1119.0122    328.35028    1680.1172    4321.3892    -13.01739   -386.89982        0.517    -0.082203    -0.054802     0.027401 
   48400    1167.1975    297.41335   -1774.2786    4321.3892   -38.047608    -376.7031        0.516    -0.082044    -0.054696     0.027348 
   48500     1212.565    286.38885    -197.1028    4321.3892   -43.207609   -369.30984        0.515    -0.081885     -0.05459     0.027295 
   48600    1344.2619    293.72785    2715.5049    4321.3892   -39.697061   -374.15599        0.514    -0.081726    -0.054484     0.027242 
   48700     1442.108    298.35755   -4447.8745    4321.3892   -29.957377     -369.688        0.513    -0.081567    -0.054378     0.027189 
   48800    1416.3442     323.8559   -2253.1902    4321.3892    -11.03612   -379.80093        0.512    -0.081408    -0.054272     0.027136 
   48900    1381.9887    306.31689    316.45629    4321.3892   -13.852066   -362.64575        0.511    -0.081249    -0.054166     0.027083 
   49000     1281.478    285.97156    2086.6563    4321.3892   -44.447641   -370.07472         0.51     -0.08109     -0.05406      0.02703 
   49100    1217.4382    303.65269   -2782.4948    4321.3892   -61.526066   -407.28611        0.509    -0.080931    -0.053954     0.026977 
   49200    1169.8386    285.18287   -812.97183    4321.3892   -65.876321   -390.60534        0.508    -0.080772    -0.053848     0.026924 
   49300    1172.9374    280.03595    2731.4381    4321.3892   -42.353353   -361.22173        0.507    -0.080613    -0.053742     0.026871 
   49400    1217.6525    316.24028   -3075.5669    4321.3892   -6.7518297   -366.84497        0.506    -0.080454    -0.053636     0.026818 
   49500    1189.5347     311.5571   -4698.6036    4321.3892   -22.204856    -376.9654        0.505    -0.080295     -0.05353     0.026765 
   49600    1248.9112    301.47025   -972.39919    4321.3892   -51.094194   -394.36916        0.504    -0.080136    -0.053424     0.026712 
   49700    1246.2237    279.64531   -92.941511    4321.3892   -63.544936   -381.96851        0.503    -0.079977    -0.053318     0.026659 
   49800    1279.9735    291.76697     403.2215    4321.3892   -49.050187   -381.27632        0.502    -0.079818    -0.053212     0.026606 
   49900    1299.3922    297.75434    3237.1132    4321.3892   -30.946679   -369.99045        0.501    -0.079659    -0.053106     0.026553 
   50000    1250.4372    313.30168   -5366.5437    4321.3892   -21.297598   -378.04465          0.5      -0.0795       -0.053       0.0265 
   50100    1222.4991    297.89422    363.82409    4321.3892   -21.509512   -360.71256        0.499    -0.079341    -0.052894     0.026447 
   50200    1256.6053    313.12394   -867.35918    4321.3892   -27.621185   -384.16584        0.498    -0.079182    -0.052788     0.026394 
   50300    1249.7246    299.62721   -698.63877    4321.3892   -45.101772   -386.27812        0.497    -0.079023    -0.052682     0.026341 
   50400    1299.2712    293.02173   -2706.7426    4321.3892    -53.57158   -387.22647        0.496    -0.078864    -0.052576     0.026288 
   50500     1291.599    300.79887   -2461.2273    4321.3892   -49.882979   -392.39346        0.495    -0.078705     -0.05247     0.026235 
   50600    1270.1877     308.6236   -710.49562    4321.3892   -42.032294   -393.45256        0.494    -0.078546    -0.052364     0.026182 
   50700    1299.5238    311.26558    -3110.901    4321.3892   -50.107085   -404.53569        0.493    -0.078387    -0.052258     0.026129 
   50800    1333.8756    283.35894   -144.06066    4321.3892   -70.701603   -393.35376        0.492    -0.078228    -0.052152     0.026076 
   50900    1306.6522     287.1069    -2389.756    4321.3892   -65.189002   -392.10886        0.491    -0.078069    -0.052046     0.026023 
   51000    1358.0063    322.79867   -1469.7462    4321.3892   -28.710554   -396.27153         0.49     -0.07791     -0.05194      0.02597 
   51100    1329.3825    303.87828    1071.1302    4321.3892   -31.755169   -377.77208        0.489    -0.077751    -0.051834     0.025917 
   51200    1131.7175    302.60233    348.21877    4321.3892   -48.440632   -393.00466        0.488    -0.077592    -0.051728     0.025864 
   51300    1053.5358    305.95894   -2878.5662    4321.3892   -60.458575   -408.84467        0.487    -0.077433    -0.051622     0.025811 
   51400    1127.9715    289.14187   -26.525174    4321.3892   -55.683343   -384.92036        0.486    -0.077274    -0.051516     0.025758 
   51500    1108.3966    303.27638    2740.9694    4321.3892   -7.2967835   -352.62833        0.485    -0.077115     -0.05141     0.025705 
   51600    1116.8044    314.74326   -4271.2916    4321.3892     3.165766   -355.22276        0.484    -0.076956    -0.051304     0.025652 
   51700    1062.5451    302.40618   -5792.8609    4321.3892   -17.340525    -361.6812        0.483    -0.076797    -0.051198     0.025599 
   51800    1036.4548    306.05133   -3746.8501    4321.3892   -39.242135   -387.73343        0.482    -0.076638    -0.051092     0.025546 
   51900    1006.3257    293.97918   -1300.8545    4321.3892   -53.443674   -388.18878        0.481    -0.076479    -0.050986     0.025493 
   52000    961.74092    299.77274   -478.62367    4321.3892   -52.411494   -393.75355         0.48     -0.07632     -0.05088      0.02544 
   52100     976.8671    311.00208    551.46574    4321.3892    -22.41077   -376.53933        0.479    -0.076161    -0.050774     0.025387 
   52200    1048.0021    317.99782   -5505.5137    4321.3892    -2.467647   -364.56205        0.478    -0.076002    -0.050668     0.025334 
   52300    1044.2053     293.7584    2100.8371    4321.3892    -30.81021   -365.30392        0.477    -0.075843    -0.050562     0.025281 
   52400    1159.0882    305.09705   -1214.3691    4321.3892   -51.100561   -398.50525        0.476    -0.075684    -0.050456     0.025228 
   52500    1306.1164    307.39233   -2811.7252    4321.3892   -56.418601   -406.43685        0.475    -0.075525     -0.05035     0.025175 
   52600    1357.3262    281.83697   -937.73463    4321.3892   -59.417403   -380.33655        0.474    -0.075366    -0.050244     0.025122 
   52700    1436.6584    262.92292   -4366.9499    4321.3892   -66.303388   -365.68568        0.473    -0.075207    -0.050138     0.025069 
   52800    1451.1601    294.89131    1798.2288    4321.3892   -61.935798   -397.71952        0.472    -0.075048    -0.050032     0.025016 
   52900    1408.5888    297.28524    583.42943    4321.3892   -43.882057   -382.39168        0.471    -0.074889    -0.049926     0.024963 
   53000    1393.6318    299.09914    2091.0761    4321.3892   -37.599303   -378.17435         0.47     -0.07473     -0.04982      0.02491 
   53100    1301.4401     298.3591    874.50137    4321.3892   -36.267669   -376.00006        0.469    -0.074571    -0.049714     0.024857 
   53200    1194.2299    304.62451    443.09349    4321.3892   -41.406171   -388.27279        0.468    -0.074412    -0.049608     0.024804 
   53300    1078.5137    289.10101   -1694.3644    4321.3892   -53.462733   -382.65322        0.467    -0.074253    -0.049502     0.024751 
   53400    975.86977    286.54722   -3539.0069    4321.3892   -71.271015   -397.55358        0.466    -0.074094    -0.049396     0.024698 
   53500    959.49349    303.20206   -1291.2465    4321.3892   -73.336426   -418.58335        0.465    -0.073935     -0.04929     0.024645 
   53600     920.7777    290.37014   -2655.2311    4321.3892   -38.807134   -369.44274        0.464    -0.073776    -0.049184     0.024592 
   53700    976.82157    293.41989   -1399.6079    4321.3892   -19.936491   -354.04476        0.463    -0.073617    -0.049078     0.024539 
   53800    1030.7161    302.54199   -1025.0449    4321.3892   -19.704238   -364.19955        0.462    -0.073458    -0.048972     0.024486 
   53900    1136.5003    304.06411    1396.2856    4321.3892   -32.567052   -378.79556        0.461    -0.073299    -0.048866     0.024433 
   54000    1164.3246    284.16561   -1104.8147    4321.3892   -70.201716   -393.77241         0.46     -0.07314     -0.04876      0.02438 
   54100    1037.2476    290.11003   -1231.7897    4321.3892   -76.349823   -406.68925        0.459    -0.072981    -0.048654     0.024327 
   54200    971.58984    285.40123    2236.7873    4321.3892   -58.341316   -383.31897        0.458    -0.072822    -0.048548     0.024274 
   54300    989.23769    303.25169   -1015.2054    4321.3892   -48.461113   -393.76455        0.457    -0.072663    -0.048442     0.024221 
   54400    992.82588    292.11178   -29.747045    4321.3892   -47.710554   -380.32931        0.456    -0.072504    -0.048336     0.024168 
   54500    1063.9186    301.45558     595.2101    4321.3892   -42.907818   -386.16607        0.455    -0.072345     -0.04823     0.024115 
   54600    1089.3042    295.46265    -230.1276    4321.3892   -37.464118    -373.8984        0.454    -0.072186    -0.048124     0.024062 
   54700    1049.7681     300.0955   -18.367792    4321.3892   -37.480871   -379.19044        0.453    -0.072027    -0.048018     0.024009 
   54800    1093.5808    313.40331   -1241.4018    4321.3892   -33.638112   -390.50089        0.452    -0.071868    -0.047912     0.023956 
   54900    1171.8903    293.09105   -213.51078    4321.3892   -23.466578   -357.20039        0.451    -0.071709    -0.047806     0.023903 
   55000    1258.9074    315.96584   -2313.2154    4321.3892   -6.8515661   -366.63221         0.45     -0.07155      -0.0477      0.02385 
   55100    1166.6046    327.76955   -2629.9227    4321.3892    2.1438683    -371.0773        0.449    -0.071391    -0.047594     0.023797 
   55200    1243.1732    312.73293    2973.9064    4321.3892   -33.381814   -389.48124        0.448    -0.071232    -0.047488     0.023744 
   55300    1281.8515    287.70856    4225.2657    4321.3892   -52.888086   -380.49303        0.447    -0.071073    -0.047382     0.023691 
   55400    1286.1122    288.26606    2404.9151    4321.3892   -49.187083   -377.42683        0.446    -0.070914    -0.047276     0.023638 
   55500    1311.6211    301.71346     2217.534    4321.3892   -22.761237   -366.31314        0.445    -0.070755     -0.04717     0.023585 
   55600    1315.9703    316.38914    2939.1667    4321.3892   -11.300806   -371.56346        0.444    -0.070596    -0.047064     0.023532 
[...]
   87500    1596.0198    306.43195    797.01551    4321.3892   -10.230327   -359.15503        0.125    -0.019875     -0.01325     0.006625 
   87600    1450.7093     304.7586    1626.0778    4321.3892   -6.3732385   -353.39254        0.124    -0.019716    -0.013144     0.006572 
   87700    1415.2106      291.058   -953.75664    4321.3892   -23.216285   -354.63513        0.123    -0.019557    -0.013038     0.006519 
   87800    1445.3284    285.90679    976.87228    4321.3892   -42.981836   -368.53516        0.122    -0.019398    -0.012932     0.006466 
   87900    1523.2558     289.8413   -4435.6774    4321.3892   -57.430261   -387.46369        0.121    -0.019239    -0.012826     0.006413 
   88000    1509.6204    288.59892   -1449.3486    4321.3892   -72.767517   -401.38628         0.12     -0.01908     -0.01272      0.00636 
   88100    1408.0737    284.61042   -1059.2374    4321.3892   -56.016484   -380.09367        0.119    -0.018921    -0.012614     0.006307 
   88200    1355.9956    314.43486   -1853.4579    4321.3892   -23.705049   -381.74241        0.118    -0.018762    -0.012508     0.006254 
   88300    1328.7498    305.56713   -135.24607    4321.3892   -16.524549    -364.4645        0.117    -0.018603    -0.012402     0.006201 
   88400    1239.3023    315.98318    -186.9089    4321.3892   -28.046787   -387.84718        0.116    -0.018444    -0.012296     0.006148 
   88500    1243.9561    298.45032    1741.3549    4321.3892   -60.016345   -399.85261        0.115    -0.018285     -0.01219     0.006095 
   88600    1258.9514    297.61301   -4225.5756    4321.3892   -66.072188   -404.95503        0.114    -0.018126    -0.012084     0.006042 
   88700    1315.4982    289.00506    1215.6792    4321.3892   -49.522711   -378.60394        0.113    -0.017967    -0.011978     0.005989 
   88800    1435.7808    293.59719    1698.5992    4321.3892   -38.812003   -373.12215        0.112    -0.017808    -0.011872     0.005936 
   88900    1470.7317     303.5843    1770.3693    4321.3892   -33.651716   -379.33388        0.111    -0.017649    -0.011766     0.005883 
   89000    1543.6925    295.31125    1312.9362    4321.3892   -38.556637   -374.81853         0.11     -0.01749     -0.01166      0.00583 
   89100    1597.4749    296.32166    266.13031    4321.3892   -69.252426   -406.66484        0.109    -0.017331    -0.011554     0.005777 
   89200    1529.9928    282.70874   -3419.0259    4321.3892   -82.244854   -404.15665        0.108    -0.017172    -0.011448     0.005724 
   89300    1413.5482    295.32175   -2385.1943    4321.3892   -58.169723   -394.44358        0.107    -0.017013    -0.011342     0.005671 
   89400    1468.0646    302.66304     1172.214    4321.3892   -51.469847     -396.103        0.106    -0.016854    -0.011236     0.005618 
   89500    1309.5731    307.60977    1483.3447    4321.3892   -39.603523   -389.86937        0.105    -0.016695     -0.01113     0.005565 
   89600    1352.0734    319.20595   -1624.0548    4321.3892   -16.860964   -380.33102        0.104    -0.016536    -0.011024     0.005512 
   89700    1287.7979    313.79943   -8.9568138    4321.3892   -15.221169   -372.53499        0.103    -0.016377    -0.010918     0.005459 
   89800    1257.6385    305.59004    1285.9128    4321.3892   -61.666783   -409.63282        0.102    -0.016218    -0.010812     0.005406 
   89900    1132.5849    301.94285    43.825153    4321.3892   -67.546348   -411.35945        0.101    -0.016059    -0.010706     0.005353 
   90000    984.07686    301.46766   -875.62248    4321.3892    -58.86197   -402.13398          0.1      -0.0159      -0.0106       0.0053 
   90100    1011.4462    284.56671   -582.90569    4321.3892   -36.466325   -360.49374        0.099    -0.015741    -0.010494     0.005247 
   90200    1211.5077    301.93537    2401.3671    4321.3892   -13.396189   -357.20077        0.098    -0.015582    -0.010388     0.005194 
   90300    1216.3882    307.10344   -4904.2343    4321.3892   -16.538657   -366.22796        0.097    -0.015423    -0.010282     0.005141 
   90400    1377.6512    301.23359   -1847.5685    4321.3892   -58.260523     -401.266        0.096    -0.015264    -0.010176     0.005088 
   90500    1371.9352     288.8348    1897.7369    4321.3892   -73.433661   -402.32102        0.095    -0.015105     -0.01007     0.005035 
   90600    1172.8524    294.94948   -1223.4496    4321.3892   -54.747146   -390.59711        0.094    -0.014946    -0.009964     0.004982 
   90700    1049.6449    304.75869    491.81214    4321.3892   -32.483415   -379.50282        0.093    -0.014787    -0.009858     0.004929 
   90800    1088.5448    312.11022   -92.527225    4321.3892   -14.727062   -370.11743        0.092    -0.014628    -0.009752     0.004876 
   90900    1169.7241    314.93574   -2223.9697    4321.3892   -3.1788972    -361.7866        0.091    -0.014469    -0.009646     0.004823 
   91000    1256.2556     295.5836   -2707.3016    4321.3892   -19.207214   -355.77922         0.09     -0.01431     -0.00954      0.00477 
   91100    1132.3002    284.14469   -6023.7201    4321.3892   -53.764775   -377.31165        0.089    -0.014151    -0.009434     0.004717 
   91200    1293.3931    287.66353     6150.766    4321.3892   -43.173588   -370.72726        0.088    -0.013992    -0.009328     0.004664 
   91300    1336.8356    314.97898    -1327.131    4321.3892   -25.333246   -383.99018        0.087    -0.013833    -0.009222     0.004611 
   91400    1289.2974    303.31879    3138.2432    4321.3892   -29.501306   -374.88114        0.086    -0.013674    -0.009116     0.004558 
   91500    1307.7006    282.75736   -1380.4769    4321.3892   -49.448632   -371.41579        0.085    -0.013515     -0.00901     0.004505 
   91600    1269.0586    283.29722   -1951.6655    4321.3892   -84.343844   -406.92573        0.084    -0.013356    -0.008904     0.004452 
   91700    1144.9321    289.77029     974.6449    4321.3892   -75.621497   -405.57407        0.083    -0.013197    -0.008798     0.004399 
   91800    1085.0704    296.98697   -4825.7121    4321.3892   -46.671488   -384.84148        0.082    -0.013038    -0.008692     0.004346 
   91900    1160.6722    297.70607     323.7418    4321.3892   -37.504047   -376.49285        0.081    -0.012879    -0.008586     0.004293 
   92000    1168.8859    305.08167   -2096.4485    4321.3892   -43.171767   -390.55894         0.08     -0.01272     -0.00848      0.00424 
   92100    1228.4777    286.00549   -806.12564    4321.3892    -47.22354   -372.88925        0.079    -0.012561    -0.008374     0.004187 
   92200    1372.4036     291.3722    43.696211    4321.3892   -39.431795   -371.20841        0.078    -0.012402    -0.008268     0.004134 
   92300    1455.7939    291.73081   -3739.2048    4321.3892   -13.699651   -345.88461        0.077    -0.012243    -0.008162     0.004081 
   92400     1424.055    307.65638    3533.0424    4321.3892   -12.784793   -363.10371        0.076    -0.012084    -0.008056     0.004028 
   92500    1298.4844     294.4471    208.34033    4321.3892   -38.759251   -374.03717        0.075    -0.011925     -0.00795     0.003975 
   92600    1297.8766     288.8217   -3247.9498    4321.3892   -58.775189   -387.64763        0.074    -0.011766    -0.007844     0.003922 
   92700    1395.0835    284.70355    2129.8976    4321.3892   -49.160932   -373.34416        0.073    -0.011607    -0.007738     0.003869 
   92800    1216.7991    289.23676   -1741.3631    4321.3892   -33.817002   -363.16207        0.072    -0.011448    -0.007632     0.003816 
   92900     1155.206    307.12046    261.50735    4321.3892   -29.923125   -379.63181        0.071    -0.011289    -0.007526     0.003763 
   93000    1086.6662    286.48532   -2352.5373    4321.3892   -35.507426    -361.7195         0.07     -0.01113     -0.00742      0.00371 
   93100    1021.7488    288.12336    1643.5186    4321.3892   -50.027452   -378.10471        0.069    -0.010971    -0.007314     0.003657 
   93200    1055.9022    289.43342    700.04289    4321.3892   -64.633436   -394.20243        0.068    -0.010812    -0.007208     0.003604 
   93300    1041.2651     292.0048    2394.1531    4321.3892    -51.57702   -384.07396        0.067    -0.010653    -0.007102     0.003551 
   93400    1053.6668    306.64253    1258.8092    4321.3892   -16.267508   -365.43199        0.066    -0.010494    -0.006996     0.003498 
   93500    1128.6811    309.42525   -2607.9261    4321.3892   -23.331773   -375.66484        0.065    -0.010335     -0.00689     0.003445 
   93600     1139.317    292.99169    -774.0168    4321.3892   -37.333014   -370.95369        0.064    -0.010176    -0.006784     0.003392 
   93700    1370.9087    290.86283     1786.595    4321.3892   -45.640938   -376.83756        0.063    -0.010017    -0.006678     0.003339 
   93800    1277.8603    318.07879   -422.91954    4321.3892   -46.284829   -408.47143        0.062    -0.009858    -0.006572     0.003286 
   93900    1121.6075    304.32679    5.9451702    4321.3892   -49.580127   -396.10774        0.061    -0.009699    -0.006466     0.003233 
   94000    1006.7719    283.12544   -733.87123    4321.3892   -46.292757   -368.67904         0.06     -0.00954     -0.00636      0.00318 
   94100    935.98726    309.35995   -2763.6937    4321.3892   -16.012954   -368.27167        0.059    -0.009381    -0.006254     0.003127 
   94200    920.27928    321.35685    4355.0455    4321.3892    9.3724178   -356.54681        0.058    -0.009222    -0.006148     0.003074 
   94300    967.97595    312.78817    2348.5812    4321.3892    -20.00037    -376.1627        0.057    -0.009063    -0.006042     0.003021 
   94400     1018.827    296.12119   -3374.9334    4321.3892    -32.84738   -370.03153        0.056    -0.008904    -0.005936     0.002968 
   94500    1021.8044    296.02242    1733.7546    4321.3892   -42.175723   -379.24741        0.055    -0.008745     -0.00583     0.002915 
   94600    1061.8865    291.58691   -3637.6907    4321.3892    -49.67462   -381.69572        0.054    -0.008586    -0.005724     0.002862 
   94700    1117.3251    299.85297    3597.4653    4321.3892   -57.409636   -398.84305        0.053    -0.008427    -0.005618     0.002809 
   94800    1131.5391    283.00102    3677.9322    4321.3892   -51.928185    -374.1728        0.052    -0.008268    -0.005512     0.002756 
   94900    1237.6831    305.71843   -1190.4296    4321.3892    -21.13139   -369.24363        0.051    -0.008109    -0.005406     0.002703 
   95000    1323.5844    308.04416    1255.5563    4321.3892   -7.0314362   -357.79191         0.05     -0.00795      -0.0053      0.00265 
   95100    1298.9324    314.70594    812.32969    4321.3892   -15.803668    -374.1497        0.049    -0.007791    -0.005194     0.002597 
   95200    1292.7408    299.68997    4369.0866    4321.3892   -48.802563   -390.05037        0.048    -0.007632    -0.005088     0.002544 
   95300    1313.8364    307.27814   -2352.9934    4321.3892   -54.373095   -404.26132        0.047    -0.007473    -0.004982     0.002491 
   95400    1201.8365    298.47877   -2718.7005    4321.3892   -45.986629   -385.85528        0.046    -0.007314    -0.004876     0.002438 
   95500    1103.6045    306.69668   -741.22716    4321.3892   -37.949989   -387.17613        0.045    -0.007155     -0.00477     0.002385 
   95600    1035.5871    286.79853   -1438.1728    4321.3892   -27.503416   -354.07213        0.044    -0.006996    -0.004664     0.002332 
   95700    1013.5068    320.48771    -5332.312    4321.3892    1.4199032   -363.50966        0.043    -0.006837    -0.004558     0.002279 
   95800    962.97959     304.6672    4340.0573    4321.3892   -20.784782   -367.70001        0.042    -0.006678    -0.004452     0.002226 
   95900     994.9843    299.96049     1484.318    4321.3892    -52.16709   -393.72294        0.041    -0.006519    -0.004346     0.002173 
   96000    1050.3279    294.67736    1439.7438    4321.3892   -48.622496    -384.1626         0.04     -0.00636     -0.00424      0.00212 
   96100    1088.3112    304.24734   -1088.2219    4321.3892   -36.639733   -383.07688        0.039    -0.006201    -0.004134     0.002067 
   96200    1132.9303    303.40913    326.74855    4321.3892   -18.241844   -363.72455        0.038    -0.006042    -0.004028     0.002014 
   96300    1230.6357    299.38135   -2205.1375    4321.3892   -14.056249   -354.95264        0.037    -0.005883    -0.003922     0.001961 
   96400    1209.7709     301.6218    130.93366    4321.3892   -45.370521   -388.81805        0.036    -0.005724    -0.003816     0.001908 
   96500    1204.9443    292.54592   -682.29661    4321.3892    -62.29541    -395.4085        0.035    -0.005565     -0.00371     0.001855 
   96600    1289.3438     300.5615    -174.9403    4321.3892   -57.725164   -399.96536        0.034    -0.005406    -0.003604     0.001802 
   96700     1338.818     308.2797   -1794.2828    4321.3892   -28.915577   -379.94425        0.033    -0.005247    -0.003498     0.001749 
   96800    1359.4009    305.91475    1486.7387    4321.3892   -8.4642777   -356.80006        0.032    -0.005088    -0.003392     0.001696 
   96900    1407.6407    306.58372    544.53377    4321.3892   -25.698784   -374.79629        0.031    -0.004929    -0.003286     0.001643 
   97000    1385.4966    288.17608    2812.0548    4321.3892   -36.040522   -364.17782         0.03     -0.00477     -0.00318      0.00159 
   97100     1184.017    311.13508    3386.5961    4321.3892   -35.636018   -389.91602        0.029    -0.004611    -0.003074     0.001537 
   97200    1052.5132    302.83751   -450.40793    4321.3892   -48.013358   -392.84518        0.028    -0.004452    -0.002968     0.001484 
   97300    936.51847    296.05186    2250.9701    4321.3892    -65.08671   -402.19191        0.027    -0.004293    -0.002862     0.001431 
   97400    879.09894    281.15562    204.89405    4321.3892   -79.023788    -399.1671        0.026    -0.004134    -0.002756     0.001378 
   97500    868.33473    269.68695   -3949.5957    4321.3892   -90.496345   -397.58063        0.025    -0.003975     -0.00265     0.001325 
   97600    915.76128    283.95639    441.03454    4321.3892    -55.42154     -378.754        0.024    -0.003816    -0.002544     0.001272 
   97700    896.34506    289.78136   -6167.1083    4321.3892   -37.414959   -367.38014        0.023    -0.003657    -0.002438     0.001219 
   97800    923.57325    298.24796   -2426.5007    4321.3892    -29.79808   -369.40392        0.022    -0.003498    -0.002332     0.001166 
   97900    939.86442     304.1769   -769.76822    4321.3892   -28.013008   -374.36994        0.021    -0.003339    -0.002226     0.001113 
   98000    965.49764    315.25564    4166.1952    4321.3892   -55.957081   -414.92904         0.02     -0.00318     -0.00212      0.00106 
   98100    1078.2676    307.26587   -1181.6991    4321.3892   -78.786952    -428.6612        0.019    -0.003021    -0.002014     0.001007 
   98200    1247.6092    289.07166    202.07604    4321.3892   -73.395206   -402.55228        0.018    -0.002862    -0.001908     0.000954 
   98300    1200.7015    285.31381   -2299.6769    4321.3892     -45.2464   -370.12452        0.017    -0.002703    -0.001802     0.000901 
   98400    1085.8992    311.10198   -3232.7903    4321.3892   -33.607942   -387.85026        0.016    -0.002544    -0.001696     0.000848 
   98500    1091.9796    292.79852   -1965.1408    4321.3892   -38.555567   -371.95629        0.015    -0.002385     -0.00159     0.000795 
   98600    1144.6557    290.76805    -4137.567    4321.3892   -50.778851   -381.86754        0.014    -0.002226    -0.001484     0.000742 
   98700    1170.8695    283.83023    2206.1755    4321.3892   -58.562343   -381.75115        0.013    -0.002067    -0.001378     0.000689 
   98800    1193.8331    287.40594    1967.1514    4321.3892   -74.339987   -401.60034        0.012    -0.001908    -0.001272     0.000636 
   98900    1230.3623    289.38887   -1622.2824    4321.3892    -78.82881   -408.34707        0.011    -0.001749    -0.001166     0.000583 
   99000    1266.8669    310.73931    4085.1571    4321.3892   -53.129655   -406.95901         0.01     -0.00159     -0.00106      0.00053 
   99100     1251.781    306.15188    1860.7013    4321.3892   -29.112509   -377.71829        0.009    -0.001431    -0.000954     0.000477 
   99200    1152.1594    314.46538   -138.58309    4321.3892   -26.023578   -384.09569        0.008    -0.001272    -0.000848     0.000424 
   99300    1195.7914     294.0181    2065.5118    4321.3892   -49.077056   -383.86648        0.007    -0.001113    -0.000742     0.000371 
   99400    1266.2656    287.47157   -2921.4005    4321.3892   -65.534324   -392.86941        0.006    -0.000954    -0.000636     0.000318 
   99500    1269.4126    292.64019   -2312.8277    4321.3892   -58.326345   -391.54679        0.005    -0.000795     -0.00053     0.000265 
   99600    1296.8191    302.22068    2864.3077    4321.3892   -44.992409   -389.12186        0.004    -0.000636    -0.000424     0.000212 
   99700     1410.231    300.25576    552.56231    4321.3892   -32.773166   -374.66523        0.003    -0.000477    -0.000318     0.000159 
   99800     1435.524     336.9684   -1254.1072    4321.3892    -4.899367   -388.59499        0.002    -0.000318    -0.000212     0.000106 
   99900    1433.3697    319.25818    3463.0802    4321.3892    8.0883629   -355.44117        0.001    -0.000159    -0.000106      5.3e-05 
  100000    1318.7622    291.43698   -2961.7602    4321.3892   -27.295831   -359.14621            0           -0           -0            0 
Loop time of 78.283 on 16 procs for 100000 steps with 383 atoms

Performance: 110.369 ns/day, 0.217 hours/ns, 1277.417 timesteps/s
94.1% CPU use with 16 MPI tasks x no OpenMP threads

MPI task timing breakdown:
Section |  min time  |  avg time  |  max time  |%varavg| %total
---------------------------------------------------------------
Pair    | 15.43      | 19.194     | 29.637     |  81.5 | 24.52
Bond    | 3.2625     | 3.4917     | 4.0461     |  11.0 |  4.46
Kspace  | 29.911     | 40.821     | 44.717     |  57.6 | 52.14
Neigh   | 0.96168    | 0.96819    | 0.97633    |   0.5 |  1.24
Comm    | 10.348     | 10.581     | 10.846     |   4.3 | 13.52
Output  | 0.030217   | 0.031298   | 0.040418   |   1.3 |  0.04
Modify  | 1.8451     | 1.9233     | 1.9863     |   3.6 |  2.46
Other   |            | 1.273      |            |       |  1.63

Nlocal:    23.9375 ave 37 max 16 min
Histogram: 3 3 2 2 1 2 0 1 1 1
Nghost:    2317.44 ave 2369 max 2273 min
Histogram: 3 3 1 1 0 1 2 1 2 2
Neighs:    5966.62 ave 8863 max 4086 min
Histogram: 4 2 2 0 2 1 2 1 0 2

Total # of neighbors = 95466
Ave neighs/atom = 249.258
Ave special neighs/atom = 4.72063
Neighbor list builds = 3058
Dangerous builds = 0
PPPM initialization ...
  using 12-bit tables for long-range coulomb (../kspace.cpp:321)
  G vector (1/distance) = 0.288285
  grid = 10 10 10
  stencil order = 5
  estimated absolute RMS force accuracy = 0.00277417
  estimated relative force accuracy = 8.35432e-06
  using double precision FFTs
  3d grid and FFT values/proc = 1296 90
Neighbor list info ...
  update every 1 steps, delay 10 steps, check yes
  max neighbors/atom: 2000, page size: 100000
  master list distance cutoff = 11.5
  ghost atom cutoff = 11.5
  binsize = 5.75, bins = 3 3 3
  3 neighbor lists, perpetual/occasional/extra = 3 0 0
  (1) pair lj/class2/coul/long, perpetual, skip from (3)
      attributes: half, newton on
      pair build: skip
      stencil: none
      bin: none
  (2) pair lj/class2/coul/long/soft, perpetual, skip from (3)
      attributes: half, newton on
      pair build: skip
      stencil: none
      bin: none
  (3) neighbor class addition, perpetual
      attributes: half, newton on
      pair build: half/bin/newton
      stencil: half/bin/3d/newton
      bin: standard
Total wall time: 0:01:18
