LAMMPS data file via write_data, version 5 Nov 2016, timestep = 10000

500 atoms
1 atom types

1.1855410023789030e+00 2.3814458997621848e+01 xlo xhi
1.1855410023789030e+00 2.3814458997621848e+01 ylo yhi
1.1855410023789030e+00 2.3814458997621848e+01 zlo zhi

Masses

1 62.5

Pair Coeffs # lj/cut

1 1.1 2.8

Atoms # full

8 0 1 0.0000000000000000e+00 2.8557650647268771e+00 4.0842298609450634e+00 2.7790400822252117e+00 0 0 0
86 0 1 0.0000000000000000e+00 4.8018279244764184e+00 2.0325039285854922e+00 1.2305707451247458e+00 0 1 0
107 0 1 0.0000000000000000e+00 4.0717959989468335e+00 2.3277942608945583e+00 4.8514736160186738e+00 0 0 0
185 0 1 0.0000000000000000e+00 6.3797900796216309e+00 3.4809095561495322e+00 3.6690919938753948e+00 0 1 0
412 0 1 0.0000000000000000e+00 7.9659570183174555e+00 4.7282473898351229e+00 1.3259564838809477e+00 0 0 1
186 0 1 0.0000000000000000e+00 8.0649941118308561e+00 1.6675974936972455e+00 1.4084425396224962e+00 0 1 0
109 0 1 0.0000000000000000e+00 9.7141833683956591e+00 3.1054405822538147e+00 3.6534799748027225e+00 0 0 0
31 0 1 0.0000000000000000e+00 1.1717802609702007e+01 4.2681812957470768e+00 1.4123002747122686e+00 0 0 0
111 0 1 0.0000000000000000e+00 1.2774887777968425e+01 2.7630908767110554e+00 3.6167269884788111e+00 0 0 0
420 0 1 0.0000000000000000e+00 1.6031150877392445e+01 2.3060666902003053e+00 3.7559394934733801e+00 0 0 1
18 0 1 0.0000000000000000e+00 1.8392035635475743e+01 3.9022802581409031e+00 2.4174567447521360e+00 0 0 0
117 0 1 0.0000000000000000e+00 1.9792887878014227e+01 1.9999370051340093e+00 4.3509820810729138e+00 0 0 0
1 0 1 0.0000000000000000e+00 2.2379689849887079e+01 3.1822599892452246e+00 3.6078122204782686e+00 -1 0 0
35 0 1 0.0000000000000000e+00 2.0352684464167240e+01 5.1945821694080747e+00 4.5521617957891918e+00 0 0 0
22 0 1 0.0000000000000000e+00 3.2566838696229889e+00 7.3416874814184956e+00 3.1304097369202584e+00 0 0 0
27 0 1 0.0000000000000000e+00 6.8522043097386378e+00 6.9631261167210852e+00 3.3332543598970470e+00 0 0 0
25 0 1 0.0000000000000000e+00 4.8951432131747783e+00 5.4040761189149391e+00 1.2071385130555257e+00 0 0 0
11 0 1 0.0000000000000000e+00 9.8721224923210720e+00 6.1783844757133801e+00 3.1953770492828335e+00 0 0 0
432 0 1 0.0000000000000000e+00 1.1962738005541327e+01 8.0077084009578190e+00 1.2441471762644127e+00 0 0 1
116 0 1 0.0000000000000000e+00 1.3129084261285607e+01 5.8721609441953495e+00 3.7556384929769493e+00 0 0 0
133 0 1 0.0000000000000000e+00 1.5026218435845944e+01 7.5286821132583297e+00 1.5146794760756279e+00 0 0 0
114 0 1 0.0000000000000000e+00 1.6245559807250388e+01 5.7880632202382740e+00 3.5474076753813248e+00 0 0 0
440 0 1 0.0000000000000000e+00 1.8889551539254022e+01 6.9686370277950571e+00 2.6790477236135506e+00 0 0 1
134 0 1 0.0000000000000000e+00 1.6757179647446598e+01 8.6790805817409211e+00 3.5149484379935623e+00 0 0 0
316 0 1 0.0000000000000000e+00 2.1257541790146107e+01 5.1226351579983049e+00 1.5958920026860830e+00 0 0 1
39 0 1 0.0000000000000000e+00 2.3234812307794151e+01 6.2999396872361721e+00 3.8496821186246892e+00 0 0 0
44 0 1 0.0000000000000000e+00 2.1528051089967654e+01 8.0966960326737265e+00 1.4518549032990293e+00 -1 0 0
57 0 1 0.0000000000000000e+00 2.0878826665806386e+01 8.1194640998442189e+00 4.7374004590787671e+00 0 0 0
41 0 1 0.0000000000000000e+00 4.0145385506012508e+00 1.0503938801636771e+01 3.5215106714847022e+00 0 0 0
45 0 1 0.0000000000000000e+00 7.2338590396925762e+00 9.9070055018529217e+00 3.3321551263714810e+00 0 0 0
146 0 1 0.0000000000000000e+00 1.0387948141733261e+01 9.5874668014953937e+00 3.2080676129083900e+00 0 0 0
149 0 1 0.0000000000000000e+00 1.2134468582077801e+01 1.1127338339545162e+01 2.3573453205551495e+01 0 0 -1
130 0 1 0.0000000000000000e+00 1.3339306419381819e+01 9.0729311801202606e+00 3.5613996951374327e+00 0 0 0
71 0 1 0.0000000000000000e+00 1.3954726967961166e+01 1.2537798455890414e+01 3.3277825189441517e+00 0 0 0
156 0 1 0.0000000000000000e+00 1.5427922897707543e+01 1.0484097471579641e+01 1.6021230326573874e+00 0 0 0
354 0 1 0.0000000000000000e+00 1.7325498938794034e+01 1.1817444939478884e+01 3.4975750514034689e+00 0 0 1
78 0 1 0.0000000000000000e+00 1.9368485742490158e+01 1.0044561978301232e+01 2.7218412056891426e+00 0 0 0
24 0 1 0.0000000000000000e+00 2.3593886118140205e+01 9.4902628822438473e+00 4.3348828778723165e+00 -1 0 0
62 0 1 0.0000000000000000e+00 2.2338990299240756e+01 1.1279064861127447e+01 2.0790100343563043e+00 -1 0 0
60 0 1 0.0000000000000000e+00 2.1337628304727879e+01 1.1384186047092630e+01 5.1925326988883240e+00 0 0 0
43 0 1 0.0000000000000000e+00 1.7881427199390567e+00 1.2556288061143418e+01 4.2748066512498983e+00 0 0 0
158 0 1 0.0000000000000000e+00 2.2334196631692267e+00 1.5623725654081385e+01 4.1692543493492629e+00 1 0 0
42 0 1 0.0000000000000000e+00 4.4273346088576098e+00 1.3619298141098049e+01 3.4584930131343476e+00 0 0 0
467 0 1 0.0000000000000000e+00 3.2363744410479915e+00 1.5440692167186175e+01 1.3312278012064027e+00 0 0 1
52 0 1 0.0000000000000000e+00 7.7950656193981871e+00 1.2842103084033949e+01 3.3690534299363768e+00 0 0 0
65 0 1 0.0000000000000000e+00 6.4972832924117316e+00 1.4674368169433579e+01 2.3635783054425225e+01 0 0 -1
170 0 1 0.0000000000000000e+00 8.3124677541788472e+00 1.5968320655042554e+01 3.3946833608080542e+00 0 0 0
73 0 1 0.0000000000000000e+00 1.0775264120304374e+01 1.2559174674297251e+01 3.0630848815781411e+00 0 0 0
91 0 1 0.0000000000000000e+00 1.1410218485254241e+01 1.5859312369092056e+01 3.4758967931338458e+00 0 0 0
72 0 1 0.0000000000000000e+00 9.5985889782336677e+00 1.4525071734788101e+01 2.3762889291751094e+01 0 0 -1
76 0 1 0.0000000000000000e+00 1.2665178478823123e+01 1.4411706615850941e+01 1.1870431552243246e+00 0 0 0
174 0 1 0.0000000000000000e+00 1.4535134334327946e+01 1.5672921147805525e+01 3.5763714123089327e+00 0 0 0
77 0 1 0.0000000000000000e+00 1.6266571878843216e+01 1.3758452668514201e+01 1.2512254391420405e+00 0 0 0
75 0 1 0.0000000000000000e+00 1.7974241219405556e+01 1.5186464355052248e+01 3.5930506725207838e+00 0 0 0
59 0 1 0.0000000000000000e+00 2.0169873455453541e+01 1.3153425610894292e+01 2.9586901506794447e+00 0 0 0
63 0 1 0.0000000000000000e+00 2.3027067741685677e+01 1.4299445377151088e+01 1.8505231550440071e+00 -1 0 0
181 0 1 0.0000000000000000e+00 2.8578621235357229e+00 1.8697029029481456e+01 4.4822878795864307e+00 0 0 0
484 0 1 0.0000000000000000e+00 3.5601020322674315e+00 1.8545264196223677e+01 1.4986049785779159e+00 0 0 1
162 0 1 0.0000000000000000e+00 5.1612453006808261e+00 1.6762625815587512e+01 3.5110626550117665e+00 0 0 0
64 0 1 0.0000000000000000e+00 5.5701117478574647e+00 1.9720016822592157e+01 3.4092691249960998e+00 0 0 0
142 0 1 0.0000000000000000e+00 7.2421778781144237e+00 1.8032918768320869e+01 1.4199759899291706e+00 0 0 0
83 0 1 0.0000000000000000e+00 8.9033917969927234e+00 1.9473154187533041e+01 3.5398308294355680e+00 0 0 0
70 0 1 0.0000000000000000e+00 1.1852193748471548e+01 1.8940921392562160e+01 3.4064525493491589e+00 0 0 0
69 0 1 0.0000000000000000e+00 1.0223691573867939e+01 1.7549418685688273e+01 1.2330546440856907e+00 0 0 0
214 0 1 0.0000000000000000e+00 1.5154979839521946e+01 1.8740744583603494e+01 3.6529448828008251e+00 0 -1 0
197 0 1 0.0000000000000000e+00 1.8489894963122516e+01 1.8202452916879309e+01 3.8895074678919159e+00 0 0 0
475 0 1 0.0000000000000000e+00 1.6677888441613035e+01 1.6816879688188362e+01 1.5141253050293089e+00 0 0 1
74 0 1 0.0000000000000000e+00 2.0777779648530711e+01 1.6531037580484433e+01 2.8418799041018215e+00 0 0 0
161 0 1 0.0000000000000000e+00 2.3446388292134493e+01 1.7337260139999088e+01 1.8982304301177191e+00 -1 0 0
496 0 1 0.0000000000000000e+00 2.1051682239610869e+01 1.9523989428349793e+01 2.9185478077720339e+00 0 0 1
7 0 1 0.0000000000000000e+00 2.2735090790262991e+00 2.3744726740777757e+01 2.5227188677708252e+00 0 -1 0
102 0 1 0.0000000000000000e+00 3.4681449576877141e+00 2.1993985933257726e+01 4.6039467024706306e+00 0 -1 0
5 0 1 0.0000000000000000e+00 4.1514343986180116e+00 2.1558543380598451e+01 1.3690750063674757e+00 0 -1 0
82 0 1 0.0000000000000000e+00 1.5276329919132328e+00 2.0575156635673657e+01 2.5072676843757815e+00 0 0 0
88 0 1 0.0000000000000000e+00 6.1319080111293465e+00 2.3077563699161033e+01 3.4089567643948087e+00 0 0 0
66 0 1 0.0000000000000000e+00 7.3350716463733718e+00 2.1033714388617753e+01 1.4614203820991978e+00 0 0 0
10 0 1 0.0000000000000000e+00 1.1180131833791163e+01 2.3808923388918920e+01 1.2267824650738568e+00 0 -1 0
67 0 1 0.0000000000000000e+00 9.1440195703322544e+00 2.2546037320750543e+01 3.4552452206535378e+00 0 0 0
472 0 1 0.0000000000000000e+00 1.0485188973703053e+01 2.0816570153031883e+01 1.4071125484811733e+00 0 0 1
13 0 1 0.0000000000000000e+00 1.2345907052988391e+01 2.2479060803506101e+01 3.5607403806222702e+00 0 -1 0
94 0 1 0.0000000000000000e+00 1.5507011990630710e+01 2.1940939987298783e+01 3.5267030279196514e+00 0 0 0
490 0 1 0.0000000000000000e+00 1.7565030325981752e+01 2.0288476775852487e+01 1.9101855025181869e+00 0 0 1
500 0 1 0.0000000000000000e+00 1.7996169690776398e+01 2.3243197115954388e+01 2.0806593583231323e+00 0 0 1
100 0 1 0.0000000000000000e+00 1.9197047160712472e+01 2.1391624155973155e+01 4.1920178911026831e+00 0 0 0
419 0 1 0.0000000000000000e+00 2.1602394589326146e+01 2.2750354007905280e+01 3.2185768081708410e+00 0 -1 1
19 0 1 0.0000000000000000e+00 3.1464582042348135e+00 2.4489581713281243e+00 7.9231265255910159e+00 1 0 0
101 0 1 0.0000000000000000e+00 1.8395234395535849e+00 4.3712202937710725e+00 5.7691989413304627e+00 0 0 0
2 0 1 0.0000000000000000e+00 1.3031417668752709e+00 1.1984709320198370e+00 5.6075070225953860e+00 0 0 0
125 0 1 0.0000000000000000e+00 5.8240253810017748e+00 3.7947847927554132e+00 7.1291937301392423e+00 0 0 0
87 0 1 0.0000000000000000e+00 7.7663823140224313e+00 1.6360266005582824e+00 5.9761878465074680e+00 0 1 0
110 0 1 0.0000000000000000e+00 1.1231244933101504e+01 4.6942448712838019e+00 5.6441042981941427e+00 0 0 0
192 0 1 0.0000000000000000e+00 9.5717252332955933e+00 3.1912024177523604e+00 7.9362967148502159e+00 0 1 0
191 0 1 0.0000000000000000e+00 1.0924440623806079e+01 1.4642003510904829e+00 5.7751072305888105e+00 0 1 0
120 0 1 0.0000000000000000e+00 1.4449475210496596e+01 4.1640618776772964e+00 5.9553493830514590e+00 0 0 0
209 0 1 0.0000000000000000e+00 1.2775093987429964e+01 2.7876502037209132e+00 7.8660425687928708e+00 0 0 0
115 0 1 0.0000000000000000e+00 1.5953878584397543e+01 2.1331437318900197e+00 7.7920539738747729e+00 0 0 0
113 0 1 0.0000000000000000e+00 1.7594346938253473e+01 3.6101250543781265e+00 5.8930014544584397e+00 0 0 0
217 0 1 0.0000000000000000e+00 1.9006038336231299e+01 2.0428447377502406e+00 8.0842686406132955e+00 0 0 0
34 0 1 0.0000000000000000e+00 2.1407712216998760e+01 3.1343213145857560e+00 6.6456637027161198e+00 0 0 0
237 0 1 0.0000000000000000e+00 2.2671064997800414e+01 1.3265197864644096e+00 8.6798805577306410e+00 0 0 0
4 0 1 0.0000000000000000e+00 2.3247965633149207e+01 4.4140495649347056e+00 8.6267333125394448e+00 -1 0 0
28 0 1 0.0000000000000000e+00 4.8632165087479402e+00 5.7361455367411871e+00 5.1344037308608925e+00 0 0 0
38 0 1 0.0000000000000000e+00 2.5216678754910991e+00 7.7129161094277610e+00 6.2644931071174970e+00 1 0 0
106 0 1 0.0000000000000000e+00 3.4892783125321483e+00 5.5688118723007403e+00 8.3094876104654638e+00 0 0 0
105 0 1 0.0000000000000000e+00 8.0415788268235548e+00 4.8547968059717572e+00 5.6051170729245401e+00 0 0 0
108 0 1 0.0000000000000000e+00 6.5888218648817398e+00 6.8889327548352677e+00 7.5061980160478825e+00 0 0 0
32 0 1 0.0000000000000000e+00 5.3425106858660172e+00 8.8037253049861661e+00 5.6141276677693570e+00 0 0 0
131 0 1 0.0000000000000000e+00 8.8600339220754023e+00 7.7543034161630162e+00 5.8690132998739708e+00 0 0 0
232 0 1 0.0000000000000000e+00 1.0156996634128344e+01 6.2839185097188217e+00 8.1472929287189189e+00 0 0 0
151 0 1 0.0000000000000000e+00 1.1798005478001496e+01 7.7381999792435279e+00 5.6439346409759468e+00 0 0 0
112 0 1 0.0000000000000000e+00 1.3122931283357754e+01 5.8480905399082266e+00 8.1362270833059007e+00 0 0 0
135 0 1 0.0000000000000000e+00 1.4961254380833777e+01 7.3414848010848965e+00 5.8842029833956602e+00 0 0 0
194 0 1 0.0000000000000000e+00 1.9694144593394633e+01 5.0882370814131423e+00 7.8995573376174413e+00 0 1 0
233 0 1 0.0000000000000000e+00 1.6481138484101692e+01 5.5360238635529493e+00 7.8794964064100785e+00 0 0 0
139 0 1 0.0000000000000000e+00 1.7995252375042313e+01 6.8759224775005192e+00 5.6230770153408054e+00 0 0 0
136 0 1 0.0000000000000000e+00 1.6858035334988802e+01 8.7257227588972590e+00 7.9625449072320817e+00 0 0 0
118 0 1 0.0000000000000000e+00 2.0016407552300542e+01 8.2263797865259676e+00 7.6953795326969869e+00 0 0 0
37 0 1 0.0000000000000000e+00 2.2494412898320441e+01 6.5980919827206366e+00 6.7389239702512391e+00 0 0 0
122 0 1 0.0000000000000000e+00 4.1435987889381849e+00 8.7727783482148709e+00 8.4868600396004332e+00 0 0 0
23 0 1 0.0000000000000000e+00 3.0858691274839267e+00 1.0802771977632743e+01 6.4874479853156686e+00 0 0 0
141 0 1 0.0000000000000000e+00 4.8664982532470589e+00 1.1879944681609270e+01 8.5973294096962896e+00 0 0 0
132 0 1 0.0000000000000000e+00 7.2855713113993668e+00 9.9817758499740403e+00 7.5152269118030492e+00 0 0 0
148 0 1 0.0000000000000000e+00 5.9924656539863861e+00 1.1770706142993514e+01 5.6072716548603037e+00 0 0 0
126 0 1 0.0000000000000000e+00 9.1360484285991710e+00 1.1261809682553537e+01 5.6417373950746326e+00 0 0 0
147 0 1 0.0000000000000000e+00 1.0511450491098968e+01 9.3900067661677049e+00 7.9938352742959831e+00 0 0 0
150 0 1 0.0000000000000000e+00 1.2171820860409877e+01 1.0816729307547522e+01 5.5894671641854927e+00 0 0 0
230 0 1 0.0000000000000000e+00 1.3452480725497622e+01 9.0574168542176299e+00 7.9409009580720911e+00 0 0 0
173 0 1 0.0000000000000000e+00 1.5278809652038502e+01 1.0327495302810183e+01 5.6213465060383756e+00 0 0 0
196 0 1 0.0000000000000000e+00 1.4077951297246084e+01 1.2284625992336055e+01 7.9147103603133768e+00 0 0 0
137 0 1 0.0000000000000000e+00 1.8510728517294716e+01 1.0174869440231335e+01 5.7413146981744827e+00 0 0 0
179 0 1 0.0000000000000000e+00 1.7395460691071065e+01 1.1849999972820157e+01 7.9114986745576585e+00 0 0 0
157 0 1 0.0000000000000000e+00 2.2783647711835393e+01 9.8261326059402592e+00 7.2870650064948510e+00 0 0 0
273 0 1 0.0000000000000000e+00 2.0374853851954782e+01 1.1443162785402906e+01 8.0298766450988488e+00 0 0 0
143 0 1 0.0000000000000000e+00 3.6388942743246382e+00 1.3782593122638236e+01 6.6249936684779307e+00 0 0 0
99 0 1 0.0000000000000000e+00 2.3792242468433628e+01 1.5647464813783339e+01 7.0183271306345807e+00 0 0 0
48 0 1 0.0000000000000000e+00 6.4637289852294630e+00 1.4932633631031074e+01 5.6195626048127671e+00 0 0 0
263 0 1 0.0000000000000000e+00 7.7432017194007656e+00 1.3298858418450155e+01 7.7620490431788056e+00 0 0 0
152 0 1 0.0000000000000000e+00 1.0828805198341584e+01 1.2634832066572933e+01 8.1002712397139653e+00 0 0 0
172 0 1 0.0000000000000000e+00 9.7188643074506995e+00 1.4345963414471681e+01 5.6163661003748304e+00 0 0 0
246 0 1 0.0000000000000000e+00 1.1221008813975892e+01 1.5561180428406479e+01 8.1759311142006013e+00 0 0 0
250 0 1 0.0000000000000000e+00 1.2622905218570349e+01 1.4113942459967131e+01 5.6857947507204480e+00 0 0 0
278 0 1 0.0000000000000000e+00 1.4771666072078849e+01 1.5182256991769439e+01 7.9225739138160405e+00 0 0 0
40 0 1 0.0000000000000000e+00 1.6249213299653306e+01 1.3554333379835640e+01 5.8464062712757423e+00 0 0 0
277 0 1 0.0000000000000000e+00 1.7909953799021537e+01 1.4958081484984932e+01 8.1517385022560624e+00 0 0 0
138 0 1 0.0000000000000000e+00 1.9099356918377929e+01 1.3284879458512091e+01 5.7372132970751180e+00 0 0 0
154 0 1 0.0000000000000000e+00 2.2109677713816474e+01 1.4507328266371252e+01 5.0841266192055121e+00 0 0 0
163 0 1 0.0000000000000000e+00 2.3511918914630158e+01 1.2740739158200027e+01 7.1336322327409984e+00 -1 0 0
140 0 1 0.0000000000000000e+00 2.1027616492913367e+01 1.4696508532968947e+01 8.1463171235816176e+00 0 0 0
68 0 1 0.0000000000000000e+00 4.0731925932318376e+00 1.6901024247342100e+01 6.6146108061192646e+00 0 0 0
164 0 1 0.0000000000000000e+00 1.9553727953090183e+00 1.8885475944379678e+01 7.6016837811012703e+00 0 0 0
166 0 1 0.0000000000000000e+00 4.6223755795604653e+00 2.0144296584094647e+01 6.6573155491180946e+00 0 0 0
168 0 1 0.0000000000000000e+00 8.2629040215191090e+00 1.6273765815895256e+01 7.9210385433208987e+00 0 0 0
165 0 1 0.0000000000000000e+00 6.9577521925606716e+00 1.8035519797116507e+01 5.4232401208809309e+00 0 0 0
266 0 1 0.0000000000000000e+00 8.8063134243009635e+00 1.9229730282682553e+01 8.0682126231462270e+00 0 0 0
269 0 1 0.0000000000000000e+00 1.0150379865133408e+01 1.7695066228472946e+01 5.8463151005943867e+00 0 0 0
270 0 1 0.0000000000000000e+00 1.1936810834345863e+01 1.9094624411880858e+01 7.9645082210988782e+00 0 0 0
176 0 1 0.0000000000000000e+00 1.3148232952265914e+01 1.7402136223047499e+01 5.8370129646532227e+00 0 0 0
291 0 1 0.0000000000000000e+00 1.5078413103881521e+01 1.8373377553948238e+01 7.9602164709807468e+00 0 0 0
80 0 1 0.0000000000000000e+00 1.9925812377823505e+01 1.6350486893089453e+01 5.8247743929032199e+00 0 0 0
293 0 1 0.0000000000000000e+00 1.6387630834983778e+01 1.6816774733087328e+01 5.8248798361723111e+00 0 0 0
95 0 1 0.0000000000000000e+00 1.8221606591798448e+01 1.8038348999728775e+01 7.7529579910351343e+00 0 0 0
98 0 1 0.0000000000000000e+00 2.2663370162775607e+01 1.7598060841258182e+01 5.1348033592543461e+00 0 0 0
198 0 1 0.0000000000000000e+00 2.0415526566484779e+01 1.9518908344374402e+01 6.1814552473128668e+00 0 0 0
180 0 1 0.0000000000000000e+00 2.1750536281896018e+01 1.7613957760815097e+01 8.0615010870394066e+00 0 0 0
298 0 1 0.0000000000000000e+00 2.2987843661009575e+00 2.2127128271865253e+01 7.8825116040053063e+00 1 0 0
103 0 1 0.0000000000000000e+00 5.1495972813780755e+00 2.3029880301671838e+01 7.0336733045732336e+00 0 -1 0
169 0 1 0.0000000000000000e+00 7.2572752200350088e+00 2.1269075065656253e+01 5.8495099540086493e+00 0 0 0
189 0 1 0.0000000000000000e+00 1.0463509088453899e+01 2.0820428518164626e+01 5.6051546836574424e+00 0 0 0
286 0 1 0.0000000000000000e+00 9.3868633530368868e+00 2.2538603627457128e+01 8.0443835828994708e+00 0 0 0
292 0 1 0.0000000000000000e+00 1.2288546711857006e+01 2.2330380552258362e+01 8.0000139945321038e+00 0 0 0
96 0 1 0.0000000000000000e+00 1.4001668533215641e+01 2.3619854635165872e+01 5.6995670711642878e+00 0 0 0
193 0 1 0.0000000000000000e+00 1.3746148289881964e+01 2.0474835452497054e+01 5.6919034202468826e+00 0 0 0
17 0 1 0.0000000000000000e+00 1.5447814525879471e+01 2.1584871025389532e+01 8.1777214468104198e+00 0 -1 0
190 0 1 0.0000000000000000e+00 1.6922745530681254e+01 1.9898934332931759e+01 5.6576780654786401e+00 0 0 0
200 0 1 0.0000000000000000e+00 1.7052566280903083e+01 2.2877741607059413e+01 5.9501159187034478e+00 0 0 0
199 0 1 0.0000000000000000e+00 1.8860114911501284e+01 2.1312286005804559e+01 7.9806765380410303e+00 0 0 0
84 0 1 0.0000000000000000e+00 2.3088485890286059e+01 2.0709402849998781e+01 5.3037728195660758e+00 -1 0 0
182 0 1 0.0000000000000000e+00 2.0954370247143842e+01 2.2692210844824103e+01 6.4891479116171924e+00 -1 0 0
218 0 1 0.0000000000000000e+00 1.8872742878386650e+00 2.5397706516748744e+00 1.0713762762809692e+01 1 0 0
124 0 1 0.0000000000000000e+00 5.0136966686654620e+00 3.7006666906609551e+00 1.0181580218539960e+01 0 0 0
187 0 1 0.0000000000000000e+00 7.0959154136072549e+00 1.7909405578556232e+00 9.3282679218014959e+00 0 1 0
203 0 1 0.0000000000000000e+00 6.1081140099853357e+00 1.5697169648323144e+00 1.2334041297157421e+01 0 0 0
206 0 1 0.0000000000000000e+00 7.7421809447740779e+00 5.0940554541343719e+00 9.4967654045109899e+00 0 0 0
204 0 1 0.0000000000000000e+00 6.4980945058789628e+00 5.1633736402333259e+00 1.2520671920380829e+01 0 0 0
188 0 1 0.0000000000000000e+00 8.6974817677137786e+00 3.1248778270711646e+00 1.1540047282211210e+01 0 1 0
227 0 1 0.0000000000000000e+00 1.1520473669209400e+01 4.2760193440274499e+00 1.0325706633237900e+01 0 0 0
290 0 1 0.0000000000000000e+00 1.0913711248995355e+01 2.3774472097378101e+01 1.0484541153922892e+01 0 0 0
211 0 1 0.0000000000000000e+00 1.4631814701480703e+01 3.8459426053144297e+00 1.0368164694540779e+01 0 0 0
334 0 1 0.0000000000000000e+00 1.7667099569386252e+01 3.7931366837976910e+00 1.0122408314796791e+01 0 0 0
314 0 1 0.0000000000000000e+00 1.9134364680029854e+01 1.7687806145479128e+00 1.2428073924111473e+01 0 0 0
119 0 1 0.0000000000000000e+00 2.0833820013772240e+01 3.1368034086196719e+00 1.0151818848147789e+01 0 0 0
224 0 1 0.0000000000000000e+00 2.7148984989448346e+00 5.9210065548769970e+00 1.1266078443400543e+01 0 0 0
221 0 1 0.0000000000000000e+00 1.3379014495151922e+00 7.6199720723376503e+00 9.1390091924975181e+00 0 0 0
129 0 1 0.0000000000000000e+00 8.3724035312072296e+00 8.2055717122030654e+00 9.8218467419050750e+00 0 0 0
225 0 1 0.0000000000000000e+00 5.3953678703465746e+00 6.8943585704749708e+00 1.0316211629709741e+01 0 0 0
228 0 1 0.0000000000000000e+00 9.4521360114595634e+00 6.2662714886080204e+00 1.1758395928498729e+01 0 0 0
229 0 1 0.0000000000000000e+00 1.1530654697378401e+01 7.7686057606154959e+00 1.0255708204717200e+01 0 0 0
235 0 1 0.0000000000000000e+00 1.4932374737862055e+01 7.3750772252033299e+00 1.0309115170249378e+01 0 0 0
326 0 1 0.0000000000000000e+00 1.3339071423334406e+01 5.8133102624061870e+00 1.2323003630732771e+01 0 0 0
240 0 1 0.0000000000000000e+00 1.8113111140998356e+01 6.9026367060862199e+00 1.0345928210269221e+01 0 0 0
212 0 1 0.0000000000000000e+00 1.6789847700816772e+01 8.6101420650371061e+00 1.2378227204231514e+01 0 0 0
336 0 1 0.0000000000000000e+00 1.9668099578212257e+01 4.9762909847176893e+00 1.2546275646173253e+01 0 0 0
216 0 1 0.0000000000000000e+00 1.6582495892483401e+01 5.3336467139263197e+00 1.2476343577491772e+01 0 0 0
353 0 1 0.0000000000000000e+00 2.0015003905383089e+01 8.0604631281359822e+00 1.2554712921957028e+01 0 0 0
20 0 1 0.0000000000000000e+00 2.1320090873984704e+01 6.4006390237414212e+00 1.0252507121396205e+01 0 0 0
259 0 1 0.0000000000000000e+00 2.3097251307947005e+01 7.8528208839818383e+00 1.2423947881811365e+01 0 0 0
241 0 1 0.0000000000000000e+00 3.2493841819366329e+00 9.0341766526756562e+00 1.1646977634584513e+01 0 0 0
121 0 1 0.0000000000000000e+00 2.0147231956276377e+00 1.0716144574090267e+01 9.5381188559207661e+00 0 0 0
145 0 1 0.0000000000000000e+00 3.7194028438065572e+00 1.2031402183702562e+01 1.1590152551427382e+01 0 0 0
128 0 1 0.0000000000000000e+00 5.9853533471237412e+00 1.0134932446095869e+01 1.0675954612256923e+01 0 0 0
47 0 1 0.0000000000000000e+00 8.6964664332245611e+00 1.1416207423435477e+01 1.0006047317064588e+01 0 0 0
226 0 1 0.0000000000000000e+00 1.0102204952947920e+01 9.4936067745378363e+00 1.2139589549548113e+01 0 0 0
231 0 1 0.0000000000000000e+00 1.2226751169940819e+01 1.0758004665872434e+01 1.0149923174456614e+01 0 0 0
234 0 1 0.0000000000000000e+00 1.5212256598061439e+01 1.0432132163403772e+01 1.0130246634581084e+01 0 0 0
330 0 1 0.0000000000000000e+00 1.3640312290789897e+01 8.8537396763870433e+00 1.2541083803923355e+01 0 0 0
238 0 1 0.0000000000000000e+00 1.8506573798268647e+01 9.9448209997541674e+00 1.0104152140242576e+01 0 0 0
255 0 1 0.0000000000000000e+00 1.7423249341425773e+01 1.1593329219639402e+01 1.2365587799334673e+01 0 0 0
123 0 1 0.0000000000000000e+00 2.1711318470714836e+01 9.4859069803147751e+00 9.9410481269650308e+00 -1 0 0
261 0 1 0.0000000000000000e+00 2.4723560942954510e+00 1.4189000205666954e+01 9.2963413343117338e+00 0 0 0
144 0 1 0.0000000000000000e+00 4.2662704193069665e+00 1.4958502635678389e+01 1.1841692433228888e+01 0 0 0
258 0 1 0.0000000000000000e+00 5.4618213105258295e+00 1.5013267942422646e+01 8.7061834820147030e+00 1 0 0
252 0 1 0.0000000000000000e+00 6.5216393235086070e+00 1.3234369123717382e+01 1.0812879037749463e+01 0 0 0
167 0 1 0.0000000000000000e+00 9.3393880093803734e+00 1.4517313666670228e+01 1.0123797772828084e+01 0 0 0
249 0 1 0.0000000000000000e+00 1.0820234650554157e+01 1.2695674328764669e+01 1.2165475008654736e+01 0 0 0
171 0 1 0.0000000000000000e+00 1.2866180388432159e+01 1.3765649629459750e+01 1.0255227996207136e+01 0 0 0
160 0 1 0.0000000000000000e+00 1.5970226848888231e+01 1.3583045758920283e+01 1.0103434881149287e+01 0 0 0
155 0 1 0.0000000000000000e+00 1.9195022845738265e+01 1.2996197874258973e+01 1.0343639969654648e+01 0 0 0
378 0 1 0.0000000000000000e+00 1.9603079705440898e+01 1.6254235908915202e+01 1.0381185264237633e+01 0 0 0
159 0 1 0.0000000000000000e+00 2.2355675074442374e+01 1.2567783428866651e+01 1.0316475910490739e+01 0 0 0
283 0 1 0.0000000000000000e+00 2.2767273384079068e+01 1.6096502976836781e+01 1.0485404121853508e+01 -1 0 0
264 0 1 0.0000000000000000e+00 3.1003049358429822e+00 1.7015109157479500e+01 9.8146405285418563e+00 0 0 0
262 0 1 0.0000000000000000e+00 5.7615080185286800e+00 1.8200485170940546e+01 8.8168116522506050e+00 0 0 0
184 0 1 0.0000000000000000e+00 5.0399054528864697e+00 1.8053058927046571e+01 1.1989835727710188e+01 0 0 0
285 0 1 0.0000000000000000e+00 7.2270913964653669e+00 1.6278171754562734e+01 1.0953744242481555e+01 0 0 0
268 0 1 0.0000000000000000e+00 7.7841322801607955e+00 1.9284133638807390e+01 1.1308577710424338e+01 0 0 0
365 0 1 0.0000000000000000e+00 1.0155287465506380e+01 1.7491435263324540e+01 1.0309660283927270e+01 0 0 0
294 0 1 0.0000000000000000e+00 1.3047275426059885e+01 1.7015226696814732e+01 1.0236343244550223e+01 0 0 0
274 0 1 0.0000000000000000e+00 1.6526504860520085e+01 1.6734105975933822e+01 1.0111082387527549e+01 0 0 0
394 0 1 0.0000000000000000e+00 1.6931348701067265e+01 1.9865521280048860e+01 1.0087856238478409e+01 0 0 0
281 0 1 0.0000000000000000e+00 2.0328114394311129e+01 1.9345378335336072e+01 1.0173270033306030e+01 -1 0 0
381 0 1 0.0000000000000000e+00 2.3662341426030622e+01 1.9176126046480768e+01 1.0378945849852252e+01 -1 0 0
183 0 1 0.0000000000000000e+00 3.7075514816774615e+00 2.0130353716217741e+01 9.8266048737675042e+00 0 0 0
104 0 1 0.0000000000000000e+00 4.3430007128136934e+00 2.3304819000803427e+01 1.0114399442558771e+01 0 -1 0
301 0 1 0.0000000000000000e+00 1.3313768419499967e+00 2.2316301883941229e+01 1.0729672733363850e+01 0 -1 0
282 0 1 0.0000000000000000e+00 6.5428543798830914e+00 2.1414555450271010e+01 9.0300309356171571e+00 0 0 0
288 0 1 0.0000000000000000e+00 8.2676303003024252e+00 2.2455100016377145e+01 1.1042854554607374e+01 0 0 0
363 0 1 0.0000000000000000e+00 5.6273031855431714e+00 2.1266356608932071e+01 1.2113339350770957e+01 0 0 0
289 0 1 0.0000000000000000e+00 1.0769561666810693e+01 2.0742931674860891e+01 1.0309167673832617e+01 0 0 0
272 0 1 0.0000000000000000e+00 1.3620037489134665e+01 2.0128061460784565e+01 1.0595550706727604e+01 0 0 0
390 0 1 0.0000000000000000e+00 1.3858146481852920e+01 2.3497817849237848e+01 1.0130683745398217e+01 0 0 0
210 0 1 0.0000000000000000e+00 1.7198355698481798e+01 2.3141989643950176e+01 1.0144479474479859e+01 0 -1 0
201 0 1 0.0000000000000000e+00 2.0504257875305505e+01 2.2426968775516876e+01 1.0335286942302163e+01 -1 -1 0
321 0 1 0.0000000000000000e+00 3.8143229294795935e+00 3.8781102775411762e+00 1.3064272914405162e+01 0 0 0
324 0 1 0.0000000000000000e+00 1.6583327162818491e+00 2.7779515950487843e+00 1.4816348375777151e+01 0 0 0
304 0 1 0.0000000000000000e+00 4.8704650500512319e+00 2.0750350507721014e+00 1.5186939580081853e+01 0 0 0
305 0 1 0.0000000000000000e+00 7.8398786786045775e+00 3.0453717443782078e+00 1.4760560735248553e+01 0 0 0
202 0 1 0.0000000000000000e+00 1.0641733970014132e+01 4.4253536711171844e+00 1.3674349896280113e+01 0 0 0
307 0 1 0.0000000000000000e+00 1.1798281355826306e+01 2.3596703690138900e+00 1.6036361718708534e+01 0 0 0
205 0 1 0.0000000000000000e+00 1.0234691655189717e+01 2.3729420873880052e+01 1.3669727646663919e+01 0 -1 0
213 0 1 0.0000000000000000e+00 1.6033143921710479e+01 1.8276481866868857e+00 1.2417006978886505e+01 0 0 0
207 0 1 0.0000000000000000e+00 1.2859033380315925e+01 2.3776452061468167e+00 1.2577419554941565e+01 0 0 0
333 0 1 0.0000000000000000e+00 1.4528127937640539e+01 3.7455088493084210e+00 1.4594245256786261e+01 0 0 0
335 0 1 0.0000000000000000e+00 1.7864178222811518e+01 3.6155018951285776e+00 1.4784608408470836e+01 0 0 0
337 0 1 0.0000000000000000e+00 2.2710272777798856e+01 4.5020964647920181e+00 1.2252401403936023e+01 0 0 0
239 0 1 0.0000000000000000e+00 2.2193054281968045e+01 1.5294562893972810e+00 1.2329541010377469e+01 0 0 0
318 0 1 0.0000000000000000e+00 2.1155209927739712e+01 3.1830618518744398e+00 1.4783102218283112e+01 0 0 0
243 0 1 0.0000000000000000e+00 4.5422082584929235e+00 7.1552598818434054e+00 1.3585455104424055e+01 0 0 0
322 0 1 0.0000000000000000e+00 1.9560106502865535e+00 6.0334468959388134e+00 1.4444334868472565e+01 0 0 0
127 0 1 0.0000000000000000e+00 7.2475725496301386e+00 8.1055785143797738e+00 1.2735961907138826e+01 0 0 0
222 0 1 0.0000000000000000e+00 5.8310236531476161e+00 5.1030451621718038e+00 1.5495426939405480e+01 0 0 0
302 0 1 0.0000000000000000e+00 8.5117507220957194e+00 6.2096501917845437e+00 1.4847167191646211e+01 0 0 0
345 0 1 0.0000000000000000e+00 6.2546589587389976e+00 8.4468131227827037e+00 1.5703296858884217e+01 0 0 0
251 0 1 0.0000000000000000e+00 1.1333768217292850e+01 7.3511053678384943e+00 1.4076816574887905e+01 0 0 0
306 0 1 0.0000000000000000e+00 1.2358094303311193e+01 5.3700989712815161e+00 1.6068767505447425e+01 0 0 0
355 0 1 0.0000000000000000e+00 1.5191477224012292e+01 6.6522904786414063e+00 1.4832744639823769e+01 0 0 0
332 0 1 0.0000000000000000e+00 1.3171085009710668e+01 8.6807260236814230e+00 1.6338289297492040e+01 0 0 0
236 0 1 0.0000000000000000e+00 1.8245105228745402e+01 6.7752211273704432e+00 1.4675702608011420e+01 0 0 0
458 0 1 0.0000000000000000e+00 2.1379618062107426e+01 6.3074190094004816e+00 1.4632753589518023e+01 0 0 0
339 0 1 0.0000000000000000e+00 2.2248389164366289e+00 8.8935387863002013e+00 1.4565809862777924e+01 1 0 0
341 0 1 0.0000000000000000e+00 2.9199449555580737e+00 1.1896200581910723e+01 1.4787170895135407e+01 0 0 0