LAMMPS data file via write_data, version 22 Jul 2014, timestep = 1000

3000 atoms
2 atom types
2700 bonds
1 bond types

0.0000000000000000e+00 1.0000000000000000e+01 xlo xhi
0.0000000000000000e+00 1.0000000000000000e+01 ylo yhi
0.0000000000000000e+00 1.0000000000000000e+01 zlo zhi

Masses

1 1
2 1 # extra atom type for pair srp, mass is not used

Atoms # full

1660 0 1 0.0000000000000000e+00 4.2131182386036387e-01 3.2721505813878493e-01 6.8350195929982982e-01 0 0 1
1656 0 1 0.0000000000000000e+00 7.4388588814032985e-01 6.0770018893984301e-01 1.3155136918212396e+00 0 0 1
2472 0 1 0.0000000000000000e+00 7.5927532474272752e-02 5.4195539393988290e-01 1.4666352274531747e+00 1 1 0
1657 0 1 0.0000000000000000e+00 1.2170436887588958e+00 7.1960869587872581e-02 1.2529111563478246e+00 0 0 1
1655 0 1 0.0000000000000000e+00 1.3506974567659109e+00 5.1654099475588122e-01 7.1997459285124654e-01 0 0 1
911 0 1 0.0000000000000000e+00 6.2837044442777712e-01 1.2168605107153607e+00 5.6140818557450560e-02 1 1 0
2616 0 1 0.0000000000000000e+00 1.3400594762421847e+00 1.4733546760928313e+00 1.1529390861540298e+00 0 0 0
2619 0 1 0.0000000000000000e+00 1.1169839875678014e-01 1.0415394896241745e+00 1.2625595145201622e+00 0 0 0
1422 0 1 0.0000000000000000e+00 1.5105745526664429e+00 1.6167886714397306e+00 1.5861659024147390e+00 0 0 0
2617 0 1 0.0000000000000000e+00 5.7759476335570570e-01 1.2417664406089346e+00 8.6888095174886870e-01 0 0 0
1654 0 1 0.0000000000000000e+00 6.0603000167836818e-01 3.9861889927374056e-01 1.7352042189092398e-01 0 0 1
1477 0 1 0.0000000000000000e+00 1.1881793718722682e+00 1.0676516241464806e+00 4.5789252072807662e-01 0 0 0
89 0 1 0.0000000000000000e+00 2.6926871427364270e+00 7.0532032190324145e-01 1.5988084092766164e+00 0 0 0
88 0 1 0.0000000000000000e+00 2.2433409337455257e+00 3.7929677442365689e-01 9.1440646159583239e-01 0 0 0
2254 0 1 0.0000000000000000e+00 3.2984504604522757e+00 3.3272584338744338e-01 1.4410263790355335e+00 0 1 1
1388 0 1 0.0000000000000000e+00 2.0826519018105540e+00 1.1906889542999750e+00 3.8652383820002356e-02 0 0 1
2154 0 1 0.0000000000000000e+00 2.7720449804366867e+00 5.2545123470707522e-01 5.7386839598773720e-01 0 0 1
1389 0 1 0.0000000000000000e+00 1.9960635413037815e+00 1.2199757938426532e+00 8.6136139633005815e-01 0 0 1
2615 0 1 0.0000000000000000e+00 1.7602056506904094e+00 6.9663158103447409e-01 1.3990963594026409e+00 0 0 0
1215 0 1 0.0000000000000000e+00 2.7284939688249175e+00 1.0083087895787965e+00 1.2246576503122018e+00 0 1 0
2312 0 1 0.0000000000000000e+00 3.3096488876639922e+00 1.1630463360565089e+00 9.0436367291629072e-01 0 0 0
1216 0 1 0.0000000000000000e+00 2.2226665926327502e+00 1.6247434262496239e+00 1.3445617511710952e+00 0 1 0
1214 0 1 0.0000000000000000e+00 2.7058407959570188e+00 1.2817821504717000e+00 4.4422601889603097e-01 0 1 0
2151 0 1 0.0000000000000000e+00 2.6546951408074482e+00 1.4272736571464248e+00 6.7555047660677658e-02 0 0 1
2156 0 1 0.0000000000000000e+00 3.1957583654258022e+00 8.1251450480441001e-01 1.1736414208317954e-01 0 0 1
1480 0 1 0.0000000000000000e+00 1.6728356574660339e+00 1.6641840765391207e+00 6.0700317271012805e-01 0 0 0
2153 0 1 0.0000000000000000e+00 2.0161604283429440e+00 5.7456008151769677e-01 1.3763085942753894e-01 0 0 1
2255 0 1 0.0000000000000000e+00 3.5027806227137863e+00 3.8610519647668501e-01 6.4015907110105863e-01 0 1 1
2157 0 1 0.0000000000000000e+00 3.9021082253425021e+00 1.1068225409959351e+00 5.0539976275055842e-01 0 0 1
2314 0 1 0.0000000000000000e+00 3.5731897187724657e+00 1.5572058139276901e+00 4.6442619391864691e-02 0 0 0
2315 0 1 0.0000000000000000e+00 4.2606684864819293e+00 1.5957142007880685e+00 2.8695915756628237e-01 0 0 0
2316 0 1 0.0000000000000000e+00 4.8417698478089424e+00 1.0652003257250386e+00 3.1717450787613249e-01 0 0 0
2253 0 1 0.0000000000000000e+00 3.6919730095471652e+00 1.0358986192738995e+00 1.4805075173038618e+00 0 1 1
1549 0 1 0.0000000000000000e+00 3.7276261955694334e+00 2.4431892772619992e-01 1.4593626979743057e+00 0 1 1
2258 0 1 0.0000000000000000e+00 4.9900922560696896e+00 3.8560002589012554e-01 5.3052900697806549e-01 0 1 1
2811 0 1 0.0000000000000000e+00 4.2913766483040581e+00 1.6333230707933222e+00 1.4972354096137344e+00 0 0 0
2812 0 1 0.0000000000000000e+00 4.4066231933516358e+00 9.0481222841570741e-01 1.0669196384460542e+00 0 0 0
1550 0 1 0.0000000000000000e+00 4.6054004695817330e+00 3.0349794610422315e-01 1.4319513906698831e+00 0 1 1
2257 0 1 0.0000000000000000e+00 4.1866595187280966e+00 6.9173075109193605e-01 7.5149636267278652e-01 0 1 1
2159 0 1 0.0000000000000000e+00 4.7052894934919749e+00 2.3370012795807718e-01 8.3189461294644218e-02 0 0 1
1323 0 1 0.0000000000000000e+00 6.1543192650129281e+00 2.3941405133723670e-01 2.0749964339869292e-02 0 0 0
527 0 1 0.0000000000000000e+00 5.6567713098742320e+00 3.1474472931551611e-01 1.1283490580089619e+00 0 0 0
2667 0 1 0.0000000000000000e+00 5.7059329561243617e+00 8.5930585680712745e-01 5.1002943590485073e-01 0 0 0
2364 0 1 0.0000000000000000e+00 6.3202827195333571e+00 9.0740706035491114e-01 1.3910211269347819e+00 0 0 0
2368 0 1 0.0000000000000000e+00 6.4807508925871664e+00 1.6139945014794512e+00 3.0208714693109751e-01 0 0 0
528 0 1 0.0000000000000000e+00 5.8428481486288799e+00 1.0140914508650056e+00 1.4355869131516692e+00 0 0 0
2365 0 1 0.0000000000000000e+00 6.2053749175818016e+00 1.5751259104727589e+00 8.4896536203433093e-01 0 0 0
526 0 1 0.0000000000000000e+00 5.2563136156722843e+00 1.0871459573118716e+00 1.0601836274739931e+00 0 0 0
2665 0 1 0.0000000000000000e+00 5.7475268060009821e+00 1.6214329569383383e+00 1.3395360634367453e+00 0 0 0
2670 0 1 0.0000000000000000e+00 5.9560784168122183e+00 1.0391540267960397e-01 9.3671654263266535e-01 0 0 0
1137 0 1 0.0000000000000000e+00 6.6189294420656317e+00 1.9666636158899484e-01 1.3813247472947143e+00 0 0 0
2813 0 1 0.0000000000000000e+00 5.0176566709580932e+00 4.8869357762433813e-01 1.5690722012171561e+00 0 0 0
1138 0 1 0.0000000000000000e+00 6.3983432805474560e+00 7.5062717683092250e-01 7.5551248140329486e-01 0 0 0
2669 0 1 0.0000000000000000e+00 5.7019457957768900e+00 5.0055247458129515e-01 2.3279903316766223e-01 0 0 0
2290 0 1 0.0000000000000000e+00 5.9835021217697726e+00 9.9667910860566145e-01 1.6988513056168074e-02 0 0 0
2318 0 1 0.0000000000000000e+00 5.2903846537099577e+00 1.6013237031596759e+00 4.4947839170399517e-01 0 0 0
2363 0 1 0.0000000000000000e+00 6.7921783774285993e+00 1.6316998695016705e+00 1.3558994469408090e+00 0 0 0
2367 0 1 0.0000000000000000e+00 7.2045208948686659e+00 1.5984987872260898e+00 7.4657720902214442e-01 0 0 0
920 0 1 0.0000000000000000e+00 8.0299130072824738e+00 1.1982806962071473e+00 7.2609685401005364e-01 0 1 0
919 0 1 0.0000000000000000e+00 7.6908746325008890e+00 1.4738919713220711e+00 1.3440117545687986e+00 0 1 0
2287 0 1 0.0000000000000000e+00 8.2420712763073336e+00 7.0489180449810440e-01 8.0242300657206569e-02 0 0 0
2281 0 1 0.0000000000000000e+00 7.3334735635770514e+00 2.5271722109782363e-01 1.2012557848722532e+00 0 0 0
1140 0 1 0.0000000000000000e+00 7.2722669483673021e+00 8.7403553920044241e-01 1.1725447850468997e+00 0 0 0
1139 0 1 0.0000000000000000e+00 7.1184659345126553e+00 3.0752410852090323e-01 4.4318787009804378e-01 0 0 0
2288 0 1 0.0000000000000000e+00 7.6325559267497409e+00 1.2051828049044153e+00 2.5643724063140344e-01 0 0 0
918 0 1 0.0000000000000000e+00 8.0755975130506190e+00 7.2093844904099225e-01 1.2662666400302234e+00 0 1 0
2284 0 1 0.0000000000000000e+00 7.8960666738838574e+00 2.7368635727623736e-01 7.0004545473148305e-01 0 0 0
2289 0 1 0.0000000000000000e+00 6.7833263012887075e+00 9.0464681523821344e-01 1.3366398728688722e-01 0 0 0
2101 0 1 0.0000000000000000e+00 8.8712142020416955e+00 9.7054908883213209e-01 1.5576474913396832e+00 0 0 0
2620 0 1 0.0000000000000000e+00 9.9677217916235996e+00 1.2612433769754230e+00 4.6084019637382340e-01 -1 0 0
319 0 1 0.0000000000000000e+00 8.5082714656302212e+00 1.1320143676309018e+00 1.3589403558197306e+00 0 1 0
915 0 1 0.0000000000000000e+00 9.2751217081030415e+00 8.9396976426645614e-01 9.8476942786301114e-01 0 1 0
916 0 1 0.0000000000000000e+00 9.0244608285931616e+00 2.0850483936146871e-01 1.5143211567861805e+00 0 1 0
1094 0 1 0.0000000000000000e+00 9.0261780134048752e+00 1.6650249014537364e+00 4.6913442592400750e-01 0 0 0
914 0 1 0.0000000000000000e+00 9.3179500579105738e+00 1.0425009691823757e+00 7.9197376928283630e-02 0 1 0
2103 0 1 0.0000000000000000e+00 9.7443385738439545e+00 1.3749135564851402e+00 1.1291445032545888e+00 0 0 0
2474 0 1 0.0000000000000000e+00 8.8232327064500478e+00 1.7108101213360527e-01 6.9620443542794819e-01 0 1 0
913 0 1 0.0000000000000000e+00 9.7445001426804403e+00 6.2421563253003776e-01 6.8820015647009602e-01 0 1 0
2143 0 1 0.0000000000000000e+00 8.6588798781520460e+00 1.0481523958040786e+00 3.5581192783301568e-01 0 0 0
2475 0 1 0.0000000000000000e+00 9.5361390879627717e+00 2.9767229030716613e-01 1.9039575714210447e-01 0 1 0
917 0 1 0.0000000000000000e+00 8.7346888670552367e+00 6.0727325318162029e-01 8.4331893938213087e-01 0 1 0
2870 0 1 0.0000000000000000e+00 3.5696098131222875e-01 2.1793369461220276e+00 3.8330954529769184e-01 0 1 0
2869 0 1 0.0000000000000000e+00 4.4044586968105071e-01 1.8804228004447050e+00 1.1554457190354817e+00 0 1 0
1098 0 1 0.0000000000000000e+00 3.1535515229019967e-01 2.7894108031678919e+00 3.4032520664959487e-02 1 0 0
2862 0 1 0.0000000000000000e+00 8.3918172121931867e-01 3.1607718267738694e+00 3.2531529159773120e-01 0 1 0
756 0 1 0.0000000000000000e+00 1.3828189929227666e+00 3.2293722512533041e+00 7.7149038154619698e-01 0 0 1
1772 0 1 0.0000000000000000e+00 8.7225050045546093e-02 3.1238139252366421e+00 1.1072155108919268e+00 1 0 0
2864 0 1 0.0000000000000000e+00 1.1713042958008126e+00 2.8489118246701146e+00 1.1796353267652115e-01 0 1 0
779 0 1 0.0000000000000000e+00 9.8796536140109703e-01 2.3798697241059803e+00 1.0152163008796067e+00 0 0 0
778 0 1 0.0000000000000000e+00 5.4948303046423730e-01 3.0408741516593945e+00 7.0130203683919445e-01 0 0 0
2868 0 1 0.0000000000000000e+00 8.5466147147036298e-01 1.9746435552245947e+00 4.5344938368166443e-01 0 1 0
1421 0 1 0.0000000000000000e+00 1.4957748058506208e+00 2.3082702876351950e+00 1.1035462634082491e+00 0 0 0
777 0 1 0.0000000000000000e+00 1.8614749954735288e-01 2.3879732130901226e+00 9.9425320276205198e-01 0 0 0
780 0 1 0.0000000000000000e+00 1.1970673631715456e+00 3.0541250907490927e+00 1.4163905019085818e+00 0 0 0
2650 0 1 0.0000000000000000e+00 9.1334423154191413e-01 1.9671474611707771e+00 1.5361823708465421e+00 1 0 0
1479 0 1 0.0000000000000000e+00 1.5488769132326341e+00 2.4311876098526128e+00 3.8172918753322654e-01 0 0 0
1213 0 1 0.0000000000000000e+00 3.1748621813832560e+00 1.8820131461375316e+00 8.1665944279359248e-01 0 1 0
1390 0 1 0.0000000000000000e+00 2.3084980713177203e+00 1.8130720246998124e+00 3.3645027059704269e-01 0 0 1
1211 0 1 0.0000000000000000e+00 2.8641083712005848e+00 2.0070635461459552e+00 9.9951820660170010e-01 0 1 0
755 0 1 0.0000000000000000e+00 2.0786070265667571e+00 2.8932160588356095e+00 6.8971503413721302e-01 0 0 1
1264 0 1 0.0000000000000000e+00 2.9745386658630451e+00 2.8832404321236660e+00 6.5237751595448712e-01 0 0 1
1240 0 1 0.0000000000000000e+00 2.0968090082062729e+00 2.1058673300075395e+00 9.4749111170180411e-01 0 0 0
1239 0 1 0.0000000000000000e+00 2.5979962713521489e+00 2.6683406136126768e+00 1.1975557965076169e+00 0 0 0
2561 0 1 0.0000000000000000e+00 2.5634985826646597e+00 2.3833834099778120e+00 2.4353682601865800e-01 0 0 1
754 0 1 0.0000000000000000e+00 1.9354256272767567e+00 2.4587383079216654e+00 2.4028847147979704e-02 0 0 1
2313 0 1 0.0000000000000000e+00 3.8071534386578954e+00 1.8339357882325398e+00 8.2015783155095245e-01 0 0 0
1265 0 1 0.0000000000000000e+00 3.4658145932755851e+00 2.9908810950032461e+00 1.4040221418625329e+00 0 0 1
1266 0 1 0.0000000000000000e+00 3.7217763177829966e+00 2.6878033472614504e+00 6.2960462594792443e-01 0 0 1
1267 0 1 0.0000000000000000e+00 4.4913908218131393e+00 3.0547276882639638e+00 6.8208998446934610e-01 0 0 1
522 0 1 0.0000000000000000e+00 4.6010697731488976e+00 2.9270945130132513e+00 1.1928219088927754e+00 0 0 0
1268 0 1 0.0000000000000000e+00 4.1779231760934348e+00 2.4380494408531765e+00 1.0981061768911873e+00 0 0 1
1262 0 1 0.0000000000000000e+00 3.8035291497356960e+00 2.2186516885471343e+00 1.3767476354753277e-01 0 0 1
1269 0 1 0.0000000000000000e+00 4.4533148413466019e+00 1.6729400276423425e+00 8.4185296165408086e-01 0 0 1
524 0 1 0.0000000000000000e+00 4.9829921949736358e+00 1.7180373824373942e+00 1.1337602573630015e+00 0 0 0
1263 0 1 0.0000000000000000e+00 3.5330494973394515e+00 2.9679006258527485e+00 4.8749847438354907e-02 0 0 1
2716 0 1 0.0000000000000000e+00 4.0645303774453998e+00 3.1941968347109784e+00 1.2623641051087614e-01 0 0 0
1212 0 1 0.0000000000000000e+00 3.3641895795356929e+00 2.4558017172015072e+00 1.4449911387336043e+00 0 1 0
2311 0 1 0.0000000000000000e+00 3.8220062571680851e+00 1.6802481106044436e+00 1.3237742151906788e+00 0 0 0
1270 0 1 0.0000000000000000e+00 4.4783099961870088e+00 2.3675302982793958e+00 3.0767667374628177e-01 0 0 1
582 0 1 0.0000000000000000e+00 4.6608538254360408e+00 2.4818099025086231e+00 3.7188666481313248e-02 0 0 1
2319 0 1 0.0000000000000000e+00 5.0188597197682148e+00 2.3725130142710920e+00 8.0020179389062152e-01 0 0 0
2320 0 1 0.0000000000000000e+00 5.9069843349759443e+00 2.3565242933834250e+00 7.9885950803173122e-01 0 0 0
2663 0 1 0.0000000000000000e+00 5.9834567060391510e+00 2.5617427448197208e+00 1.5691627571152131e+00 0 0 0
2661 0 1 0.0000000000000000e+00 6.1803994440294936e+00 3.2053612568285734e+00 1.1686533417650407e+00 0 0 0
2662 0 1 0.0000000000000000e+00 5.4367424577603476e+00 2.9940800143522894e+00 1.0951133752855939e+00 0 0 0
2666 0 1 0.0000000000000000e+00 5.7084285723162322e+00 1.7481187613648137e+00 5.0239774623820554e-01 0 0 0
1503 0 1 0.0000000000000000e+00 6.6227779338009940e+00 2.9087789999900688e+00 4.3244612121889583e-02 0 0 0
1662 0 1 0.0000000000000000e+00 6.0424227174719212e+00 2.9488666228300811e+00 5.1271390338000611e-01 0 0 0
1666 0 1 0.0000000000000000e+00 5.1565284267024598e+00 2.9482895356513428e+00 4.6388280325199094e-01 0 0 0
1409 0 1 0.0000000000000000e+00 6.3336019836754467e+00 3.3054470307554911e+00 5.9474333080028530e-01 -1 0 1
1818 0 1 0.0000000000000000e+00 6.3525926505163843e+00 1.8114625810544946e+00 1.5118352446993228e+00 0 0 0
1607 0 1 0.0000000000000000e+00 5.9598510192222811e+00 2.4847029139058421e+00 2.1679331048939712e-01 0 0 1
521 0 1 0.0000000000000000e+00 5.3538143607215414e+00 2.6216961355457844e+00 1.4858959645289072e+00 0 0 0
2366 0 1 0.0000000000000000e+00 6.6750913441504220e+00 2.2974144304534909e+00 7.4534306053455790e-01 0 0 0
2109 0 1 0.0000000000000000e+00 7.7242521583929680e+00 2.8381405455886837e+00 1.3176677983756806e+00 0 0 0
2110 0 1 0.0000000000000000e+00 6.8887296497781634e+00 2.9761036969722587e+00 1.6415366462676455e+00 0 0 0
255 0 1 0.0000000000000000e+00 8.1835414610655288e+00 1.7256396941640748e+00 1.3581500306241319e+00 0 0 0
256 0 1 0.0000000000000000e+00 7.6895345782244044e+00 2.2943406875725141e+00 1.5837367033351764e+00 0 0 0
1091 0 1 0.0000000000000000e+00 7.7511388541419954e+00 2.5457275543082152e+00 7.4932410764790436e-01 0 0 0
1093 0 1 0.0000000000000000e+00 8.1411737656860108e+00 1.7438542408926345e+00 4.1518104967599928e-01 0 0 0
1408 0 1 0.0000000000000000e+00 7.1043355471734912e+00 3.1951140489822647e+00 6.1612002790618769e-01 -1 0 1
1502 0 1 0.0000000000000000e+00 7.3149263595754475e+00 2.5110770184322311e+00 2.3691108785757464e-01 0 0 0
1820 0 1 0.0000000000000000e+00 7.2095859677034184e+00 2.1517681178926282e+00 9.7105569490279098e-01 0 0 0
171 0 1 0.0000000000000000e+00 7.9586164169726894e+00 1.9523065960317287e+00 8.4320276677168027e-01 0 0 0
172 0 1 0.0000000000000000e+00 7.2661013548984386e+00 1.7367366507082731e+00 3.9299306446250670e-01 0 0 0
1410 0 1 0.0000000000000000e+00 6.7765419778528990e+00 2.7416393956950875e+00 1.0952187120912671e+00 -1 0 1
1095 0 1 0.0000000000000000e+00 9.6195557301198011e+00 1.8289091393543704e+00 9.6804013482550566e-01 0 0 0
254 0 1 0.0000000000000000e+00 8.3424516906326271e+00 2.5249679221248251e+00 1.1291370609895943e+00 0 0 0
251 0 1 0.0000000000000000e+00 8.8434201295793997e+00 2.3860652906704058e+00 6.6308224221539669e-01 0 0 0
252 0 1 0.0000000000000000e+00 9.2884893570332530e+00 2.8823776794613147e+00 1.0256219985959913e+00 0 0 0
1092 0 1 0.0000000000000000e+00 8.4497517381702156e+00 2.4988076749396977e+00 1.5923657056283644e-01 0 0 0
1096 0 1 0.0000000000000000e+00 9.5037937126562504e+00 2.5611849358367698e+00 5.9393434018405311e-01 0 0 0
340 0 1 0.0000000000000000e+00 8.3633883562583442e+00 3.0063596829922914e+00 5.2560171934389555e-01 0 0 0
2107 0 1 0.0000000000000000e+00 8.9584100359336283e+00 2.7560938912881685e+00 1.5214186642347165e+00 0 0 0
2104 0 1 0.0000000000000000e+00 9.6249770620812143e+00 2.0085586735512106e+00 1.6104877336227230e+00 0 0 0
320 0 1 0.0000000000000000e+00 8.9610065719435870e+00 1.7018653135603108e+00 9.9119628138663485e-01 0 1 0
776 0 1 0.0000000000000000e+00 9.6443349668638785e+00 2.4580077276679462e+00 1.5871466410960118e+00 -1 0 0
253 0 1 0.0000000000000000e+00 8.5578367991690900e+00 3.3136380643301173e+00 1.1775287539207446e+00 0 0 0
554 0 1 0.0000000000000000e+00 9.0031658833158037e+00 1.8545511408993920e+00 2.2889225613935693e-02 -1 0 0
555 0 1 0.0000000000000000e+00 9.5189482121598861e+00 2.5249341371183029e+00 9.1386770789778637e-03 -1 0 0
833 0 1 0.0000000000000000e+00 9.0194624122349669e+00 3.3249031662083333e+00 6.3006406014042238e-01 -1 0 0
551 0 1 0.0000000000000000e+00 9.8962075706804420e+00 1.9095542863947563e+00 1.7393412576675615e-01 -1 0 0
2863 0 1 0.0000000000000000e+00 1.6441754764594962e+00 3.3362396950913706e+00 5.3904875920455453e-02 0 1 0
1071 0 1 0.0000000000000000e+00 9.0456858363039749e-01 4.8462014094319725e+00 1.1435129706735903e+00 0 0 0
1099 0 1 0.0000000000000000e+00 3.5791005707340610e-02 3.6093572317369258e+00 9.2007229930067422e-02 1 0 0
1073 0 1 0.0000000000000000e+00 1.1895663589442977e+00 3.9623914210054290e+00 7.2787663356321652e-01 0 0 0
1074 0 1 0.0000000000000000e+00 1.0106340015131152e+00 3.6996006921154381e+00 1.6141048566241392e+00 0 0 0
2278 0 1 0.0000000000000000e+00 1.5360001176273137e+00 4.7341436912676622e+00 5.5185024818853601e-01 0 0 0
1773 0 1 0.0000000000000000e+00 5.1293464883826723e-01 3.8161612285272160e+00 7.4097881201103799e-01 1 0 0
1774 0 1 0.0000000000000000e+00 1.6634542263640037e-01 4.3006715066071735e+00 1.3106300211772859e+00 1 0 0
1776 0 1 0.0000000000000000e+00 6.0199569371342976e-01 4.3186589897741845e+00 1.4615770295817878e+00 1 0 0
2861 0 1 0.0000000000000000e+00 1.1859901566601010e+00 3.9640678809619088e+00 2.6746704459521170e-01 0 1 0
1072 0 1 0.0000000000000000e+00 5.4889289066578539e-01 4.4698469828574954e+00 4.4898486547476668e-01 0 0 0
774 0 1 0.0000000000000000e+00 4.8914330071796036e-01 3.4668783565524515e+00 1.4765095168401152e+00 0 0 0
723 0 1 0.0000000000000000e+00 1.4698255468600665e+00 4.1194868025619256e+00 1.3180745104626379e+00 0 0 0
2570 0 1 0.0000000000000000e+00 1.4669837197889071e+00 4.4377984518870353e+00 9.4918010752120266e-02 0 0 1
1053 0 1 0.0000000000000000e+00 6.7745552922216845e-02 4.8674962439705558e+00 1.0393188191040275e+00 1 0 0
758 0 1 0.0000000000000000e+00 2.8095686287757577e+00 3.5203996821564130e+00 1.0818440485838277e+00 0 0 1
757 0 1 0.0000000000000000e+00 2.0009744706164168e+00 3.4148582472651112e+00 1.3550416931250848e+00 0 0 1
759 0 1 0.0000000000000000e+00 2.9193892194064675e+00 3.5268321587551137e+00 2.5173922853455116e-01 0 0 1
1081 0 1 0.0000000000000000e+00 2.4604480305791303e+00 3.7908552121818420e+00 7.6842479410988318e-02 0 0 1
760 0 1 0.0000000000000000e+00 2.8172625852788036e+00 3.8959759566986327e+00 9.4559879882803632e-01 0 0 1
722 0 1 0.0000000000000000e+00 1.9484569601443957e+00 4.2638936757291086e+00 6.2799592145219929e-01 0 0 0
724 0 1 0.0000000000000000e+00 2.2980310785306006e+00 4.0288300574184159e+00 1.5473986597219558e+00 0 0 0
721 0 1 0.0000000000000000e+00 2.2029641287841972e+00 3.4635670610123013e+00 8.9007580404054076e-01 0 0 0
2275 0 1 0.0000000000000000e+00 2.9589560416803224e+00 4.7680396055405527e+00 1.0204972860590262e+00 0 0 0
2277 0 1 0.0000000000000000e+00 2.3919563777393411e+00 4.5324948789833934e+00 6.2451508452944005e-01 0 0 0
488 0 1 0.0000000000000000e+00 2.1794629861354018e+00 4.4517037724709363e+00 1.3170174206074963e+00 0 0 0
489 0 1 0.0000000000000000e+00 2.9766173128864866e+00 4.5294210562358792e+00 1.3836485012637316e+00 0 0 0
490 0 1 0.0000000000000000e+00 3.0401004890726142e+00 4.1256062612397235e+00 6.3349645096761464e-01 0 0 0
2569 0 1 0.0000000000000000e+00 1.9254751979752118e+00 3.7672376024121670e+00 2.8908889769902257e-01 0 0 1
2720 0 1 0.0000000000000000e+00 3.6252067739910210e+00 4.6722066223205250e+00 6.5854815202224481e-01 0 0 0
2717 0 1 0.0000000000000000e+00 4.2162946516947404e+00 3.8968249673697737e+00 5.4035342802590258e-01 0 0 0
2718 0 1 0.0000000000000000e+00 3.6270198940150227e+00 3.3369560592967789e+00 7.7207738164453332e-01 0 0 0
1454 0 1 0.0000000000000000e+00 3.6355821667152508e+00 3.8758402238520744e+00 2.1857830182107030e-01 0 0 1
1665 0 1 0.0000000000000000e+00 4.7128194030646666e+00 3.4539395658184064e+00 1.9650328064063416e-02 0 0 0
1455 0 1 0.0000000000000000e+00 3.7489273376870833e+00 4.6783133461920503e+00 5.3709753756850276e-02 0 0 1
162 0 1 0.0000000000000000e+00 3.5726801016197989e+00 4.4512959413559967e+00 1.6050704883461691e+00 0 -1 0
2719 0 1 0.0000000000000000e+00 3.7496150153119419e+00 4.0392985075109911e+00 1.2069350398283891e+00 0 0 0
727 0 1 0.0000000000000000e+00 3.5642479530048403e+00 3.5960224173478976e+00 1.6168382226569242e+00 0 0 0
1457 0 1 0.0000000000000000e+00 4.4244156382905464e+00 4.6387596947545147e+00 1.6409164047077240e-01 0 0 1
1668 0 1 0.0000000000000000e+00 4.2735963463740028e+00 3.4081460554595679e+00 1.0801120594795135e+00 0 0 0
2943 0 1 0.0000000000000000e+00 4.4719772467233270e+00 4.8318244050910257e+00 1.5770651966383298e+00 0 0 0
2945 0 1 0.0000000000000000e+00 4.7006413447208777e+00 3.8753108708314374e+00 1.3040840008778380e+00 0 0 0
2273 0 1 0.0000000000000000e+00 3.7504612032699254e+00 4.9815259808761194e+00 1.3174922697497318e+00 0 0 0
1456 0 1 0.0000000000000000e+00 4.0669618494962494e+00 4.9750983345035413e+00 7.8784988231965158e-01 0 0 1
1459 0 1 0.0000000000000000e+00 4.5063878920379974e+00 4.5008912196755366e+00 1.1053801169770892e+00 0 0 1
1460 0 1 0.0000000000000000e+00 4.7693861801275084e+00 3.8056525163373593e+00 6.0184643241920999e-01 0 0 1
1663 0 1 0.0000000000000000e+00 5.3512583769798612e+00 3.4161840302732704e+00 1.4604316453905142e-01 0 0 0
2629 0 1 0.0000000000000000e+00 5.0698960738468921e+00 4.2892684428997443e+00 7.8069371201923987e-01 0 0 1
2628 0 1 0.0000000000000000e+00 5.5417400826683254e+00 4.1891509637263047e+00 6.2589327172665521e-02 0 0 1
2627 0 1 0.0000000000000000e+00 5.6930988596171206e+00 4.9806861962111624e+00 4.6145850844131781e-01 0 0 1
653 0 1 0.0000000000000000e+00 6.0856851930637683e+00 4.4101031866991294e+00 5.5651125656666167e-01 0 0 0
2770 0 1 0.0000000000000000e+00 6.2177382140378903e+00 3.8888580229653522e+00 1.1916309405997898e+00 0 0 0
2768 0 1 0.0000000000000000e+00 6.5955618881003577e+00 4.3231129390536687e+00 1.1759345919790727e+00 0 0 0
862 0 1 0.0000000000000000e+00 5.5786961621058859e+00 4.0400526699315771e+00 1.1530515600925126e+00 0 0 0
861 0 1 0.0000000000000000e+00 5.9440520415660529e+00 4.8685366992764054e+00 1.2152426434883541e+00 0 0 0
1667 0 1 0.0000000000000000e+00 5.1309625269549652e+00 3.4662369349186699e+00 1.1149352598437670e+00 0 0 0
185 0 1 0.0000000000000000e+00 5.8243724302452708e+00 4.3051127451125195e+00 1.6437593592370221e+00 0 0 0
1918 0 1 0.0000000000000000e+00 5.2555006255557792e+00 4.8378851526244286e+00 1.1928022656881854e+00 0 0 0
2630 0 1 0.0000000000000000e+00 5.7176582582288225e+00 3.6622633558106630e+00 5.5503611547203868e-01 0 0 1
651 0 1 0.0000000000000000e+00 6.2913182161465526e+00 4.5489393069297472e+00 1.5860562276542375e-01 0 0 0
363 0 1 0.0000000000000000e+00 8.2431239871897617e+00 4.0858796836410178e+00 1.6626882860153294e+00 0 0 0
1505 0 1 0.0000000000000000e+00 7.5252219711162214e+00 3.6056754703249965e+00 1.7223125092422548e-01 0 0 0
652 0 1 0.0000000000000000e+00 6.9053533833735905e+00 4.1127568799779821e+00 4.5789545731300380e-01 0 0 0
1407 0 1 0.0000000000000000e+00 7.9181587100192816e+00 3.5159187771626788e+00 4.7799909056558804e-01 -1 0 1
1406 0 1 0.0000000000000000e+00 7.1480166942845305e+00 3.9225560087065174e+00 7.7356826331083794e-01 -1 0 1
339 0 1 0.0000000000000000e+00 8.2986721788404409e+00 3.7996498154804335e+00 3.4058550476673644e-01 0 0 0
364 0 1 0.0000000000000000e+00 7.5685994205188809e+00 4.2565725327632356e+00 1.2730962595736510e+00 0 0 0
1952 0 1 0.0000000000000000e+00 7.4583912074747207e+00 4.4859672671716346e+00 4.1213870444177486e-02 0 0 1
338 0 1 0.0000000000000000e+00 8.3013674072475627e+00 3.9525405522980184e+00 1.1652448678164515e+00 0 0 0
2766 0 1 0.0000000000000000e+00 7.1513043172516397e+00 4.9969214873017469e+00 3.4401630965667940e-01 0 0 0
1405 0 1 0.0000000000000000e+00 7.9211494580525645e+00 4.2735788260473901e+00 6.6147653111819871e-01 -1 0 1
2769 0 1 0.0000000000000000e+00 7.0007969419293641e+00 3.5457799848542839e+00 1.2105687987057687e+00 0 0 0
231 0 1 0.0000000000000000e+00 8.2653134510984927e+00 4.7889483802913091e+00 1.1825064717542888e+00 0 0 0
2767 0 1 0.0000000000000000e+00 7.3275495944284961e+00 4.7414375450313839e+00 1.0734976105167888e+00 0 0 0
233 0 1 0.0000000000000000e+00 7.9028286500452305e+00 4.8032896938978320e+00 1.4888234046173348e+00 0 0 0
361 0 1 0.0000000000000000e+00 7.8204928289301003e+00 3.4616873955059466e+00 1.0775697611606163e+00 0 0 0
1097 0 1 0.0000000000000000e+00 9.7920055196594937e+00 3.3632207749792884e+00 4.1954063951110843e-01 0 0 0
1771 0 1 0.0000000000000000e+00 9.3741914037751162e+00 3.3902502198989035e+00 1.5380494209853197e+00 0 0 0
1184 0 1 0.0000000000000000e+00 9.9071849069005165e+00 4.7553370457010082e+00 5.2332354491186295e-01 -1 0 0
1181 0 1 0.0000000000000000e+00 9.5100889373852819e+00 4.2273761818827973e+00 5.4605342267989931e-01 -1 0 0
1403 0 1 0.0000000000000000e+00 8.5338772777286902e+00 4.8585536910184839e+00 3.7789850086017968e-01 -1 0 1
1054 0 1 0.0000000000000000e+00 9.4462303111432284e+00 4.4356228955034789e+00 1.4715264437082731e+00 0 0 0
335 0 1 0.0000000000000000e+00 9.8306271964464482e+00 3.7777774417334258e+00 1.2331975045138175e+00 0 0 0
336 0 1 0.0000000000000000e+00 9.0268202825699149e+00 4.0875117435413637e+00 1.4544074210711775e+00 0 0 0
337 0 1 0.0000000000000000e+00 8.7110924936228873e+00 4.7294645388365595e+00 1.1470169751913726e+00 0 0 0
832 0 1 0.0000000000000000e+00 9.6244687319648214e+00 3.9887186524258498e+00 6.6006795205484881e-01 -1 0 0
831 0 1 0.0000000000000000e+00 8.8098221540487369e+00 3.8801141432003701e+00 6.0020092651572254e-01 -1 0 0
1510 0 1 0.0000000000000000e+00 8.8121849335319915e+00 4.3709280385871159e+00 2.8630807061884211e-01 0 0 0
1051 0 1 0.0000000000000000e+00 9.1643101275161349e+00 4.7347504551711443e+00 8.7675183971180737e-01 0 0 0
1431 0 1 0.0000000000000000e+00 4.0208746281131347e-01 6.0447821402944060e+00 9.6003607322270379e-01 1 0 0
121 0 1 0.0000000000000000e+00 9.8115173569934278e-01 6.6343123899258645e+00 5.4091612724831561e-01 0 0 0
148 0 1 0.0000000000000000e+00 1.1783357895446402e+00 6.1784156420239489e+00 1.3313447970530292e+00 0 0 0
1736 0 1 0.0000000000000000e+00 6.1283658897540727e-01 5.8042640840018720e+00 6.6471197078093514e-02 1 0 1
1737 0 1 0.0000000000000000e+00 1.0116685602632519e-01 6.3108052094051130e+00 4.8546218347952336e-01 1 0 1
1559 0 1 0.0000000000000000e+00 7.4212070130550167e-01 5.7628176888034339e+00 1.4651888880944204e+00 0 0 0
1740 0 1 0.0000000000000000e+00 1.3536676950509625e+00 5.8625561641514352e+00 7.5626067063254510e-01 1 0 1
1056 0 1 0.0000000000000000e+00 8.4121068538156152e-02 5.4320543895865505e+00 1.3803967022749539e+00 1 0 0
487 0 1 0.0000000000000000e+00 1.5142025269614046e+00 5.0270929925698047e+00 1.2487973059103297e+00 0 0 0
1560 0 1 0.0000000000000000e+00 6.0922974059018076e-01 5.1490838601499886e+00 8.3837613168905845e-01 0 0 0
122 0 1 0.0000000000000000e+00 1.5056279189404647e+00 5.9664502646612467e+00 1.9409638615672453e-01 0 0 0
1738 0 1 0.0000000000000000e+00 6.4471205992282421e-01 5.6432661631881871e+00 5.3281642501498361e-01 1 0 1
1739 0 1 0.0000000000000000e+00 1.1815494889231268e+00 5.3179593637410285e+00 1.1868121618466049e-01 1 0 1
1185 0 1 0.0000000000000000e+00 1.3346734539972288e-01 5.5006825300449718e+00 2.3828909839584611e-01 0 0 0
2599 0 1 0.0000000000000000e+00 2.6783068417161151e+00 6.2188233577469880e+00 6.5210951853549071e-01 0 0 0
1083 0 1 0.0000000000000000e+00 3.2474287351731417e+00 5.2671975786595393e+00 1.2309608232386005e-01 0 0 1
768 0 1 0.0000000000000000e+00 2.3438648354092524e+00 5.7862969284573280e+00 1.1483893794068329e+00 0 0 1
1084 0 1 0.0000000000000000e+00 3.0039105848653662e+00 6.0651795109543691e+00 1.6514304342878874e-01 0 0 1
2596 0 1 0.0000000000000000e+00 2.8843343883790031e+00 6.0820974478775058e+00 1.3401315226016366e+00 0 0 0
2276 0 1 0.0000000000000000e+00 2.7717042942981434e+00 5.2637469480993158e+00 3.9222839169501400e-01 0 0 0
486 0 1 0.0000000000000000e+00 2.3245563669559020e+00 5.2483281096978098e+00 1.3858630706896609e+00 0 0 0
2274 0 1 0.0000000000000000e+00 3.2782645594383477e+00 5.4470644308675462e+00 8.9690941864148954e-01 0 0 0
485 0 1 0.0000000000000000e+00 1.7171256594458142e+00 5.8605741716158120e+00 1.4763070293228593e+00 0 0 0
767 0 1 0.0000000000000000e+00 2.2460318727734889e+00 5.9832748303701049e+00 4.1417589227781959e-01 0 0 1
124 0 1 0.0000000000000000e+00 2.0289684779727293e+00 6.5399053189901712e+00 9.8811490790029544e-01 0 0 0
769 0 1 0.0000000000000000e+00 2.9903451181453273e+00 5.5297489635106443e+00 1.5789726923660201e+00 0 0 1