LAMMPS data file from restart file: timestep = 0, procs = 1

2304 atoms

1 atom types

-4.7324074499999995e+01 4.7324074499999995e+01 xlo xhi
-1.5774691499999999e+01 1.5774691499999999e+01 ylo yhi
-1.5774691499999999e+01 1.5774691499999999e+01 zlo zhi

Masses

1 39.95

Pair Coeffs

1 0.2381 3.405

Atoms

1 1 -4.0751286374999999e+01 -1.4460133875000000e+01 -1.4460133875000000e+01 -512 -512 -512
2 1 -3.8122171125000001e+01 -1.1831018624999999e+01 -1.4460133875000000e+01 -512 -512 -512
3 1 -3.8122171125000001e+01 -1.4460133875000000e+01 -1.1831018624999999e+01 -512 -512 -512
4 1 -4.0751286374999999e+01 -1.1831018624999999e+01 -1.1831018624999999e+01 -512 -512 -512
5 1 -3.5493055875000003e+01 -1.4460133875000000e+01 -1.4460133875000000e+01 -512 -512 -512
6 1 -3.2863940624999998e+01 -1.1831018624999999e+01 -1.4460133875000000e+01 -512 -512 -512
7 1 -3.2863940624999998e+01 -1.4460133875000000e+01 -1.1831018624999999e+01 -512 -512 -512
8 1 -3.5493055875000003e+01 -1.1831018624999999e+01 -1.1831018624999999e+01 -512 -512 -512
9 1 -3.0234825375000000e+01 -1.4460133875000000e+01 -1.4460133875000000e+01 -512 -512 -512
10 1 -2.7605710125000002e+01 -1.1831018624999999e+01 -1.4460133875000000e+01 -512 -512 -512
11 1 -2.7605710125000002e+01 -1.4460133875000000e+01 -1.1831018624999999e+01 -512 -512 -512
12 1 -3.0234825375000000e+01 -1.1831018624999999e+01 -1.1831018624999999e+01 -512 -512 -512
13 1 -2.4976594875000000e+01 -1.4460133875000000e+01 -1.4460133875000000e+01 -512 -512 -512
14 1 -2.2347479624999998e+01 -1.1831018624999999e+01 -1.4460133875000000e+01 -512 -512 -512
15 1 -2.2347479624999998e+01 -1.4460133875000000e+01 -1.1831018624999999e+01 -512 -512 -512
16 1 -2.4976594875000000e+01 -1.1831018624999999e+01 -1.1831018624999999e+01 -512 -512 -512
17 1 -1.9718364375000000e+01 -1.4460133875000000e+01 -1.4460133875000000e+01 -512 -512 -512
18 1 -1.7089249125000002e+01 -1.1831018624999999e+01 -1.4460133875000000e+01 -512 -512 -512
19 1 -1.7089249125000002e+01 -1.4460133875000000e+01 -1.1831018624999999e+01 -512 -512 -512
20 1 -1.9718364375000000e+01 -1.1831018624999999e+01 -1.1831018624999999e+01 -512 -512 -512
21 1 -1.4460133875000000e+01 -1.4460133875000000e+01 -1.4460133875000000e+01 -512 -512 -512
22 1 -1.1831018624999999e+01 -1.1831018624999999e+01 -1.4460133875000000e+01 -512 -512 -512
23 1 -1.1831018624999999e+01 -1.4460133875000000e+01 -1.1831018624999999e+01 -512 -512 -512
24 1 -1.4460133875000000e+01 -1.1831018624999999e+01 -1.1831018624999999e+01 -512 -512 -512
25 1 -9.2019033750000006e+00 -1.4460133875000000e+01 -1.4460133875000000e+01 -512 -512 -512
26 1 -6.5727881249999998e+00 -1.1831018624999999e+01 -1.4460133875000000e+01 -512 -512 -512
27 1 -6.5727881249999998e+00 -1.4460133875000000e+01 -1.1831018624999999e+01 -512 -512 -512
28 1 -9.2019033750000006e+00 -1.1831018624999999e+01 -1.1831018624999999e+01 -512 -512 -512
29 1 -3.9436728749999999e+00 -1.4460133875000000e+01 -1.4460133875000000e+01 -512 -512 -512
30 1 -1.3145576250000000e+00 -1.1831018624999999e+01 -1.4460133875000000e+01 -512 -512 -512
31 1 -1.3145576250000000e+00 -1.4460133875000000e+01 -1.1831018624999999e+01 -512 -512 -512
32 1 -3.9436728749999999e+00 -1.1831018624999999e+01 -1.1831018624999999e+01 -512 -512 -512
33 1 1.3145576250000000e+00 -1.4460133875000000e+01 -1.4460133875000000e+01 -512 -512 -512
34 1 3.9436728749999999e+00 -1.1831018624999999e+01 -1.4460133875000000e+01 -512 -512 -512
35 1 3.9436728749999999e+00 -1.4460133875000000e+01 -1.1831018624999999e+01 -512 -512 -512
36 1 1.3145576250000000e+00 -1.1831018624999999e+01 -1.1831018624999999e+01 -512 -512 -512
37 1 6.5727881249999998e+00 -1.4460133875000000e+01 -1.4460133875000000e+01 -512 -512 -512
38 1 9.2019033750000006e+00 -1.1831018624999999e+01 -1.4460133875000000e+01 -512 -512 -512
39 1 9.2019033750000006e+00 -1.4460133875000000e+01 -1.1831018624999999e+01 -512 -512 -512
40 1 6.5727881249999998e+00 -1.1831018624999999e+01 -1.1831018624999999e+01 -512 -512 -512
41 1 1.1831018624999999e+01 -1.4460133875000000e+01 -1.4460133875000000e+01 -512 -512 -512
42 1 1.4460133875000000e+01 -1.1831018624999999e+01 -1.4460133875000000e+01 -512 -512 -512
43 1 1.4460133875000000e+01 -1.4460133875000000e+01 -1.1831018624999999e+01 -512 -512 -512
44 1 1.1831018624999999e+01 -1.1831018624999999e+01 -1.1831018624999999e+01 -512 -512 -512
45 1 1.7089249124999998e+01 -1.4460133875000000e+01 -1.4460133875000000e+01 -512 -512 -512
46 1 1.9718364375000000e+01 -1.1831018624999999e+01 -1.4460133875000000e+01 -512 -512 -512
47 1 1.9718364375000000e+01 -1.4460133875000000e+01 -1.1831018624999999e+01 -512 -512 -512
48 1 1.7089249124999998e+01 -1.1831018624999999e+01 -1.1831018624999999e+01 -512 -512 -512
49 1 2.2347479624999998e+01 -1.4460133875000000e+01 -1.4460133875000000e+01 -512 -512 -512
50 1 2.4976594874999996e+01 -1.1831018624999999e+01 -1.4460133875000000e+01 -512 -512 -512
51 1 2.4976594874999996e+01 -1.4460133875000000e+01 -1.1831018624999999e+01 -512 -512 -512
52 1 2.2347479624999998e+01 -1.1831018624999999e+01 -1.1831018624999999e+01 -512 -512 -512
53 1 2.7605710124999998e+01 -1.4460133875000000e+01 -1.4460133875000000e+01 -512 -512 -512
54 1 3.0234825375000000e+01 -1.1831018624999999e+01 -1.4460133875000000e+01 -512 -512 -512
55 1 3.0234825375000000e+01 -1.4460133875000000e+01 -1.1831018624999999e+01 -512 -512 -512
56 1 2.7605710124999998e+01 -1.1831018624999999e+01 -1.1831018624999999e+01 -512 -512 -512
57 1 3.2863940624999998e+01 -1.4460133875000000e+01 -1.4460133875000000e+01 -512 -512 -512
58 1 3.5493055874999996e+01 -1.1831018624999999e+01 -1.4460133875000000e+01 -512 -512 -512
59 1 3.5493055874999996e+01 -1.4460133875000000e+01 -1.1831018624999999e+01 -512 -512 -512
60 1 3.2863940624999998e+01 -1.1831018624999999e+01 -1.1831018624999999e+01 -512 -512 -512
61 1 3.8122171125000001e+01 -1.4460133875000000e+01 -1.4460133875000000e+01 -512 -512 -512
62 1 4.0751286374999999e+01 -1.1831018624999999e+01 -1.4460133875000000e+01 -512 -512 -512
63 1 4.0751286374999999e+01 -1.4460133875000000e+01 -1.1831018624999999e+01 -512 -512 -512
64 1 3.8122171125000001e+01 -1.1831018624999999e+01 -1.1831018624999999e+01 -512 -512 -512
65 1 -4.0751286374999999e+01 -9.2019033750000006e+00 -1.4460133875000000e+01 -512 -512 -512
66 1 -3.8122171125000001e+01 -6.5727881249999998e+00 -1.4460133875000000e+01 -512 -512 -512
67 1 -3.8122171125000001e+01 -9.2019033750000006e+00 -1.1831018624999999e+01 -512 -512 -512
68 1 -4.0751286374999999e+01 -6.5727881249999998e+00 -1.1831018624999999e+01 -512 -512 -512
69 1 -3.5493055875000003e+01 -9.2019033750000006e+00 -1.4460133875000000e+01 -512 -512 -512
70 1 -3.2863940624999998e+01 -6.5727881249999998e+00 -1.4460133875000000e+01 -512 -512 -512
71 1 -3.2863940624999998e+01 -9.2019033750000006e+00 -1.1831018624999999e+01 -512 -512 -512
72 1 -3.5493055875000003e+01 -6.5727881249999998e+00 -1.1831018624999999e+01 -512 -512 -512
73 1 -3.0234825375000000e+01 -9.2019033750000006e+00 -1.4460133875000000e+01 -512 -512 -512
74 1 -2.7605710125000002e+01 -6.5727881249999998e+00 -1.4460133875000000e+01 -512 -512 -512
75 1 -2.7605710125000002e+01 -9.2019033750000006e+00 -1.1831018624999999e+01 -512 -512 -512
76 1 -3.0234825375000000e+01 -6.5727881249999998e+00 -1.1831018624999999e+01 -512 -512 -512
77 1 -2.4976594875000000e+01 -9.2019033750000006e+00 -1.4460133875000000e+01 -512 -512 -512
78 1 -2.2347479624999998e+01 -6.5727881249999998e+00 -1.4460133875000000e+01 -512 -512 -512
79 1 -2.2347479624999998e+01 -9.2019033750000006e+00 -1.1831018624999999e+01 -512 -512 -512
80 1 -2.4976594875000000e+01 -6.5727881249999998e+00 -1.1831018624999999e+01 -512 -512 -512
81 1 -1.9718364375000000e+01 -9.2019033750000006e+00 -1.4460133875000000e+01 -512 -512 -512
82 1 -1.7089249125000002e+01 -6.5727881249999998e+00 -1.4460133875000000e+01 -512 -512 -512
83 1 -1.7089249125000002e+01 -9.2019033750000006e+00 -1.1831018624999999e+01 -512 -512 -512
84 1 -1.9718364375000000e+01 -6.5727881249999998e+00 -1.1831018624999999e+01 -512 -512 -512
85 1 -1.4460133875000000e+01 -9.2019033750000006e+00 -1.4460133875000000e+01 -512 -512 -512
86 1 -1.1831018624999999e+01 -6.5727881249999998e+00 -1.4460133875000000e+01 -512 -512 -512
87 1 -1.1831018624999999e+01 -9.2019033750000006e+00 -1.1831018624999999e+01 -512 -512 -512
88 1 -1.4460133875000000e+01 -6.5727881249999998e+00 -1.1831018624999999e+01 -512 -512 -512
89 1 -9.2019033750000006e+00 -9.2019033750000006e+00 -1.4460133875000000e+01 -512 -512 -512
90 1 -6.5727881249999998e+00 -6.5727881249999998e+00 -1.4460133875000000e+01 -512 -512 -512
91 1 -6.5727881249999998e+00 -9.2019033750000006e+00 -1.1831018624999999e+01 -512 -512 -512
92 1 -9.2019033750000006e+00 -6.5727881249999998e+00 -1.1831018624999999e+01 -512 -512 -512
93 1 -3.9436728749999999e+00 -9.2019033750000006e+00 -1.4460133875000000e+01 -512 -512 -512
94 1 -1.3145576250000000e+00 -6.5727881249999998e+00 -1.4460133875000000e+01 -512 -512 -512
95 1 -1.3145576250000000e+00 -9.2019033750000006e+00 -1.1831018624999999e+01 -512 -512 -512
96 1 -3.9436728749999999e+00 -6.5727881249999998e+00 -1.1831018624999999e+01 -512 -512 -512
97 1 1.3145576250000000e+00 -9.2019033750000006e+00 -1.4460133875000000e+01 -512 -512 -512
98 1 3.9436728749999999e+00 -6.5727881249999998e+00 -1.4460133875000000e+01 -512 -512 -512
99 1 3.9436728749999999e+00 -9.2019033750000006e+00 -1.1831018624999999e+01 -512 -512 -512
100 1 1.3145576250000000e+00 -6.5727881249999998e+00 -1.1831018624999999e+01 -512 -512 -512
101 1 6.5727881249999998e+00 -9.2019033750000006e+00 -1.4460133875000000e+01 -512 -512 -512
102 1 9.2019033750000006e+00 -6.5727881249999998e+00 -1.4460133875000000e+01 -512 -512 -512
103 1 9.2019033750000006e+00 -9.2019033750000006e+00 -1.1831018624999999e+01 -512 -512 -512
104 1 6.5727881249999998e+00 -6.5727881249999998e+00 -1.1831018624999999e+01 -512 -512 -512
105 1 1.1831018624999999e+01 -9.2019033750000006e+00 -1.4460133875000000e+01 -512 -512 -512
106 1 1.4460133875000000e+01 -6.5727881249999998e+00 -1.4460133875000000e+01 -512 -512 -512
107 1 1.4460133875000000e+01 -9.2019033750000006e+00 -1.1831018624999999e+01 -512 -512 -512
108 1 1.1831018624999999e+01 -6.5727881249999998e+00 -1.1831018624999999e+01 -512 -512 -512
109 1 1.7089249124999998e+01 -9.2019033750000006e+00 -1.4460133875000000e+01 -512 -512 -512
110 1 1.9718364375000000e+01 -6.5727881249999998e+00 -1.4460133875000000e+01 -512 -512 -512
111 1 1.9718364375000000e+01 -9.2019033750000006e+00 -1.1831018624999999e+01 -512 -512 -512
112 1 1.7089249124999998e+01 -6.5727881249999998e+00 -1.1831018624999999e+01 -512 -512 -512
113 1 2.2347479624999998e+01 -9.2019033750000006e+00 -1.4460133875000000e+01 -512 -512 -512
114 1 2.4976594874999996e+01 -6.5727881249999998e+00 -1.4460133875000000e+01 -512 -512 -512
115 1 2.4976594874999996e+01 -9.2019033750000006e+00 -1.1831018624999999e+01 -512 -512 -512
116 1 2.2347479624999998e+01 -6.5727881249999998e+00 -1.1831018624999999e+01 -512 -512 -512
117 1 2.7605710124999998e+01 -9.2019033750000006e+00 -1.4460133875000000e+01 -512 -512 -512
118 1 3.0234825375000000e+01 -6.5727881249999998e+00 -1.4460133875000000e+01 -512 -512 -512
119 1 3.0234825375000000e+01 -9.2019033750000006e+00 -1.1831018624999999e+01 -512 -512 -512
120 1 2.7605710124999998e+01 -6.5727881249999998e+00 -1.1831018624999999e+01 -512 -512 -512
121 1 3.2863940624999998e+01 -9.2019033750000006e+00 -1.4460133875000000e+01 -512 -512 -512
122 1 3.5493055874999996e+01 -6.5727881249999998e+00 -1.4460133875000000e+01 -512 -512 -512
123 1 3.5493055874999996e+01 -9.2019033750000006e+00 -1.1831018624999999e+01 -512 -512 -512
124 1 3.2863940624999998e+01 -6.5727881249999998e+00 -1.1831018624999999e+01 -512 -512 -512
125 1 3.8122171125000001e+01 -9.2019033750000006e+00 -1.4460133875000000e+01 -512 -512 -512
126 1 4.0751286374999999e+01 -6.5727881249999998e+00 -1.4460133875000000e+01 -512 -512 -512
127 1 4.0751286374999999e+01 -9.2019033750000006e+00 -1.1831018624999999e+01 -512 -512 -512
128 1 3.8122171125000001e+01 -6.5727881249999998e+00 -1.1831018624999999e+01 -512 -512 -512
129 1 -4.0751286374999999e+01 -3.9436728749999999e+00 -1.4460133875000000e+01 -512 -512 -512
130 1 -3.8122171125000001e+01 -1.3145576250000000e+00 -1.4460133875000000e+01 -512 -512 -512
131 1 -3.8122171125000001e+01 -3.9436728749999999e+00 -1.1831018624999999e+01 -512 -512 -512
132 1 -4.0751286374999999e+01 -1.3145576250000000e+00 -1.1831018624999999e+01 -512 -512 -512
133 1 -3.5493055875000003e+01 -3.9436728749999999e+00 -1.4460133875000000e+01 -512 -512 -512
134 1 -3.2863940624999998e+01 -1.3145576250000000e+00 -1.4460133875000000e+01 -512 -512 -512
135 1 -3.2863940624999998e+01 -3.9436728749999999e+00 -1.1831018624999999e+01 -512 -512 -512
136 1 -3.5493055875000003e+01 -1.3145576250000000e+00 -1.1831018624999999e+01 -512 -512 -512
137 1 -3.0234825375000000e+01 -3.9436728749999999e+00 -1.4460133875000000e+01 -512 -512 -512
138 1 -2.7605710125000002e+01 -1.3145576250000000e+00 -1.4460133875000000e+01 -512 -512 -512
139 1 -2.7605710125000002e+01 -3.9436728749999999e+00 -1.1831018624999999e+01 -512 -512 -512
140 1 -3.0234825375000000e+01 -1.3145576250000000e+00 -1.1831018624999999e+01 -512 -512 -512
141 1 -2.4976594875000000e+01 -3.9436728749999999e+00 -1.4460133875000000e+01 -512 -512 -512
142 1 -2.2347479624999998e+01 -1.3145576250000000e+00 -1.4460133875000000e+01 -512 -512 -512
143 1 -2.2347479624999998e+01 -3.9436728749999999e+00 -1.1831018624999999e+01 -512 -512 -512
144 1 -2.4976594875000000e+01 -1.3145576250000000e+00 -1.1831018624999999e+01 -512 -512 -512
145 1 -1.9718364375000000e+01 -3.9436728749999999e+00 -1.4460133875000000e+01 -512 -512 -512
146 1 -1.7089249125000002e+01 -1.3145576250000000e+00 -1.4460133875000000e+01 -512 -512 -512
147 1 -1.7089249125000002e+01 -3.9436728749999999e+00 -1.1831018624999999e+01 -512 -512 -512
148 1 -1.9718364375000000e+01 -1.3145576250000000e+00 -1.1831018624999999e+01 -512 -512 -512
149 1 -1.4460133875000000e+01 -3.9436728749999999e+00 -1.4460133875000000e+01 -512 -512 -512
150 1 -1.1831018624999999e+01 -1.3145576250000000e+00 -1.4460133875000000e+01 -512 -512 -512
151 1 -1.1831018624999999e+01 -3.9436728749999999e+00 -1.1831018624999999e+01 -512 -512 -512
152 1 -1.4460133875000000e+01 -1.3145576250000000e+00 -1.1831018624999999e+01 -512 -512 -512
153 1 -9.2019033750000006e+00 -3.9436728749999999e+00 -1.4460133875000000e+01 -512 -512 -512
154 1 -6.5727881249999998e+00 -1.3145576250000000e+00 -1.4460133875000000e+01 -512 -512 -512
155 1 -6.5727881249999998e+00 -3.9436728749999999e+00 -1.1831018624999999e+01 -512 -512 -512
156 1 -9.2019033750000006e+00 -1.3145576250000000e+00 -1.1831018624999999e+01 -512 -512 -512
157 1 -3.9436728749999999e+00 -3.9436728749999999e+00 -1.4460133875000000e+01 -512 -512 -512
158 1 -1.3145576250000000e+00 -1.3145576250000000e+00 -1.4460133875000000e+01 -512 -512 -512
159 1 -1.3145576250000000e+00 -3.9436728749999999e+00 -1.1831018624999999e+01 -512 -512 -512
160 1 -3.9436728749999999e+00 -1.3145576250000000e+00 -1.1831018624999999e+01 -512 -512 -512
161 1 1.3145576250000000e+00 -3.9436728749999999e+00 -1.4460133875000000e+01 -512 -512 -512
162 1 3.9436728749999999e+00 -1.3145576250000000e+00 -1.4460133875000000e+01 -512 -512 -512
163 1 3.9436728749999999e+00 -3.9436728749999999e+00 -1.1831018624999999e+01 -512 -512 -512
164 1 1.3145576250000000e+00 -1.3145576250000000e+00 -1.1831018624999999e+01 -512 -512 -512
165 1 6.5727881249999998e+00 -3.9436728749999999e+00 -1.4460133875000000e+01 -512 -512 -512
166 1 9.2019033750000006e+00 -1.3145576250000000e+00 -1.4460133875000000e+01 -512 -512 -512
167 1 9.2019033750000006e+00 -3.9436728749999999e+00 -1.1831018624999999e+01 -512 -512 -512
168 1 6.5727881249999998e+00 -1.3145576250000000e+00 -1.1831018624999999e+01 -512 -512 -512
169 1 1.1831018624999999e+01 -3.9436728749999999e+00 -1.4460133875000000e+01 -512 -512 -512
170 1 1.4460133875000000e+01 -1.3145576250000000e+00 -1.4460133875000000e+01 -512 -512 -512
171 1 1.4460133875000000e+01 -3.9436728749999999e+00 -1.1831018624999999e+01 -512 -512 -512
172 1 1.1831018624999999e+01 -1.3145576250000000e+00 -1.1831018624999999e+01 -512 -512 -512
173 1 1.7089249124999998e+01 -3.9436728749999999e+00 -1.4460133875000000e+01 -512 -512 -512
174 1 1.9718364375000000e+01 -1.3145576250000000e+00 -1.4460133875000000e+01 -512 -512 -512
175 1 1.9718364375000000e+01 -3.9436728749999999e+00 -1.1831018624999999e+01 -512 -512 -512
176 1 1.7089249124999998e+01 -1.3145576250000000e+00 -1.1831018624999999e+01 -512 -512 -512
177 1 2.2347479624999998e+01 -3.9436728749999999e+00 -1.4460133875000000e+01 -512 -512 -512
178 1 2.4976594874999996e+01 -1.3145576250000000e+00 -1.4460133875000000e+01 -512 -512 -512
179 1 2.4976594874999996e+01 -3.9436728749999999e+00 -1.1831018624999999e+01 -512 -512 -512
180 1 2.2347479624999998e+01 -1.3145576250000000e+00 -1.1831018624999999e+01 -512 -512 -512
181 1 2.7605710124999998e+01 -3.9436728749999999e+00 -1.4460133875000000e+01 -512 -512 -512
182 1 3.0234825375000000e+01 -1.3145576250000000e+00 -1.4460133875000000e+01 -512 -512 -512
183 1 3.0234825375000000e+01 -3.9436728749999999e+00 -1.1831018624999999e+01 -512 -512 -512
184 1 2.7605710124999998e+01 -1.3145576250000000e+00 -1.1831018624999999e+01 -512 -512 -512
185 1 3.2863940624999998e+01 -3.9436728749999999e+00 -1.4460133875000000e+01 -512 -512 -512
186 1 3.5493055874999996e+01 -1.3145576250000000e+00 -1.4460133875000000e+01 -512 -512 -512
187 1 3.5493055874999996e+01 -3.9436728749999999e+00 -1.1831018624999999e+01 -512 -512 -512
188 1 3.2863940624999998e+01 -1.3145576250000000e+00 -1.1831018624999999e+01 -512 -512 -512
189 1 3.8122171125000001e+01 -3.9436728749999999e+00 -1.4460133875000000e+01 -512 -512 -512
190 1 4.0751286374999999e+01 -1.3145576250000000e+00 -1.4460133875000000e+01 -512 -512 -512
191 1 4.0751286374999999e+01 -3.9436728749999999e+00 -1.1831018624999999e+01 -512 -512 -512
192 1 3.8122171125000001e+01 -1.3145576250000000e+00 -1.1831018624999999e+01 -512 -512 -512
193 1 -4.0751286374999999e+01 1.3145576250000000e+00 -1.4460133875000000e+01 -512 -512 -512
194 1 -3.8122171125000001e+01 3.9436728749999999e+00 -1.4460133875000000e+01 -512 -512 -512
195 1 -3.8122171125000001e+01 1.3145576250000000e+00 -1.1831018624999999e+01 -512 -512 -512
196 1 -4.0751286374999999e+01 3.9436728749999999e+00 -1.1831018624999999e+01 -512 -512 -512
197 1 -3.5493055875000003e+01 1.3145576250000000e+00 -1.4460133875000000e+01 -512 -512 -512
198 1 -3.2863940624999998e+01 3.9436728749999999e+00 -1.4460133875000000e+01 -512 -512 -512
199 1 -3.2863940624999998e+01 1.3145576250000000e+00 -1.1831018624999999e+01 -512 -512 -512
200 1 -3.5493055875000003e+01 3.9436728749999999e+00 -1.1831018624999999e+01 -512 -512 -512
201 1 -3.0234825375000000e+01 1.3145576250000000e+00 -1.4460133875000000e+01 -512 -512 -512
202 1 -2.7605710125000002e+01 3.9436728749999999e+00 -1.4460133875000000e+01 -512 -512 -512
203 1 -2.7605710125000002e+01 1.3145576250000000e+00 -1.1831018624999999e+01 -512 -512 -512
204 1 -3.0234825375000000e+01 3.9436728749999999e+00 -1.1831018624999999e+01 -512 -512 -512
205 1 -2.4976594875000000e+01 1.3145576250000000e+00 -1.4460133875000000e+01 -512 -512 -512
206 1 -2.2347479624999998e+01 3.9436728749999999e+00 -1.4460133875000000e+01 -512 -512 -512
207 1 -2.2347479624999998e+01 1.3145576250000000e+00 -1.1831018624999999e+01 -512 -512 -512
208 1 -2.4976594875000000e+01 3.9436728749999999e+00 -1.1831018624999999e+01 -512 -512 -512
209 1 -1.9718364375000000e+01 1.3145576250000000e+00 -1.4460133875000000e+01 -512 -512 -512
210 1 -1.7089249125000002e+01 3.9436728749999999e+00 -1.4460133875000000e+01 -512 -512 -512
211 1 -1.7089249125000002e+01 1.3145576250000000e+00 -1.1831018624999999e+01 -512 -512 -512
212 1 -1.9718364375000000e+01 3.9436728749999999e+00 -1.1831018624999999e+01 -512 -512 -512
213 1 -1.4460133875000000e+01 1.3145576250000000e+00 -1.4460133875000000e+01 -512 -512 -512
214 1 -1.1831018624999999e+01 3.9436728749999999e+00 -1.4460133875000000e+01 -512 -512 -512
215 1 -1.1831018624999999e+01 1.3145576250000000e+00 -1.1831018624999999e+01 -512 -512 -512
216 1 -1.4460133875000000e+01 3.9436728749999999e+00 -1.1831018624999999e+01 -512 -512 -512
217 1 -9.2019033750000006e+00 1.3145576250000000e+00 -1.4460133875000000e+01 -512 -512 -512
218 1 -6.5727881249999998e+00 3.9436728749999999e+00 -1.4460133875000000e+01 -512 -512 -512
219 1 -6.5727881249999998e+00 1.3145576250000000e+00 -1.1831018624999999e+01 -512 -512 -512
220 1 -9.2019033750000006e+00 3.9436728749999999e+00 -1.1831018624999999e+01 -512 -512 -512
221 1 -3.9436728749999999e+00 1.3145576250000000e+00 -1.4460133875000000e+01 -512 -512 -512
222 1 -1.3145576250000000e+00 3.9436728749999999e+00 -1.4460133875000000e+01 -512 -512 -512
223 1 -1.3145576250000000e+00 1.3145576250000000e+00 -1.1831018624999999e+01 -512 -512 -512
224 1 -3.9436728749999999e+00 3.9436728749999999e+00 -1.1831018624999999e+01 -512 -512 -512
225 1 1.3145576250000000e+00 1.3145576250000000e+00 -1.4460133875000000e+01 -512 -512 -512
226 1 3.9436728749999999e+00 3.9436728749999999e+00 -1.4460133875000000e+01 -512 -512 -512
227 1 3.9436728749999999e+00 1.3145576250000000e+00 -1.1831018624999999e+01 -512 -512 -512
228 1 1.3145576250000000e+00 3.9436728749999999e+00 -1.1831018624999999e+01 -512 -512 -512
229 1 6.5727881249999998e+00 1.3145576250000000e+00 -1.4460133875000000e+01 -512 -512 -512
230 1 9.2019033750000006e+00 3.9436728749999999e+00 -1.4460133875000000e+01 -512 -512 -512
231 1 9.2019033750000006e+00 1.3145576250000000e+00 -1.1831018624999999e+01 -512 -512 -512
232 1 6.5727881249999998e+00 3.9436728749999999e+00 -1.1831018624999999e+01 -512 -512 -512
233 1 1.1831018624999999e+01 1.3145576250000000e+00 -1.4460133875000000e+01 -512 -512 -512
234 1 1.4460133875000000e+01 3.9436728749999999e+00 -1.4460133875000000e+01 -512 -512 -512
235 1 1.4460133875000000e+01 1.3145576250000000e+00 -1.1831018624999999e+01 -512 -512 -512
236 1 1.1831018624999999e+01 3.9436728749999999e+00 -1.1831018624999999e+01 -512 -512 -512
237 1 1.7089249124999998e+01 1.3145576250000000e+00 -1.4460133875000000e+01 -512 -512 -512
238 1 1.9718364375000000e+01 3.9436728749999999e+00 -1.4460133875000000e+01 -512 -512 -512
239 1 1.9718364375000000e+01 1.3145576250000000e+00 -1.1831018624999999e+01 -512 -512 -512
240 1 1.7089249124999998e+01 3.9436728749999999e+00 -1.1831018624999999e+01 -512 -512 -512
241 1 2.2347479624999998e+01 1.3145576250000000e+00 -1.4460133875000000e+01 -512 -512 -512
242 1 2.4976594874999996e+01 3.9436728749999999e+00 -1.4460133875000000e+01 -512 -512 -512
243 1 2.4976594874999996e+01 1.3145576250000000e+00 -1.1831018624999999e+01 -512 -512 -512
244 1 2.2347479624999998e+01 3.9436728749999999e+00 -1.1831018624999999e+01 -512 -512 -512
245 1 2.7605710124999998e+01 1.3145576250000000e+00 -1.4460133875000000e+01 -512 -512 -512
246 1 3.0234825375000000e+01 3.9436728749999999e+00 -1.4460133875000000e+01 -512 -512 -512
247 1 3.0234825375000000e+01 1.3145576250000000e+00 -1.1831018624999999e+01 -512 -512 -512
248 1 2.7605710124999998e+01 3.9436728749999999e+00 -1.1831018624999999e+01 -512 -512 -512
249 1 3.2863940624999998e+01 1.3145576250000000e+00 -1.4460133875000000e+01 -512 -512 -512
250 1 3.5493055874999996e+01 3.9436728749999999e+00 -1.4460133875000000e+01 -512 -512 -512
251 1 3.5493055874999996e+01 1.3145576250000000e+00 -1.1831018624999999e+01 -512 -512 -512
252 1 3.2863940624999998e+01 3.9436728749999999e+00 -1.1831018624999999e+01 -512 -512 -512
253 1 3.8122171125000001e+01 1.3145576250000000e+00 -1.4460133875000000e+01 -512 -512 -512
254 1 4.0751286374999999e+01 3.9436728749999999e+00 -1.4460133875000000e+01 -512 -512 -512
255 1 4.0751286374999999e+01 1.3145576250000000e+00 -1.1831018624999999e+01 -512 -512 -512
256 1 3.8122171125000001e+01 3.9436728749999999e+00 -1.1831018624999999e+01 -512 -512 -512
257 1 -4.0751286374999999e+01 6.5727881249999998e+00 -1.4460133875000000e+01 -512 -512 -512
258 1 -3.8122171125000001e+01 9.2019033750000006e+00 -1.4460133875000000e+01 -512 -512 -512
259 1 -3.8122171125000001e+01 6.5727881249999998e+00 -1.1831018624999999e+01 -512 -512 -512
260 1 -4.0751286374999999e+01 9.2019033750000006e+00 -1.1831018624999999e+01 -512 -512 -512
261 1 -3.5493055875000003e+01 6.5727881249999998e+00 -1.4460133875000000e+01 -512 -512 -512
262 1 -3.2863940624999998e+01 9.2019033750000006e+00 -1.4460133875000000e+01 -512 -512 -512
263 1 -3.2863940624999998e+01 6.5727881249999998e+00 -1.1831018624999999e+01 -512 -512 -512
264 1 -3.5493055875000003e+01 9.2019033750000006e+00 -1.1831018624999999e+01 -512 -512 -512
265 1 -3.0234825375000000e+01 6.5727881249999998e+00 -1.4460133875000000e+01 -512 -512 -512
266 1 -2.7605710125000002e+01 9.2019033750000006e+00 -1.4460133875000000e+01 -512 -512 -512
267 1 -2.7605710125000002e+01 6.5727881249999998e+00 -1.1831018624999999e+01 -512 -512 -512
268 1 -3.0234825375000000e+01 9.2019033750000006e+00 -1.1831018624999999e+01 -512 -512 -512
269 1 -2.4976594875000000e+01 6.5727881249999998e+00 -1.4460133875000000e+01 -512 -512 -512
270 1 -2.2347479624999998e+01 9.2019033750000006e+00 -1.4460133875000000e+01 -512 -512 -512
271 1 -2.2347479624999998e+01 6.5727881249999998e+00 -1.1831018624999999e+01 -512 -512 -512
272 1 -2.4976594875000000e+01 9.2019033750000006e+00 -1.1831018624999999e+01 -512 -512 -512
273 1 -1.9718364375000000e+01 6.5727881249999998e+00 -1.4460133875000000e+01 -512 -512 -512
274 1 -1.7089249125000002e+01 9.2019033750000006e+00 -1.4460133875000000e+01 -512 -512 -512
275 1 -1.7089249125000002e+01 6.5727881249999998e+00 -1.1831018624999999e+01 -512 -512 -512
276 1 -1.9718364375000000e+01 9.2019033750000006e+00 -1.1831018624999999e+01 -512 -512 -512
277 1 -1.4460133875000000e+01 6.5727881249999998e+00 -1.4460133875000000e+01 -512 -512 -512
278 1 -1.1831018624999999e+01 9.2019033750000006e+00 -1.4460133875000000e+01 -512 -512 -512
279 1 -1.1831018624999999e+01 6.5727881249999998e+00 -1.1831018624999999e+01 -512 -512 -512
280 1 -1.4460133875000000e+01 9.2019033750000006e+00 -1.1831018624999999e+01 -512 -512 -512
281 1 -9.2019033750000006e+00 6.5727881249999998e+00 -1.4460133875000000e+01 -512 -512 -512
282 1 -6.5727881249999998e+00 9.2019033750000006e+00 -1.4460133875000000e+01 -512 -512 -512
283 1 -6.5727881249999998e+00 6.5727881249999998e+00 -1.1831018624999999e+01 -512 -512 -512
284 1 -9.2019033750000006e+00 9.2019033750000006e+00 -1.1831018624999999e+01 -512 -512 -512
285 1 -3.9436728749999999e+00 6.5727881249999998e+00 -1.4460133875000000e+01 -512 -512 -512
286 1 -1.3145576250000000e+00 9.2019033750000006e+00 -1.4460133875000000e+01 -512 -512 -512
287 1 -1.3145576250000000e+00 6.5727881249999998e+00 -1.1831018624999999e+01 -512 -512 -512
288 1 -3.9436728749999999e+00 9.2019033750000006e+00 -1.1831018624999999e+01 -512 -512 -512
289 1 1.3145576250000000e+00 6.5727881249999998e+00 -1.4460133875000000e+01 -512 -512 -512
290 1 3.9436728749999999e+00 9.2019033750000006e+00 -1.4460133875000000e+01 -512 -512 -512
291 1 3.9436728749999999e+00 6.5727881249999998e+00 -1.1831018624999999e+01 -512 -512 -512
292 1 1.3145576250000000e+00 9.2019033750000006e+00 -1.1831018624999999e+01 -512 -512 -512
293 1 6.5727881249999998e+00 6.5727881249999998e+00 -1.4460133875000000e+01 -512 -512 -512
294 1 9.2019033750000006e+00 9.2019033750000006e+00 -1.4460133875000000e+01 -512 -512 -512
295 1 9.2019033750000006e+00 6.5727881249999998e+00 -1.1831018624999999e+01 -512 -512 -512
296 1 6.5727881249999998e+00 9.2019033750000006e+00 -1.1831018624999999e+01 -512 -512 -512
297 1 1.1831018624999999e+01 6.5727881249999998e+00 -1.4460133875000000e+01 -512 -512 -512
298 1 1.4460133875000000e+01 9.2019033750000006e+00 -1.4460133875000000e+01 -512 -512 -512
299 1 1.4460133875000000e+01 6.5727881249999998e+00 -1.1831018624999999e+01 -512 -512 -512
300 1 1.1831018624999999e+01 9.2019033750000006e+00 -1.1831018624999999e+01 -512 -512 -512
301 1 1.7089249124999998e+01 6.5727881249999998e+00 -1.4460133875000000e+01 -512 -512 -512
302 1 1.9718364375000000e+01 9.2019033750000006e+00 -1.4460133875000000e+01 -512 -512 -512
303 1 1.9718364375000000e+01 6.5727881249999998e+00 -1.1831018624999999e+01 -512 -512 -512
304 1 1.7089249124999998e+01 9.2019033750000006e+00 -1.1831018624999999e+01 -512 -512 -512
305 1 2.2347479624999998e+01 6.5727881249999998e+00 -1.4460133875000000e+01 -512 -512 -512
306 1 2.4976594874999996e+01 9.2019033750000006e+00 -1.4460133875000000e+01 -512 -512 -512
307 1 2.4976594874999996e+01 6.5727881249999998e+00 -1.1831018624999999e+01 -512 -512 -512
308 1 2.2347479624999998e+01 9.2019033750000006e+00 -1.1831018624999999e+01 -512 -512 -512
309 1 2.7605710124999998e+01 6.5727881249999998e+00 -1.4460133875000000e+01 -512 -512 -512
310 1 3.0234825375000000e+01 9.2019033750000006e+00 -1.4460133875000000e+01 -512 -512 -512
311 1 3.0234825375000000e+01 6.5727881249999998e+00 -1.1831018624999999e+01 -512 -512 -512
312 1 2.7605710124999998e+01 9.2019033750000006e+00 -1.1831018624999999e+01 -512 -512 -512
313 1 3.2863940624999998e+01 6.5727881249999998e+00 -1.4460133875000000e+01 -512 -512 -512
314 1 3.5493055874999996e+01 9.2019033750000006e+00 -1.4460133875000000e+01 -512 -512 -512
315 1 3.5493055874999996e+01 6.5727881249999998e+00 -1.1831018624999999e+01 -512 -512 -512
316 1 3.2863940624999998e+01 9.2019033750000006e+00 -1.1831018624999999e+01 -512 -512 -512
317 1 3.8122171125000001e+01 6.5727881249999998e+00 -1.4460133875000000e+01 -512 -512 -512
318 1 4.0751286374999999e+01 9.2019033750000006e+00 -1.4460133875000000e+01 -512 -512 -512
319 1 4.0751286374999999e+01 6.5727881249999998e+00 -1.1831018624999999e+01 -512 -512 -512
320 1 3.8122171125000001e+01 9.2019033750000006e+00 -1.1831018624999999e+01 -512 -512 -512
321 1 -4.0751286374999999e+01 1.1831018624999999e+01 -1.4460133875000000e+01 -512 -512 -512
322 1 -3.8122171125000001e+01 1.4460133875000000e+01 -1.4460133875000000e+01 -512 -512 -512
323 1 -3.8122171125000001e+01 1.1831018624999999e+01 -1.1831018624999999e+01 -512 -512 -512