ITEM: TIMESTEP
0          0
ITEM: NUMBER OF ATOMS
2500
ITEM: BOX BOUNDS
0 50
0 50
-0.5 0.5
ITEM: ATOMS id type x y z
1 43 0 0 0 
2 56 1 0 0 
3 4 2 0 0 
4 49 3 0 0 
5 47 4 0 0 
6 53 5 0 0 
7 59 6 0 0 
8 71 7 0 0 
9 29 8 0 0 
10 99 9 0 0 
11 61 10 0 0 
12 17 11 0 0 
13 47 12 0 0 
14 10 13 0 0 
15 66 14 0 0 
16 59 15 0 0 
17 57 16 0 0 
18 9 17 0 0 
19 96 18 0 0 
20 71 19 0 0 
21 98 20 0 0 
22 49 21 0 0 
23 17 22 0 0 
24 65 23 0 0 
25 4 24 0 0 
51 90 0 1 0 
52 70 1 1 0 
53 92 2 1 0 
54 94 3 1 0 
55 94 4 1 0 
56 9 5 1 0 
57 33 6 1 0 
58 14 7 1 0 
59 51 8 1 0 
60 16 9 1 0 
61 61 10 1 0 
62 6 11 1 0 
63 76 12 1 0 
64 49 13 1 0 
65 55 14 1 0 
66 64 15 1 0 
67 30 16 1 0 
68 72 17 1 0 
69 52 18 1 0 
70 68 19 1 0 
71 9 20 1 0 
72 43 21 1 0 
73 83 22 1 0 
74 17 23 1 0 
75 53 24 1 0 
101 91 0 2 0 
102 24 1 2 0 
103 16 2 2 0 
104 85 3 2 0 
105 12 4 2 0 
106 1 5 2 0 
107 4 6 2 0 
108 65 7 2 0 
109 36 8 2 0 
110 97 9 2 0 
111 41 10 2 0 
112 96 11 2 0 
113 33 12 2 0 
114 55 13 2 0 
115 17 14 2 0 
116 5 15 2 0 
117 13 16 2 0 
118 97 17 2 0 
119 36 18 2 0 
120 86 19 2 0 
121 4 20 2 0 
122 26 21 2 0 
123 25 22 2 0 
124 11 23 2 0 
125 57 24 2 0 
151 78 0 3 0 
152 58 1 3 0 
153 58 2 3 0 
154 49 3 3 0 
155 21 4 3 0 
156 54 5 3 0 
157 73 6 3 0 
158 43 7 3 0 
159 50 8 3 0 
160 85 9 3 0 
161 81 10 3 0 
162 84 11 3 0 
163 25 12 3 0 
164 91 13 3 0 
165 97 14 3 0 
166 98 15 3 0 
167 20 16 3 0 
168 98 17 3 0 
169 18 18 3 0 
170 5 19 3 0 
171 14 20 3 0 
172 59 21 3 0 
173 30 22 3 0 
174 89 23 3 0 
175 41 24 3 0 
201 6 0 4 0 
202 39 1 4 0 
203 39 2 4 0 
204 8 3 4 0 
205 52 4 4 0 
206 19 5 4 0 
207 33 6 4 0 
208 73 7 4 0 
209 79 8 4 0 
210 60 9 4 0 
211 26 10 4 0 
212 1 11 4 0 
213 53 12 4 0 
214 75 13 4 0 
215 24 14 4 0 
216 47 15 4 0 
217 69 16 4 0 
218 9 17 4 0 
219 78 18 4 0 
220 48 19 4 0 
221 85 20 4 0 
222 97 21 4 0 
223 89 22 4 0 
224 60 23 4 0 
225 86 24 4 0 
251 17 0 5 0 
252 41 1 5 0 
253 56 2 5 0 
254 42 3 5 0 
255 5 4 5 0 
256 73 5 5 0 
257 61 6 5 0 
258 89 7 5 0 
259 56 8 5 0 
260 100 9 5 0 
261 27 10 5 0 
262 21 11 5 0 
263 92 12 5 0 
264 55 13 5 0 
265 59 14 5 0 
266 65 15 5 0 
267 81 16 5 0 
268 25 17 5 0 
269 45 18 5 0 
270 81 19 5 0 
271 12 20 5 0 
272 31 21 5 0 
273 70 22 5 0 
274 41 23 5 0 
275 64 24 5 0 
301 74 0 6 0 
302 95 1 6 0 
303 40 2 6 0 
304 85 3 6 0 
305 44 4 6 0 
306 69 5 6 0 
307 17 6 6 0 
308 92 7 6 0 
309 1 8 6 0 
310 21 9 6 0 
311 2 10 6 0 
312 29 11 6 0 
313 19 12 6 0 
314 81 13 6 0 
315 14 14 6 0 
316 6 15 6 0 
317 11 16 6 0 
318 65 17 6 0 
319 7 18 6 0 
320 27 19 6 0 
321 51 20 6 0 
322 72 21 6 0 
323 24 22 6 0 
324 6 23 6 0 
325 35 24 6 0 
351 26 0 7 0 
352 4 1 7 0 
353 87 2 7 0 
354 70 3 7 0 
355 58 4 7 0 
356 4 5 7 0 
357 90 6 7 0 
358 3 7 7 0 
359 76 8 7 0 
360 8 9 7 0 
361 36 10 7 0 
362 65 11 7 0 
363 47 12 7 0 
364 9 13 7 0 
365 32 14 7 0 
366 30 15 7 0 
367 61 16 7 0 
368 21 17 7 0 
369 3 18 7 0 
370 69 19 7 0 
371 93 20 7 0 
372 45 21 7 0 
373 47 22 7 0 
374 71 23 7 0 
375 29 24 7 0 
401 21 0 8 0 
402 42 1 8 0 
403 60 2 8 0 
404 2 3 8 0 
405 33 4 8 0 
406 50 5 8 0 
407 14 6 8 0 
408 26 7 8 0 
409 93 8 8 0 
410 42 9 8 0 
411 58 10 8 0 
412 42 11 8 0 
413 24 12 8 0 
414 27 13 8 0 
415 67 14 8 0 
416 60 15 8 0 
417 56 16 8 0 
418 90 17 8 0 
419 14 18 8 0 
420 80 19 8 0 
421 68 20 8 0 
422 58 21 8 0 
423 24 22 8 0 
424 17 23 8 0 
425 39 24 8 0 
451 99 0 9 0 
452 38 1 9 0 
453 82 2 9 0 
454 42 3 9 0 
455 98 4 9 0 
456 37 5 9 0 
457 61 6 9 0 
458 56 7 9 0 
459 24 8 9 0 
460 100 9 9 0 
461 8 10 9 0 
462 66 11 9 0 
463 32 12 9 0 
464 71 13 9 0 
465 35 14 9 0 
466 85 15 9 0 
467 97 16 9 0 
468 6 17 9 0 
469 46 18 9 0 
470 37 19 9 0 
471 82 20 9 0 
472 67 21 9 0 
473 11 22 9 0 
474 59 23 9 0 
475 72 24 9 0 
501 74 0 10 0 
502 31 1 10 0 
503 100 2 10 0 
504 19 3 10 0 
505 41 4 10 0 
506 11 5 10 0 
507 51 6 10 0 
508 41 7 10 0 
509 89 8 10 0 
510 24 9 10 0 
511 4 10 10 0 
512 44 11 10 0 
513 82 12 10 0 
514 24 13 10 0 
515 21 14 10 0 
516 74 15 10 0 
517 23 16 10 0 
518 36 17 10 0 
519 80 18 10 0 
520 70 19 10 0 
521 94 20 10 0 
522 69 21 10 0 
523 74 22 10 0 
524 23 23 10 0 
525 24 24 10 0 
551 100 0 11 0 
552 60 1 11 0 
553 86 2 11 0 
554 2 3 11 0 
555 25 4 11 0 
556 79 5 11 0 
557 18 6 11 0 
558 63 7 11 0 
559 5 8 11 0 
560 94 9 11 0 
561 23 10 11 0 
562 15 11 11 0 
563 27 12 11 0 
564 5 13 11 0 
565 54 14 11 0 
566 32 15 11 0 
567 74 16 11 0 
568 3 17 11 0 
569 58 18 11 0 
570 82 19 11 0 
571 37 20 11 0 
572 78 21 11 0 
573 70 22 11 0 
574 77 23 11 0 
575 60 24 11 0 
601 47 0 12 0 
602 73 1 12 0 
603 95 2 12 0 
604 91 3 12 0 
605 9 4 12 0 
606 4 5 12 0 
607 14 6 12 0 
608 72 7 12 0 
609 28 8 12 0 
610 38 9 12 0 
611 25 10 12 0 
612 43 11 12 0 
613 10 12 12 0 
614 96 13 12 0 
615 23 14 12 0 
616 95 15 12 0 
617 40 16 12 0 
618 72 17 12 0 
619 82 18 12 0 
620 64 19 12 0 
621 98 20 12 0 
622 77 21 12 0 
623 63 22 12 0 
624 69 23 12 0 
625 95 24 12 0 
651 100 0 13 0 
652 20 1 13 0 
653 29 2 13 0 
654 31 3 13 0 
655 43 4 13 0 
656 2 5 13 0 
657 68 6 13 0 
658 71 7 13 0 
659 25 8 13 0 
660 61 9 13 0 
661 55 10 13 0 
662 21 11 13 0 
663 17 12 13 0 
664 83 13 13 0 
665 1 14 13 0 
666 31 15 13 0 
667 27 16 13 0 
668 96 17 13 0 
669 13 18 13 0 
670 60 19 13 0 
671 73 20 13 0 
672 95 21 13 0 
673 91 22 13 0 
674 5 23 13 0 
675 43 24 13 0 
701 46 0 14 0 
702 78 1 14 0 
703 26 2 14 0 
704 9 3 14 0 
705 47 4 14 0 
706 67 5 14 0 
707 4 6 14 0 
708 61 7 14 0 
709 37 8 14 0 
710 99 9 14 0 
711 88 10 14 0 
712 56 11 14 0 
713 24 12 14 0 
714 44 13 14 0 
715 40 14 14 0 
716 92 15 14 0 
717 68 16 14 0 
718 16 17 14 0 
719 37 18 14 0 
720 60 19 14 0 
721 92 20 14 0 
722 51 21 14 0 
723 82 22 14 0 
724 18 23 14 0 
725 18 24 14 0 
751 7 0 15 0 
752 74 1 15 0 
753 98 2 15 0 
754 78 3 15 0 
755 78 4 15 0 
756 8 5 15 0 
757 37 6 15 0 
758 98 7 15 0 
759 68 8 15 0 
760 22 9 15 0 
761 63 10 15 0 
762 71 11 15 0 
763 49 12 15 0 
764 69 13 15 0 
765 10 14 15 0 
766 3 15 15 0 
767 66 16 15 0 
768 84 17 15 0 
769 8 18 15 0 
770 9 19 15 0 
771 60 20 15 0 
772 99 21 15 0 
773 7 22 15 0 
774 51 23 15 0 
775 44 24 15 0 
801 24 0 16 0 
802 3 1 16 0 
803 54 2 16 0 
804 83 3 16 0 
805 17 4 16 0 
806 91 5 16 0 
807 91 6 16 0 
808 26 7 16 0 
809 45 8 16 0 
810 99 9 16 0 
811 23 10 16 0 
812 92 11 16 0 
813 95 12 16 0 
814 13 13 16 0 
815 34 14 16 0 
816 69 15 16 0 
817 72 16 16 0 
818 52 17 16 0 
819 97 18 16 0 
820 46 19 16 0 
821 20 20 16 0 
822 55 21 16 0 
823 82 22 16 0 
824 93 23 16 0 
825 50 24 16 0 
851 21 0 17 0 
852 86 1 17 0 
853 92 2 17 0 
854 55 3 17 0 
855 72 4 17 0 
856 58 5 17 0 
857 95 6 17 0 
858 81 7 17 0 
859 86 8 17 0 
860 95 9 17 0 
861 95 10 17 0 
862 64 11 17 0 
863 33 12 17 0 
864 89 13 17 0 
865 26 14 17 0 
866 18 15 17 0 
867 45 16 17 0 
868 79 17 17 0 
869 86 18 17 0 
870 10 19 17 0 
871 91 20 17 0 
872 93 21 17 0 
873 36 22 17 0 
874 28 23 17 0 
875 26 24 17 0 
901 52 0 18 0 
902 96 1 18 0 
903 35 2 18 0 
904 65 3 18 0 
905 81 4 18 0 
906 55 5 18 0 
907 60 6 18 0 
908 69 7 18 0 
909 27 8 18 0 
910 93 9 18 0 
911 38 10 18 0 
912 34 11 18 0 
913 51 12 18 0 
914 28 13 18 0 
915 42 14 18 0 
916 65 15 18 0 
917 62 16 18 0 
918 88 17 18 0 
919 44 18 18 0 
920 87 19 18 0 
921 91 20 18 0 
922 17 21 18 0 
923 55 22 18 0 
924 5 23 18 0 
925 93 24 18 0 
951 95 0 19 0 
952 18 1 19 0 
953 99 2 19 0 
954 5 3 19 0 
955 74 4 19 0 
956 40 5 19 0 
957 30 6 19 0 
958 35 7 19 0 
959 89 8 19 0 
960 29 9 19 0 
961 72 10 19 0 
962 47 11 19 0 
963 62 12 19 0 
964 76 13 19 0 
965 68 14 19 0 
966 48 15 19 0 
967 37 16 19 0 
968 9 17 19 0 
969 88 18 19 0 
970 66 19 19 0 
971 51 20 19 0 
972 88 21 19 0 
973 4 22 19 0 
974 38 23 19 0 
975 27 24 19 0 
1001 44 0 20 0 
1002 48 1 20 0 
1003 57 2 20 0 
1004 46 3 20 0 
1005 62 4 20 0 
1006 65 5 20 0 
1007 74 6 20 0 
1008 87 7 20 0 
1009 97 8 20 0 
1010 35 9 20 0 
1011 20 10 20 0 
1012 50 11 20 0 
1013 96 12 20 0 
1014 41 13 20 0 
1015 32 14 20 0 
1016 88 15 20 0 
1017 36 16 20 0 
1018 57 17 20 0 
1019 68 18 20 0 
1020 85 19 20 0 
1021 72 20 20 0 
1022 47 21 20 0 
1023 52 22 20 0 
1024 69 23 20 0 
1025 81 24 20 0 
1051 73 0 21 0 
1052 68 1 21 0 
1053 61 2 21 0 
1054 66 3 21 0 
1055 55 4 21 0 
1056 11 5 21 0 
1057 40 6 21 0 
1058 60 7 21 0 
1059 47 8 21 0 
1060 28 9 21 0 
1061 2 10 21 0 
1062 31 11 21 0 
1063 75 12 21 0 
1064 9 13 21 0 
1065 34 14 21 0 
1066 10 15 21 0 
1067 51 16 21 0 
1068 52 17 21 0 
1069 86 18 21 0 
1070 65 19 21 0 
1071 7 20 21 0 
1072 66 21 21 0 
1073 11 22 21 0 
1074 78 23 21 0 
1075 40 24 21 0 
1101 64 0 22 0 
1102 13 1 22 0 
1103 10 2 22 0 
1104 30 3 22 0 
1105 12 4 22 0 
1106 4 5 22 0 
1107 93 6 22 0 
1108 60 7 22 0 
1109 14 8 22 0 
1110 14 9 22 0 
1111 95 10 22 0 
1112 66 11 22 0 
1113 17 12 22 0 
1114 48 13 22 0 
1115 20 14 22 0 
1116 30 15 22 0 
1117 23 16 22 0 
1118 2 17 22 0 
1119 51 18 22 0 
1120 87 19 22 0 
1121 25 20 22 0 
1122 24 21 22 0 
1123 52 22 22 0 
1124 65 23 22 0 
1125 17 24 22 0 
1151 19 0 23 0 
1152 46 1 23 0 
1153 16 2 23 0 
1154 81 3 23 0 
1155 58 4 23 0 
1156 22 5 23 0 
1157 54 6 23 0 
1158 59 7 23 0 
1159 66 8 23 0 
1160 60 9 23 0 
1161 64 10 23 0 
1162 4 11 23 0 
1163 61 12 23 0 
1164 83 13 23 0 
1165 4 14 23 0 
1166 73 15 23 0 
1167 92 16 23 0 
1168 24 17 23 0 
1169 53 18 23 0 
1170 77 19 23 0 
1171 42 20 23 0 
1172 25 21 23 0 
1173 82 22 23 0 
1174 11 23 23 0 
1175 6 24 23 0 
1201 46 0 24 0 
1202 27 1 24 0 
1203 93 2 24 0 
1204 21 3 24 0 
1205 66 4 24 0 
1206 78 5 24 0 
1207 83 6 24 0 
1208 5 7 24 0 
1209 96 8 24 0 
1210 86 9 24 0 
1211 90 10 24 0 
1212 100 11 24 0 
1213 27 12 24 0 
1214 92 13 24 0 
1215 76 14 24 0 
1216 60 15 24 0 
1217 5 16 24 0 
1218 42 17 24 0 
1219 80 18 24 0 
1220 92 19 24 0 
1221 31 20 24 0 
1222 32 21 24 0 
1223 100 22 24 0 
1224 33 23 24 0 
1225 93 24 24 0 
26 28 25 0 0 
27 11 26 0 0 
28 55 27 0 0 
29 2 28 0 0 
30 43 29 0 0 
31 54 30 0 0 
32 10 31 0 0 
33 89 32 0 0 
34 20 33 0 0 
35 33 34 0 0 
36 4 35 0 0 
37 38 36 0 0 
38 48 37 0 0 
39 67 38 0 0 
40 50 39 0 0 
41 7 40 0 0 
42 10 41 0 0 
43 47 42 0 0 
44 14 43 0 0 
45 16 44 0 0 
46 10 45 0 0 
47 34 46 0 0 
48 50 47 0 0 
49 39 48 0 0 
50 39 49 0 0 
76 23 25 1 0 
77 95 26 1 0 
78 90 27 1 0 
79 6 28 1 0 
80 91 29 1 0 
81 21 30 1 0 
82 39 31 1 0 
83 96 32 1 0 
84 63 33 1 0 
85 6 34 1 0 
86 57 35 1 0 
87 30 36 1 0 
88 90 37 1 0 
89 79 38 1 0 
90 43 39 1 0 
91 13 40 1 0 
92 54 41 1 0 
93 33 42 1 0 
94 40 43 1 0 
95 81 44 1 0 
96 38 45 1 0 
97 65 46 1 0 
98 41 47 1 0 
99 77 48 1 0 
100 33 49 1 0 
126 78 25 2 0 
127 70 26 2 0 
128 37 27 2 0 
129 37 28 2 0 
130 1 29 2 0 
131 55 30 2 0 
132 65 31 2 0 
133 13 32 2 0 
134 59 33 2 0 
135 83 34 2 0 
136 40 35 2 0 
137 99 36 2 0 
138 12 37 2 0 
139 89 38 2 0 
140 41 39 2 0 
141 59 40 2 0 
142 93 41 2 0 
143 64 42 2 0 
144 92 43 2 0 
145 86 44 2 0 
146 77 45 2 0 
147 92 46 2 0 
148 92 47 2 0 
149 13 48 2 0 
150 1 49 2 0 
176 100 25 3 0 
177 87 26 3 0 
178 97 27 3 0 
179 19 28 3 0 
180 69 29 3 0 
181 76 30 3 0 
182 17 31 3 0 
183 38 32 3 0 
184 66 33 3 0 
185 83 34 3 0 
186 82 35 3 0 
187 96 36 3 0 
188 83 37 3 0 
189 81 38 3 0 
190 6 39 3 0 
191 78 40 3 0 
192 62 41 3 0 
193 81 42 3 0 
194 26 43 3 0 
195 73 44 3 0 
196 81 45 3 0 
197 54 46 3 0 
198 48 47 3 0 
199 29 48 3 0 
200 50 49 3 0 
226 47 25 4 0 
227 20 26 4 0 
228 13 27 4 0 
229 16 28 4 0 
230 79 29 4 0 
231 15 30 4 0 
232 66 31 4 0 
233 57 32 4 0 
234 81 33 4 0 
235 90 34 4 0 
236 98 35 4 0 
237 90 36 4 0 
238 4 37 4 0 
239 15 38 4 0 
240 63 39 4 0 
241 75 40 4 0 
242 66 41 4 0 
243 26 42 4 0 
244 69 43 4 0 
245 42 44 4 0 
246 72 45 4 0 
247 38 46 4 0 
248 38 47 4 0 
249 49 48 4 0 
250 4 49 4 0 
276 25 25 5 0 
277 81 26 5 0 
278 31 27 5 0 
279 73 28 5 0 
280 56 29 5 0 
281 3 30 5 0 
282 16 31 5 0 
283 58 32 5 0 
284 53 33 5 0 
285 18 34 5 0 
286 82 35 5 0 
287 98 36 5 0 
288 59 37 5 0 
289 81 38 5 0 
290 16 39 5 0 
291 70 40 5 0 
292 9 41 5 0 
293 87 42 5 0 
294 46 43 5 0 
295 8 44 5 0 
296 59 45 5 0 
297 86 46 5 0 
298 46 47 5 0 
299 3 48 5 0 
300 58 49 5 0 
326 35 25 6 0 
327 95 26 6 0 
328 96 27 6 0 
329 13 28 6 0 
330 83 29 6 0 
331 18 30 6 0 
332 23 31 6 0 
333 27 32 6 0 
334 87 33 6 0 
335 87 34 6 0 
336 34 35 6 0 
337 80 36 6 0 
338 87 37 6 0 
339 34 38 6 0 
340 14 39 6 0 
341 43 40 6 0 
342 4 41 6 0 
343 83 42 6 0 
344 84 43 6 0 
345 23 44 6 0 
346 26 45 6 0 
347 15 46 6 0 
348 29 47 6 0 
349 22 48 6 0 
350 5 49 6 0 
376 41 25 7 0 
377 50 26 7 0 
378 96 27 7 0 
379 14 28 7 0 
380 62 29 7 0 
381 14 30 7 0 
382 34 31 7 0 
383 11 32 7 0 
384 77 33 7 0 
385 48 34 7 0 
386 23 35 7 0 
387 25 36 7 0 
388 48 37 7 0 
389 22 38 7 0 
390 62 39 7 0 
391 30 40 7 0 
392 3 41 7 0 
393 14 42 7 0 
394 58 43 7 0 
395 66 44 7 0 
396 32 45 7 0 
397 73 46 7 0 
398 81 47 7 0 
399 32 48 7 0 
400 94 49 7 0 
426 84 25 8 0 
427 13 26 8 0 
428 27 27 8 0 
429 84 28 8 0 
430 93 29 8 0 
431 59 30 8 0 
432 46 31 8 0 
433 5 32 8 0 
434 53 33 8 0 
435 30 34 8 0 
436 74 35 8 0 
437 34 36 8 0 
438 77 37 8 0 
439 62 38 8 0 
440 74 39 8 0 
441 86 40 8 0 
442 27 41 8 0 
443 81 42 8 0 
444 9 43 8 0 
445 77 44 8 0 
446 39 45 8 0 
447 92 46 8 0 
448 54 47 8 0 
449 13 48 8 0 
450 74 49 8 0 
476 54 25 9 0 
477 81 26 9 0 
478 87 27 9 0 
479 72 28 9 0 
480 95 29 9 0 
481 48 30 9 0 
482 87 31 9 0 
483 82 32 9 0 
484 29 33 9 0 
485 43 34 9 0 
486 88 35 9 0 
487 51 36 9 0 
488 12 37 9 0 
489 59 38 9 0 
490 21 39 9 0 
491 73 40 9 0 
492 61 41 9 0 
493 12 42 9 0 
494 28 43 9 0 
495 73 44 9 0 
496 63 45 9 0 
497 66 46 9 0 
498 92 47 9 0 
499 54 48 9 0 
500 14 49 9 0 
526 43 25 10 0 
527 53 26 10 0 
528 75 27 10 0 
529 79 28 10 0 
530 97 29 10 0 
531 45 30 10 0 
532 60 31 10 0 
533 18 32 10 0 
534 21 33 10 0 
535 16 34 10 0 
536 24 35 10 0 
537 36 36 10 0 
538 18 37 10 0 
539 61 38 10 0 
540 75 39 10 0 
541 10 40 10 0 
542 57 41 10 0 
543 38 42 10 0 
544 39 43 10 0 
545 43 44 10 0 
546 80 45 10 0 
547 10 46 10 0 
548 50 47 10 0 
549 76 48 10 0 
550 73 49 10 0 
576 81 25 11 0 
577 37 26 11 0 
578 24 27 11 0 
579 68 28 11 0 
580 84 29 11 0 
581 70 30 11 0 
582 60 31 11 0 
583 50 32 11 0 
584 35 33 11 0 
585 58 34 11 0 
586 36 35 11 0 
587 55 36 11 0 
588 57 37 11 0 
589 32 38 11 0 
590 55 39 11 0 
591 22 40 11 0 
592 69 41 11 0 
593 76 42 11 0 
594 82 43 11 0 
595 2 44 11 0 
596 18 45 11 0 
597 45 46 11 0 
598 56 47 11 0 
599 66 48 11 0 
600 61 49 11 0 
626 83 25 12 0 
627 22 26 12 0 
628 39 27 12 0 
629 87 28 12 0 
630 3 29 12 0 
631 95 30 12 0 
632 89 31 12 0 
633 77 32 12 0 
634 60 33 12 0 
635 80 34 12 0 
636 100 35 12 0 
637 69 36 12 0 
638 52 37 12 0 
639 38 38 12 0 
640 78 39 12 0 
641 34 40 12 0 
642 98 41 12 0 
643 4 42 12 0 
644 31 43 12 0 
645 60 44 12 0 
646 73 45 12 0 
647 97 46 12 0 
648 13 47 12 0 
649 77 48 12 0 
650 64 49 12 0 
676 99 25 13 0 
677 22 26 13 0 
678 36 27 13 0 
679 43 28 13 0 
680 14 29 13 0 
681 38 30 13 0 
682 13 31 13 0 
683 75 32 13 0 
684 57 33 13 0 
685 67 34 13 0 
686 12 35 13 0 
687 50 36 13 0 
688 72 37 13 0 
689 45 38 13 0 
690 58 39 13 0 
691 98 40 13 0 
692 57 41 13 0 
693 21 42 13 0 
694 88 43 13 0 
695 58 44 13 0 
696 54 45 13 0 
697 56 46 13 0 
698 48 47 13 0 
699 16 48 13 0 
700 40 49 13 0 
726 62 25 14 0 
727 57 26 14 0 
728 66 27 14 0 
729 42 28 14 0 
730 53 29 14 0 
731 21 30 14 0 
732 71 31 14 0 
733 76 32 14 0 
734 78 33 14 0 
735 22 34 14 0 
736 79 35 14 0 
737 16 36 14 0 
738 43 37 14 0 
739 84 38 14 0 
740 41 39 14 0 
741 56 40 14 0 
742 10 41 14 0 
743 53 42 14 0 
744 75 43 14 0 
745 15 44 14 0 
746 44 45 14 0 
747 53 46 14 0 
748 74 47 14 0 
749 28 48 14 0 
750 54 49 14 0 
776 10 25 15 0 
777 54 26 15 0 
778 20 27 15 0 
779 76 28 15 0 
780 72 29 15 0 
781 59 30 15 0 
782 7 31 15 0 
783 24 32 15 0 
784 77 33 15 0 
785 70 34 15 0 
786 52 35 15 0 
787 35 36 15 0 
788 34 37 15 0 
789 95 38 15 0 
790 95 39 15 0 
791 40 40 15 0 
792 64 41 15 0 
793 55 42 15 0 
794 91 43 15 0 
795 20 44 15 0 
796 68 45 15 0 
797 15 46 15 0 
798 21 47 15 0 
799 79 48 15 0 
800 80 49 15 0 
826 39 25 16 0 
827 28 26 16 0 
828 74 27 16 0 
829 5 28 16 0 
830 45 29 16 0 
831 2 30 16 0 
832 65 31 16 0 
833 97 32 16 0 
834 9 33 16 0 
835 1 34 16 0 
836 68 35 16 0 
837 2 36 16 0 
838 81 37 16 0 
839 57 38 16 0 
840 56 39 16 0 
841 68 40 16 0 
842 51 41 16 0 
843 7 42 16 0 
844 92 43 16 0 
845 19 44 16 0 
846 44 45 16 0 
847 35 46 16 0 
848 76 47 16 0 
849 35 48 16 0 
850 22 49 16 0 
876 26 25 17 0 
877 74 26 17 0 
878 35 27 17 0 
879 19 28 17 0 
880 36 29 17 0 
881 82 30 17 0 
882 96 31 17 0 
883 6 32 17 0 
884 35 33 17 0 
885 31 34 17 0 
886 48 35 17 0 
887 38 36 17 0 
888 12 37 17 0 
889 35 38 17 0 
890 2 39 17 0 
891 82 40 17 0 
892 3 41 17 0 
893 44 42 17 0 
894 21 43 17 0 
895 85 44 17 0 
896 5 45 17 0 
897 31 46 17 0 
898 32 47 17 0 
899 90 48 17 0 
900 70 49 17 0 
926 27 25 18 0 
927 74 26 18 0 
928 51 27 18 0 
929 35 28 18 0 
930 33 29 18 0 
931 37 30 18 0 
932 19 31 18 0 
933 79 32 18 0 
934 11 33 18 0 
935 39 34 18 0 
936 64 35 18 0 
937 67 36 18 0 
938 66 37 18 0 
939 60 38 18 0 
940 63 39 18 0 
941 81 40 18 0 
942 65 41 18 0 
943 58 42 18 0 
944 34 43 18 0 
945 19 44 18 0 
946 15 45 18 0 
947 92 46 18 0 
948 50 47 18 0 
949 43 48 18 0 
950 74 49 18 0 
976 61 25 19 0 
977 64 26 19 0 
978 68 27 19 0 
979 31 28 19 0 
980 49 29 19 0 
981 51 30 19 0 
982 27 31 19 0 
983 34 32 19 0 
984 15 33 19 0 
985 83 34 19 0 
986 21 35 19 0 
987 77 36 19 0 
988 24 37 19 0 
989 48 38 19 0 
990 5 39 19 0 
991 90 40 19 0 
992 42 41 19 0 
993 6 42 19 0 
994 96 43 19 0 
995 90 44 19 0 
996 41 45 19 0 
997 96 46 19 0 
998 6 47 19 0 
999 21 48 19 0 
1000 83 49 19 0 
1026 85 25 20 0 
1027 55 26 20 0 
1028 80 27 20 0 
1029 49 28 20 0 
1030 16 29 20 0 
1031 41 30 20 0 
1032 37 31 20 0 
1033 42 32 20 0 
1034 1 33 20 0 
1035 73 34 20 0 
1036 46 35 20 0 
1037 74 36 20 0 
1038 3 37 20 0 
1039 4 38 20 0 
1040 51 39 20 0 
1041 57 40 20 0 
1042 38 41 20 0 
1043 8 42 20 0 
1044 23 43 20 0 
1045 62 44 20 0 
1046 81 45 20 0 
1047 76 46 20 0 
1048 16 47 20 0 
1049 28 48 20 0 
1050 5 49 20 0 
1076 78 25 21 0 
1077 55 26 21 0 
1078 24 27 21 0 
1079 34 28 21 0 
1080 15 29 21 0 
1081 82 30 21 0 
1082 33 31 21 0 
1083 36 32 21 0 
1084 53 33 21 0 
1085 1 34 21 0 
1086 55 35 21 0 
1087 46 36 21 0 
1088 36 37 21 0 
1089 89 38 21 0 
1090 7 39 21 0 
1091 86 40 21 0 
1092 75 41 21 0 
1093 1 42 21 0 
1094 67 43 21 0 
1095 13 44 21 0 
1096 3 45 21 0 
1097 91 46 21 0 
1098 21 47 21 0 
1099 49 48 21 0 
1100 34 49 21 0 
1126 45 25 22 0 
1127 16 26 22 0 
1128 81 27 22 0 
1129 71 28 22 0 
1130 63 29 22 0 
1131 24 30 22 0 
1132 67 31 22 0 
1133 13 32 22 0 
1134 43 33 22 0 
1135 53 34 22 0 
1136 41 35 22 0 
1137 57 36 22 0 
1138 88 37 22 0 
1139 57 38 22 0 
1140 87 39 22 0 
1141 96 40 22 0 
1142 14 41 22 0 
1143 99 42 22 0 
1144 86 43 22 0 
1145 53 44 22 0 
1146 79 45 22 0 
1147 86 46 22 0 
1148 83 47 22 0 
1149 24 48 22 0 
1150 30 49 22 0 
1176 25 25 23 0 
1177 7 26 23 0 
1178 47 27 23 0 
1179 5 28 23 0 
1180 35 29 23 0 
1181 13 30 23 0 
1182 11 31 23 0 
1183 63 32 23 0 
1184 43 33 23 0 
1185 14 34 23 0 
1186 77 35 23 0 
1187 60 36 23 0 
1188 14 37 23 0 
1189 25 38 23 0 
1190 42 39 23 0 
1191 18 40 23 0 
1192 47 41 23 0 
1193 91 42 23 0 
1194 84 43 23 0 
1195 37 44 23 0 
1196 61 45 23 0 
1197 44 46 23 0 
1198 86 47 23 0 
1199 67 48 23 0 
1200 25 49 23 0 
1226 22 25 24 0 
1227 25 26 24 0 
1228 86 27 24 0 
1229 90 28 24 0 
1230 10 29 24 0 
1231 49 30 24 0 
1232 63 31 24 0 
1233 46 32 24 0 
1234 93 33 24 0 
1235 45 34 24 0 
1236 34 35 24 0 
1237 55 36 24 0 
1238 9 37 24 0 
1239 96 38 24 0 
1240 51 39 24 0 
1241 67 40 24 0 
1242 36 41 24 0 
1243 34 42 24 0 
1244 89 43 24 0 
1245 21 44 24 0 
1246 98 45 24 0 
1247 84 46 24 0 
1248 21 47 24 0 
1249 44 48 24 0 
1250 71 49 24 0 
1251 53 0 25 0 
1252 52 1 25 0 
1253 83 2 25 0 
1254 17 3 25 0 
1255 11 4 25 0 
1256 85 5 25 0 
1257 40 6 25 0 
1258 51 7 25 0 
1259 56 8 25 0 
1260 80 9 25 0 
1261 17 10 25 0 
1262 16 11 25 0 
1263 38 12 25 0 
1264 91 13 25 0 
1265 45 14 25 0 
1266 72 15 25 0 
1267 36 16 25 0 
1268 92 17 25 0 
1269 74 18 25 0 
1270 56 19 25 0 
1271 67 20 25 0 
1272 15 21 25 0 
1273 39 22 25 0 
1274 84 23 25 0 
1275 14 24 25 0 
1301 20 0 26 0 
1302 43 1 26 0 
1303 38 2 26 0 
1304 15 3 26 0 
1305 16 4 26 0 
1306 61 5 26 0 
1307 73 6 26 0 
1308 30 7 26 0 
1309 33 8 26 0 
1310 23 9 26 0 
1311 67 10 26 0 
1312 86 11 26 0 
1313 16 12 26 0 
1314 43 13 26 0 
1315 11 14 26 0 
1316 6 15 26 0 
1317 51 16 26 0 
1318 97 17 26 0 
1319 22 18 26 0 
1320 6 19 26 0 
1321 20 20 26 0 
1322 85 21 26 0 
1323 83 22 26 0 
1324 17 23 26 0 
1325 43 24 26 0 
1351 30 0 27 0 
1352 39 1 27 0 
1353 59 2 27 0 
1354 88 3 27 0 
1355 89 4 27 0 
1356 78 5 27 0 
1357 8 6 27 0 
1358 85 7 27 0 
1359 58 8 27 0 
1360 89 9 27 0 
1361 5 10 27 0 
1362 76 11 27 0 
1363 36 12 27 0 
1364 99 13 27 0 
1365 79 14 27 0 
1366 95 15 27 0 
1367 71 16 27 0 
1368 31 17 27 0 
1369 95 18 27 0 
1370 76 19 27 0 
1371 50 20 27 0 
1372 26 21 27 0 
1373 85 22 27 0 
1374 97 23 27 0 
1375 8 24 27 0 
1401 88 0 28 0 
1402 33 1 28 0 
1403 52 2 28 0 
1404 70 3 28 0 
1405 96 4 28 0 
1406 89 5 28 0 
1407 88 6 28 0 
1408 53 7 28 0 
1409 35 8 28 0 
1410 4 9 28 0 
1411 77 10 28 0 
1412 83 11 28 0 
1413 80 12 28 0 
1414 4 13 28 0 
1415 71 14 28 0 
1416 71 15 28 0 
1417 49 16 28 0 
1418 98 17 28 0 
1419 79 18 28 0 
1420 12 19 28 0 
1421 65 20 28 0 
1422 51 21 28 0 
1423 43 22 28 0 
1424 71 23 28 0 
1425 70 24 28 0 
1451 34 0 29 0 
1452 37 1 29 0 
1453 38 2 29 0 
1454 59 3 29 0 
1455 87 4 29 0 
1456 50 5 29 0 
1457 32 6 29 0 
1458 22 7 29 0 
1459 32 8 29 0 
1460 59 9 29 0 
1461 51 10 29 0 
1462 92 11 29 0 
1463 13 12 29 0 
1464 74 13 29 0 
1465 26 14 29 0 
1466 71 15 29 0 
1467 95 16 29 0 
1468 72 17 29 0 
1469 77 18 29 0 
1470 60 19 29 0 
1471 28 20 29 0 
1472 52 21 29 0 
1473 64 22 29 0 
1474 80 23 29 0 
1475 1 24 29 0 
1501 14 0 30 0 
1502 64 1 30 0 
1503 57 2 30 0 
1504 11 3 30 0 
1505 100 4 30 0 
1506 53 5 30 0 
1507 11 6 30 0 
1508 22 7 30 0 
1509 30 8 30 0 
1510 95 9 30 0 
1511 26 10 30 0 
1512 71 11 30 0 
1513 86 12 30 0 
1514 92 13 30 0 
1515 72 14 30 0 
1516 86 15 30 0 
1517 79 16 30 0 
1518 88 17 30 0 
1519 62 18 30 0 
1520 74 19 30 0 
1521 4 20 30 0 
1522 97 21 30 0 
1523 84 22 30 0 
1524 57 23 30 0 
1525 9 24 30 0 
1551 74 0 31 0 
1552 34 1 31 0 
1553 56 2 31 0 
1554 90 3 31 0 
1555 2 4 31 0 
1556 66 5 31 0 
1557 23 6 31 0 
1558 82 7 31 0 
1559 78 8 31 0 
1560 95 9 31 0 
1561 83 10 31 0 
1562 24 11 31 0 
1563 52 12 31 0 
1564 20 13 31 0 
1565 82 14 31 0 
1566 35 15 31 0 
1567 85 16 31 0 
1568 68 17 31 0 
1569 72 18 31 0 
1570 25 19 31 0 
1571 89 20 31 0 
1572 59 21 31 0 
1573 80 22 31 0 
1574 8 23 31 0 
1575 37 24 31 0 
1601 50 0 32 0 
1602 34 1 32 0 
1603 7 2 32 0 
1604 97 3 32 0 
1605 83 4 32 0 
1606 26 5 32 0 
1607 53 6 32 0 
1608 40 7 32 0 
1609 80 8 32 0 
1610 8 9 32 0 
1611 12 10 32 0 
1612 87 11 32 0 
1613 37 12 32 0 
1614 32 13 32 0 
1615 79 14 32 0 
1616 4 15 32 0 
1617 27 16 32 0 
1618 35 17 32 0 
1619 26 18 32 0 
1620 52 19 32 0 
1621 90 20 32 0 
1622 76 21 32 0 
1623 96 22 32 0 
1624 2 23 32 0 
1625 86 24 32 0 
1651 15 0 33 0 
1652 82 1 33 0 
1653 8 2 33 0 
1654 72 3 33 0 
1655 47 4 33 0 
1656 14 5 33 0 
1657 97 6 33 0 
1658 73 7 33 0 
1659 46 8 33 0 
1660 57 9 33 0 
1661 30 10 33 0 
1662 55 11 33 0 
1663 82 12 33 0 
1664 5 13 33 0 
1665 55 14 33 0 
1666 91 15 33 0 
1667 59 16 33 0 
1668 76 17 33 0 
1669 93 18 33 0 
1670 94 19 33 0 
1671 36 20 33 0 
1672 65 21 33 0 
1673 37 22 33 0 
1674 55 23 33 0 
1675 94 24 33 0 
1701 60 0 34 0 
1702 19 1 34 0 
1703 35 2 34 0 
1704 24 3 34 0 
1705 29 4 34 0 
1706 52 5 34 0 
1707 19 6 34 0 
1708 33 7 34 0 
1709 33 8 34 0 
1710 90 9 34 0 
1711 84 10 34 0 
1712 25 11 34 0 
1713 19 12 34 0 
1714 94 13 34 0 
1715 78 14 34 0 
1716 46 15 34 0 
1717 10 16 34 0 
1718 93 17 34 0 
1719 86 18 34 0 
1720 84 19 34 0 
1721 79 20 34 0 
1722 25 21 34 0 
1723 86 22 34 0 
1724 8 23 34 0 
1725 51 24 34 0 
1751 8 0 35 0 
1752 61 1 35 0 
1753 71 2 35 0 
1754 18 3 35 0 
1755 70 4 35 0 
1756 38 5 35 0 
1757 22 6 35 0 
1758 34 7 35 0 
1759 92 8 35 0 
1760 7 9 35 0 
1761 68 10 35 0 
1762 74 11 35 0 
1763 59 12 35 0 
1764 92 13 35 0 
1765 47 14 35 0 
1766 69 15 35 0 
1767 3 16 35 0 
1768 15 17 35 0 
1769 49 18 35 0 
1770 12 19 35 0 
1771 8 20 35 0 
1772 41 21 35 0 
1773 25 22 35 0 
1774 59 23 35 0 
1775 1 24 35 0 
1801 12 0 36 0 
1802 86 1 36 0 
1803 26 2 36 0 
1804 74 3 36 0 
1805 66 4 36 0 
1806 45 5 36 0 
1807 94 6 36 0 
1808 50 7 36 0 
1809 98 8 36 0 
1810 49 9 36 0 
1811 73 10 36 0 
1812 6 11 36 0 
1813 19 12 36 0 
1814 5 13 36 0 
1815 2 14 36 0 
1816 10 15 36 0 
1817 74 16 36 0 
1818 68 17 36 0 
1819 38 18 36 0 
1820 90 19 36 0 
1821 25 20 36 0 
1822 16 21 36 0 
1823 6 22 36 0 
1824 34 23 36 0 
1825 77 24 36 0 
1851 71 0 37 0 
1852 54 1 37 0 
1853 30 2 37 0 
1854 43 3 37 0 
1855 86 4 37 0 
1856 23 5 37 0 
1857 82 6 37 0 
1858 95 7 37 0 
1859 89 8 37 0 
1860 93 9 37 0 
1861 97 10 37 0 
1862 1 11 37 0 
1863 62 12 37 0 
1864 35 13 37 0 
1865 54 14 37 0 
1866 47 15 37 0 
1867 51 16 37 0 
1868 5 17 37 0 
1869 2 18 37 0 
1870 34 19 37 0 
1871 67 20 37 0 
1872 96 21 37 0 
1873 31 22 37 0 
1874 10 23 37 0 
1875 35 24 37 0 
1901 50 0 38 0 
1902 1 1 38 0 
1903 37 2 38 0 
1904 17 3 38 0 
1905 5 4 38 0 
1906 37 5 38 0 
1907 79 6 38 0 
1908 91 7 38 0 
1909 20 8 38 0 
1910 12 9 38 0 
1911 36 10 38 0 
1912 97 11 38 0 
1913 50 12 38 0 
1914 23 13 38 0 
1915 65 14 38 0 
1916 75 15 38 0 
1917 48 16 38 0 
1918 13 17 38 0 
1919 49 18 38 0 
1920 58 19 38 0 
1921 98 20 38 0 
1922 59 21 38 0 
1923 81 22 38 0 
1924 5 23 38 0 
1925 34 24 38 0 
1951 47 0 39 0 
1952 89 1 39 0 
1953 51 2 39 0 
1954 20 3 39 0 
1955 27 4 39 0 
1956 14 5 39 0 
1957 92 6 39 0 
1958 33 7 39 0 
1959 64 8 39 0 
1960 70 9 39 0 
1961 97 10 39 0 
1962 41 11 39 0 
1963 50 12 39 0 
1964 39 13 39 0 
1965 47 14 39 0 
1966 22 15 39 0 
1967 18 16 39 0 
1968 35 17 39 0 
1969 31 18 39 0 
1970 52 19 39 0 
1971 52 20 39 0 
1972 2 21 39 0 
1973 62 22 39 0 
1974 25 23 39 0 
1975 60 24 39 0 
2001 84 0 40 0 
2002 44 1 40 0 
2003 68 2 40 0 
2004 76 3 40 0 
2005 14 4 40 0 
2006 53 5 40 0 
2007 84 6 40 0 
2008 11 7 40 0 
2009 97 8 40 0 
2010 44 9 40 0 
2011 87 10 40 0 
2012 64 11 40 0 
2013 91 12 40 0 
2014 49 13 40 0 
2015 66 14 40 0 
2016 50 15 40 0 
2017 30 16 40 0 
2018 85 17 40 0 
2019 77 18 40 0 
2020 46 19 40 0 
2021 28 20 40 0 
2022 14 21 40 0 
2023 14 22 40 0 
2024 95 23 40 0 
2025 14 24 40 0 
2051 95 0 41 0 
2052 59 1 41 0 
2053 17 2 41 0 
2054 58 3 41 0 
2055 25 4 41 0 
2056 23 5 41 0 
2057 7 6 41 0 
2058 73 7 41 0 
2059 12 8 41 0 
2060 63 9 41 0 
2061 41 10 41 0 
2062 2 11 41 0 
2063 10 12 41 0 
2064 35 13 41 0 
2065 58 14 41 0 
2066 68 15 41 0 
2067 78 16 41 0 
2068 12 17 41 0 
2069 4 18 41 0 
2070 63 19 41 0 
2071 99 20 41 0 
2072 8 21 41 0 
2073 15 22 41 0 
2074 3 23 41 0 
2075 9 24 41 0 
2101 3 0 42 0 
2102 94 1 42 0 
2103 63 2 42 0 
2104 12 3 42 0 
2105 23 4 42 0 
2106 85 5 42 0 
2107 23 6 42 0 
2108 11 7 42 0 
2109 24 8 42 0 
2110 39 9 42 0 
2111 28 10 42 0 
2112 71 11 42 0 
2113 66 12 42 0 
2114 67 13 42 0 
2115 59 14 42 0 
2116 10 15 42 0 
2117 19 16 42 0 
2118 2 17 42 0 
2119 68 18 42 0 
2120 4 19 42 0 
2121 67 20 42 0 
2122 52 21 42 0 
2123 5 22 42 0 
2124 95 23 42 0 
2125 75 24 42 0 
2151 36 0 43 0 
2152 33 1 43 0 
2153 24 2 43 0 
2154 97 3 43 0 
2155 74 4 43 0 
2156 52 5 43 0 
2157 32 6 43 0 
2158 1 7 43 0 
2159 98 8 43 0 
2160 41 9 43 0 
2161 69 10 43 0 
2162 76 11 43 0 
2163 63 12 43 0 
2164 95 13 43 0 
2165 11 14 43 0 
2166 81 15 43 0 
2167 13 16 43 0 
2168 47 17 43 0 
2169 68 18 43 0 
2170 47 19 43 0 
2171 38 20 43 0 
2172 1 21 43 0 
2173 53 22 43 0 
2174 4 23 43 0 
2175 90 24 43 0 
2201 83 0 44 0 
2202 70 1 44 0 
2203 9 2 44 0 
2204 46 3 44 0 
2205 94 4 44 0 
2206 85 5 44 0 
2207 57 6 44 0 
2208 9 7 44 0 
2209 78 8 44 0 
2210 65 9 44 0 
2211 58 10 44 0 
2212 16 11 44 0 
2213 65 12 44 0 
2214 22 13 44 0 
2215 91 14 44 0 
2216 69 15 44 0 
2217 92 16 44 0 
2218 15 17 44 0 
2219 11 18 44 0 
2220 84 19 44 0 
2221 9 20 44 0 
2222 18 21 44 0 
2223 91 22 44 0 
2224 94 23 44 0 
2225 63 24 44 0 
2251 93 0 45 0 
2252 83 1 45 0 
2253 92 2 45 0 
2254 61 3 45 0 
2255 68 4 45 0 
2256 97 5 45 0 
2257 56 6 45 0 
2258 40 7 45 0 
2259 8 8 45 0 
2260 58 9 45 0 
2261 42 10 45 0 
2262 60 11 45 0 
2263 58 12 45 0 
2264 87 13 45 0 
2265 78 14 45 0 
2266 18 15 45 0 
2267 66 16 45 0 
2268 4 17 45 0 
2269 13 18 45 0 
2270 83 19 45 0 
2271 58 20 45 0 
2272 2 21 45 0 
2273 49 22 45 0 
2274 81 23 45 0 
2275 100 24 45 0 
2301 24 0 46 0 
2302 75 1 46 0 
2303 75 2 46 0 
2304 35 3 46 0 
2305 32 4 46 0 
2306 72 5 46 0 
2307 52 6 46 0 
2308 73 7 46 0 
2309 21 8 46 0 
2310 47 9 46 0 
2311 11 10 46 0 
2312 25 11 46 0 
2313 33 12 46 0 
2314 24 13 46 0 
2315 74 14 46 0 
2316 28 15 46 0 
2317 84 16 46 0 
2318 10 17 46 0 
2319 65 18 46 0 
2320 65 19 46 0 
2321 52 20 46 0 
2322 25 21 46 0 
2323 46 22 46 0 
2324 49 23 46 0 
2325 52 24 46 0 
2351 96 0 47 0 
2352 50 1 47 0 
2353 25 2 47 0 
2354 4 3 47 0 
2355 100 4 47 0 
2356 6 5 47 0 
2357 67 6 47 0 
2358 43 7 47 0 
2359 21 8 47 0 
2360 87 9 47 0 
2361 15 10 47 0 
2362 38 11 47 0 
2363 70 12 47 0 
2364 18 13 47 0 
2365 76 14 47 0 
2366 44 15 47 0 
2367 70 16 47 0 
2368 61 17 47 0 
2369 51 18 47 0 
2370 71 19 47 0 
2371 63 20 47 0 
2372 21 21 47 0 
2373 1 22 47 0 
2374 44 23 47 0 
2375 32 24 47 0 
2401 45 0 48 0 
2402 88 1 48 0 
2403 83 2 48 0 
2404 31 3 48 0 
2405 90 4 48 0 
2406 35 5 48 0 
2407 48 6 48 0 
2408 74 7 48 0 
2409 48 8 48 0 
2410 26 9 48 0 
2411 42 10 48 0 
2412 77 11 48 0 
2413 6 12 48 0 
2414 26 13 48 0 
2415 76 14 48 0 
2416 65 15 48 0 
2417 68 16 48 0 
2418 15 17 48 0 
2419 3 18 48 0 
2420 52 19 48 0 
2421 94 20 48 0 
2422 87 21 48 0 
2423 21 22 48 0 
2424 46 23 48 0 
2425 48 24 48 0 
2451 89 0 49 0 
2452 8 1 49 0 
2453 49 2 49 0 
2454 88 3 49 0 
2455 50 4 49 0 
2456 75 5 49 0 
2457 18 6 49 0 
2458 56 7 49 0 
2459 36 8 49 0 
2460 22 9 49 0 
2461 30 10 49 0 
2462 45 11 49 0 
2463 79 12 49 0 
2464 61 13 49 0 
2465 16 14 49 0 
2466 21 15 49 0 
2467 46 16 49 0 
2468 15 17 49 0 
2469 9 18 49 0 
2470 31 19 49 0 
2471 43 20 49 0 
2472 60 21 49 0 
2473 66 22 49 0 
2474 39 23 49 0 
2475 22 24 49 0 
1276 67 25 25 0 
1277 47 26 25 0 
1278 57 27 25 0 
1279 24 28 25 0 
1280 86 29 25 0 
1281 7 30 25 0 
1282 43 31 25 0 
1283 26 32 25 0 
1284 6 33 25 0 
1285 92 34 25 0 
1286 76 35 25 0 
1287 28 36 25 0 
1288 94 37 25 0 
1289 72 38 25 0 
1290 29 39 25 0 
1291 55 40 25 0 