ITEM: TIMESTEP
0
ITEM: NUMBER OF ATOMS
4500
ITEM: BOX BOUNDS pp pp pp
2.6450000000000001e-02 3.5532800000000002e+01
2.6450000000000001e-02 3.5532800000000002e+01
2.6409999999999999e-02 3.5473599999999998e+01
ITEM: ATOMS id type x y z fx fy fz 
1 1 12.1247 28.092 22.2745 44.3296 17.0725 48.5356 
2 2 12.4974 28.7565 22.854 -24.598 -41.7029 -32.885 
3 2 11.5314 28.5784 21.7021 -26.0334 10.24 -23.1056 
4 1 1.17081 29.3781 23.7307 -74.0189 -7.00332 56.5394 
5 2 1.86259 29.4619 23.0745 28.6874 -4.77355 -53.1747 
6 2 0.455888 28.9379 23.2709 28.8474 14.4006 -7.70694 
7 1 29.6824 14.7369 21.6275 -6.84135 -10.4682 -14.9806 
8 2 30.5192 14.9459 21.2125 -6.0991 2.52794 20.3786 
9 2 29.7669 15.072 22.5202 13.979 5.65532 2.32707 
10 1 10.8733 7.00191 35.1099 71.1535 29.5945 64.996 
11 2 11.0641 6.25389 34.5439 -29.2143 -6.46229 -20.2952 
12 2 9.99418 7.27965 34.8524 -52.7015 -16.0671 -37.9354 
13 1 9.46552 6.437 19.7997 85.2674 -39.8413 10.9994 
14 2 9.09748 6.31006 18.9252 -72.8621 17.4338 -56.4264 
15 2 10.2738 5.92429 19.7966 -6.89627 25.8832 52.2923 
16 1 3.17887 29.6978 22.1201 11.0669 36.9603 2.15921 
17 2 3.20092 30.5775 21.7434 1.96842 -53.5324 1.10468 
18 2 3.38088 29.1173 21.3863 -1.13041 18.9593 -2.63733 
19 1 23.3853 11.3001 30.7823 -23.52 11.4998 -1.78141 
20 2 23.7233 10.5129 31.2094 -10.6549 -69.8744 42.1205 
21 2 24.1635 11.7415 30.442 31.685 49.5553 -38.1127 
22 1 11.0372 10.4605 30.1467 -38.6093 -16.0236 -66.6776 
23 2 10.974 11.4059 30.2831 -19.3275 67.6485 -7.84838 
24 2 11.5859 10.1503 30.8671 54.5017 -54.8943 68.1861 
25 1 26.2405 25.4087 21.068 -56.1074 83.4996 53.8252 
26 2 25.6867 26.079 21.4683 35.5039 -49.8834 28.2082 
27 2 26.1991 25.5923 20.1295 25.5629 -23.0759 -81.8338 
28 1 10.8412 35.3391 19.7844 2.25797 -26.5412 -45.6254 
29 2 10.2354 0.4972 19.4561 -48.2648 70.871 28.539 
30 2 11.0286 34.7886 19.024 33.3135 -41.853 25.3389 
31 1 20.0736 4.95841 33.6228 -61.0677 -13.7236 -95.3328 
32 2 19.8087 5.82724 33.9249 54.506 -38.052 50.8578 
33 2 20.6504 4.63009 34.3126 1.15025 57.2924 50.6838 
34 1 12.4393 28.5674 17.3981 33.9775 120.605 -49.4783 
35 2 12.7582 27.993 18.0943 -64.8698 -62.097 -14.4475 
36 2 11.6784 28.1105 17.0396 32.2849 -56.3428 67.7286 
37 1 14.8039 7.14276 1.42142 -7.78991 -28.0947 -44.4196 
38 2 14.8296 6.67781 0.58511 21.988 19.6957 -0.20597 
39 2 14.1583 6.66478 1.94198 -16.8612 -0.635684 46.5116 
40 1 15.8789 22.1828 24.1349 44.729 6.0878 18.5114 
41 2 16.0034 22.7047 23.3423 9.45233 -5.41322 19.0748 
42 2 16.6757 22.3276 24.6452 -62.1564 -2.11365 -46.4012 
43 1 13.2926 18.3041 12.3718 -21.6321 35.4491 -10.1185 
44 2 12.5784 18.6431 12.9115 9.10165 -10.6191 6.40125 
45 2 13.218 18.7831 11.5465 14.7856 -26.5319 15.1201 
46 1 20.2739 23.9416 15.503 27.5133 -80.7739 21.5233 
47 2 20.1962 24.62 14.8322 -14.4264 75.5043 -48.974 
48 2 20.6056 23.1764 15.0333 -10.3055 9.55818 35.1212 
49 1 30.1029 10.7821 14.2432 -141.04 -58.2559 25.7885 
50 2 29.4054 10.9741 13.6165 73.7261 15.4355 6.52542 
51 2 29.6831 10.2399 14.911 75.3093 38.8314 -27.5838 
52 1 19.7156 12.9895 25.4049 25.1117 -7.00757 -10.1087 
53 2 20.1589 13.3425 26.1764 19.8361 12.6508 10.0706 
54 2 18.8028 12.8923 25.6761 -46.6998 -11.9636 -2.64236 
55 1 4.22446 18.9933 32.6299 -12.2623 -33.6491 -3.58742 
56 2 4.01977 18.2262 32.0951 -0.65906 11.4759 13.4292 
57 2 3.40273 19.4824 32.6724 -7.13172 6.03869 -1.39336 
58 1 17.6728 30.8673 34.87 42.8216 130.59 -162.103 
59 2 17.2252 31.7134 34.8674 13.8991 -74.4356 51.5196 
60 2 18.1499 30.8456 34.0405 -35.2142 -46.045 103.968 
61 1 7.49176 27.8412 34.6561 -8.38477 -4.69264 -29.7059 
62 2 7.38276 27.3655 33.8327 3.64633 13.1076 44.1915 
63 2 7.82071 27.1851 35.2706 1.95624 -6.65514 -3.58729 
64 1 9.58253 8.75799 28.3877 116.709 -125.981 52.5075 
65 2 8.92109 8.98732 27.7349 -83.0107 68.6483 -51.5114 
66 2 9.58418 9.49606 28.9972 -27.4509 50.7129 1.40082 
67 1 18.1554 7.97905 4.0298 47.2833 37.721 -106.65 
68 2 17.6432 8.00694 3.22162 21.7418 4.14945 19.095 
69 2 17.5569 7.61234 4.68067 -67.2893 -44.6283 76.9492 
70 1 13.4544 10.3013 21.9454 112.071 76.0432 -129.691 
71 2 14.0936 10.9988 21.8003 -80.2192 -86.4066 17.6862 
72 2 13.1932 10.4017 22.8608 -32.0643 14.779 114.996 
73 1 28.7733 1.83557 6.23648 -33.7442 -50.1324 141.754 
74 2 29.5164 1.24498 6.11254 72.8233 -15.8851 -85.3405 
75 2 28.4822 1.6701 7.1332 -43.058 63.9581 -50.3394 
76 1 21.1742 3.00831 4.56194 0.158124 109.891 -61.1284 
77 2 21.0127 3.00272 5.5054 -3.77625 0.15944 20.7409 
78 2 21.1677 3.93514 4.32281 -4.10082 -117.387 36.7397 
79 1 15.8627 20.7772 10.347 -10.8751 -6.77505 -87.4378 
80 2 15.8439 20.002 10.9082 2.07226 -35.7907 75.1733 
81 2 15.7698 20.4328 9.45877 3.69478 48.5508 14.319 
82 1 19.3725 6.41188 28.333 42.8955 -47.4225 -74.3718 
83 2 19.8486 6.19566 27.5312 -2.00587 -66.9261 16.8146 
84 2 19.262 7.36203 28.2977 -43.4222 115.62 57.3684 
85 1 19.6982 26.8019 22.5666 -77.4398 127.696 -35.8514 
86 2 20.4868 26.5238 22.1007 51.2918 -45.295 0.540468 
87 2 19.5656 26.1306 23.236 21.0243 -78.6205 45.4993 
88 1 10.4486 1.95811 4.23832 63.567 40.254 14.5292 
89 2 10.9951 1.54351 4.90589 -28.1495 10.7305 -27.3413 
90 2 10.8566 2.81117 4.08991 -18.7034 -31.7241 3.15415 
91 1 6.35427 29.1963 23.1793 -29.2287 -97.5878 12.9355 
92 2 5.55633 29.6696 23.4149 55.5736 43.5447 -24.9518 
93 2 6.95717 29.8766 22.8795 -35.247 50.4619 7.95578 
94 1 27.7028 33.6383 1.45462 36.6631 -4.41182 91.5502 
95 2 27.4855 34.5223 1.7505 12.7995 -35.9533 -4.41385 
96 2 28.2115 33.2629 2.17332 -48.0369 41.4416 -65.6927 
97 1 34.5416 25.9073 10.9736 -19.1062 -56.3751 83.5104 
98 2 34.2864 25.1281 10.4796 8.74626 32.4951 -24.3485 
99 2 34.7285 26.5654 10.3041 1.15796 20.488 -60.0485 
100 1 35.1366 10.3525 32.754 -9.9115 27.9412 -47.5072 
101 2 35.323 9.88429 31.9401 -1.21323 0.173058 45.894 
102 2 35.4066 9.74832 33.4456 11.7906 -25.9937 -4.14432 
103 1 19.4561 25.2295 13.0696 -34.7922 43.4863 20.8002 
104 2 18.6651 25.749 12.9256 44.3512 -42.029 -2.37612 
105 2 19.5339 24.6879 12.2842 -8.2881 -3.31681 -21.2962 
106 1 8.76547 34.6063 24.2016 7.52675 9.11202 41.274 
107 2 9.5024 34.687 24.8071 -2.7471 26.6092 61.1862 
108 2 9.1379 34.1896 23.4245 -16.1122 -29.9152 -90.1805 
109 1 18.5215 34.0034 24.7629 -74.498 64.9847 76.1986 
110 2 19.4506 33.8539 24.5878 58.0195 -31.5722 -39.0073 
111 2 18.0656 33.4544 24.1249 7.42357 -27.6015 -32.0517 
112 1 5.46886 16.7558 12.093 -17.0969 53.0014 -84.6821 
113 2 5.21531 17.6489 11.8601 5.11263 -40.4739 -3.81505 
114 2 5.63533 16.7914 13.035 16.0052 -14.0188 86.0212 
115 1 26.781 26.5431 35.171 -28.5043 23.0849 6.25217 
116 2 27.3832 26.8853 0.384541 9.51793 -6.79118 0.854316 
117 2 27.1949 25.7365 34.8639 10.5636 -6.94813 2.07456 
118 1 14.042 15.2722 12.4152 -6.98046 5.31304 -41.3336 
119 2 14.3635 15.7719 13.1656 10.4373 16.2949 7.19166 
120 2 14.3154 15.7819 11.6525 -7.62897 -16.9701 33.4178 
121 1 6.75572 6.34761 6.04904 -14.913 -114.378 50.8323 
122 2 7.52382 5.77889 6.1022 89.7723 50.1259 -42.1802 
123 2 6.04245 5.82212 6.41148 -76.7731 69.3424 -2.39869 
124 1 10.8653 34.9299 25.9813 -12.691 35.3986 86.5855 
125 2 10.7304 35.3349 26.838 6.78153 -45.5644 -81.4521 
126 2 11.5626 35.4473 25.5784 9.92948 4.856 -7.07708 
127 1 18.3449 30.5117 26.2753 -103.107 -57.9301 72.3714 
128 2 18.0864 30.3259 25.3725 26.7237 15.8486 -29.6445 
129 2 19.1377 31.0419 26.1936 65.5933 39.9704 -39.8997 
130 1 13.1854 0.779973 20.6243 81.3777 12.0416 59.4967 
131 2 13.4027 0.553288 21.5285 14.4341 14.3149 -18.5238 
132 2 12.3296 0.377931 20.4752 -83.0606 -29.5325 -38.428 
133 1 24.4788 24.0591 28.2097 -118.912 -31.1893 -55.4725 
134 2 24.1351 23.1975 27.9733 62.8124 16.5818 27.6012 
135 2 23.752 24.6603 28.0467 42.8457 25.2665 21.0462 
136 1 30.7914 15.3383 34.8666 -36.8734 -27.4228 -38.7829 
137 2 31.1297 15.2985 0.314002 43.4745 5.19776 74.1708 
138 2 30.0192 14.7728 34.8767 -3.99114 4.82244 -19.2854 
139 1 18.3088 19.7692 34.2383 43.6473 -35.1725 -56.0785 
140 2 17.808 20.1629 33.5238 -92.1196 74.2998 -2.9096 
141 2 19.0026 19.2752 33.8013 48.8682 -37.2392 66.2367 
142 1 24.189 16.2105 25.5385 -0.181209 -16.6726 59.0143 
143 2 24.349 17.1409 25.3808 2.42437 26.5156 -15.3934 
144 2 24.2607 16.1121 26.488 -2.83765 -5.75982 -36.6239 
145 1 9.29124 8.02555 32.2386 2.48948 -29.6534 -24.8342 
146 2 10.2134 7.8576 32.4327 31.8036 20.4105 17.0655 
147 2 9.01097 7.26542 31.7288 -26.4691 14.1164 -4.4899 
148 1 5.33072 1.15323 27.6455 -99.5241 -60.3872 -16.82 
149 2 4.53119 0.648193 27.4974 81.2369 20.6794 11.1662 
150 2 5.02358 2.04221 27.8233 17.4124 37.2156 9.91232 
151 1 22.8986 21.3393 11.6393 28.1132 127.743 73.0574 
152 2 23.2137 20.533 12.0479 33.0241 -93.8932 48.8254 
153 2 22.4644 21.0481 10.8374 -63.9384 -44.2191 -122.295 
154 1 16.8853 32.6084 23.1632 -40.2231 21.2143 -13.5481 
155 2 15.9412 32.7546 23.1043 69.618 -40.0453 12.4309 
156 2 16.9707 31.688 23.4119 -32.3722 12.1186 -5.38012 
157 1 29.2445 7.09638 23.7072 -1.12957 -3.65594 21.0543 
158 2 28.5132 7.5433 24.1336 40.6101 12.7753 -56.5041 
159 2 29.5003 7.68133 22.9941 -50.5075 13.9556 40.0132 
160 1 34.2995 6.85607 2.08221 -41.6067 85.9705 -42.0765 
161 2 34.928 6.93053 1.36409 61.0147 -50.7124 -15.7023 
162 2 33.7562 7.64071 2.00804 -26.0889 -31.781 52.5771 
163 1 32.9538 29.2697 19.2601 25.0772 4.67584 -9.25793 
164 2 32.6162 28.3947 19.4512 6.09507 -0.239467 -8.85929 
165 2 33.629 29.1269 18.5967 -36.3898 0.969014 34.9175 
166 1 9.782 33.7315 21.9679 23.6304 -12.3053 113.32 
167 2 9.27554 33.1646 21.3863 28.7547 58.3849 -65.0641 
168 2 10.1185 34.422 21.3969 -43.9505 -45.3547 -65.3708 
169 1 7.86172 6.97535 8.72743 5.31026 117.758 1.6484 
170 2 8.12672 6.10163 9.01491 -17.4208 -76.0839 -8.70951 
171 2 7.18636 6.81647 8.06797 4.22171 -49.2367 4.72701 
172 1 34.2523 27.8162 31.7928 4.42728 37.1672 22.9422 
173 2 34.6656 28.5971 31.4245 -22.2446 -26.6653 23.5366 
174 2 33.7864 28.1334 32.5665 26.7616 -2.81452 -43.2471 
175 1 34.9408 26.8493 19.5207 -40.8253 20.186 -15.7627 
176 2 35.3567 26.0213 19.7607 47.8518 -45.0982 20.9735 
177 2 34.1941 26.5945 18.9786 -19.8359 20.7404 -9.04553 
178 1 21.7634 32.2052 20.8913 40.2319 -7.57914 11.5032 
179 2 22.6356 31.8785 21.1119 -61.4458 48.6587 -12.7466 
180 2 21.8052 33.1438 21.0744 21.6291 -41.0188 -1.29321 
181 1 34.3069 3.4369 14.2416 11.8825 -4.17747 -6.06276 
182 2 34.8955 2.86956 13.7437 -6.07372 58.069 42.8805 
183 2 34.8876 4.05554 14.6847 0.534158 -52.3872 -36.6293 
184 1 17.8805 18.9098 14.4214 18.2247 4.88776 64.045 
185 2 17.9548 18.9993 15.3715 -42.8043 -30.1627 -8.62782 
186 2 18.5763 19.4669 14.0726 32.4897 21.6255 -64.6188 
187 1 19.084 14.23 20.7836 110.796 -60.9746 98.9936 
188 2 19.5859 13.8071 21.4803 -40.7047 88.2745 -62.4523 
189 2 18.6613 13.5073 20.3196 -48.7232 -31.1271 -64.9364 
190 1 7.86003 17.978 9.48229 -28.237 73.4846 14.5895 
191 2 7.53996 18.808 9.12874 -16.2898 29.8858 41.7847 
192 2 8.10073 17.4653 8.71064 41.8456 -98.8301 -50.6458 
193 1 0.304617 23.1831 0.38096 -78.3927 60.1352 -2.29358 
194 2 35.3295 24.0104 0.390698 61.0788 -8.89985 -2.77166 
195 2 35.1318 22.5097 0.420236 19.2727 -54.2865 -4.32405 
196 1 4.53589 21.216 29.8616 25.0598 -50.3298 37.7541 
197 2 5.09258 21.9865 29.7486 12.5883 75.9238 -33.6575 
198 2 5.02947 20.648 30.4532 -34.5266 -23.3977 -2.20192 
199 1 3.76258 1.66522 34.1156 20.1869 41.1278 62.7052 
200 2 4.69217 1.8395 33.9682 1.88904 -6.47658 -21.3021 
201 2 3.6079 1.93725 35.0202 -13.7483 -26.962 -46.3795 
202 1 35.18 34.703 7.53061 -5.65508 -102.057 61.1201 
203 2 34.2674 34.45 7.391 73.3918 -0.541703 20.1152 
204 2 0.039622 33.9969 8.06332 -71.5895 97.8188 -77.7579 
205 1 24.8192 8.21475 16.0928 43.6176 5.27942 48.1074 
206 2 25.5443 8.83016 15.9844 -25.7863 -9.11079 -14.9001 
207 2 25.0356 7.7264 16.8871 -28.0524 3.85964 -38.3966 
208 1 4.18203 28.528 29.7088 41.5799 -18.4054 9.76833 
209 2 5.08976 28.4127 29.9899 -13.4909 -11.6805 29.9384 
210 2 4.2439 29.0359 28.8999 -35.7908 29.3683 -45.3609 
211 1 26.4364 31.2732 3.91789 49.4594 16.1792 -4.09451 
212 2 26.5539 30.6091 3.23869 -23.3814 -19.6039 -7.625 
213 2 27.2972 31.6828 4.00459 -24.6028 4.5394 12.5465 
214 1 35.1129 7.70441 27.0798 21.9105 0.565462 41.1714 
215 2 35.1479 7.37061 27.9763 -25.8854 -2.87034 -84.2074 
216 2 34.5635 7.07612 26.6111 6.2251 -2.52059 38.5326 
217 1 21.4537 34.0564 2.90079 44.0394 20.1673 12.9283 
218 2 21.0733 33.794 3.73906 24.8882 24.4222 -24.099 
219 2 22.2378 34.5516 3.13761 -65.8204 -38.3052 7.28173 
220 1 31.2126 3.31209 25.8037 -39.5059 178.463 71.9614 
221 2 30.7527 4.00258 25.3262 19.1009 -84.3985 -20.4576 
222 2 31.4851 3.72687 26.6222 8.64932 -86.8097 -50.8943 
223 1 7.37047 1.049 25.8311 -34.6037 -105.976 -17.3001 
224 2 7.45985 0.254776 25.3043 30.7853 56.4536 3.7687 
225 2 6.67901 0.843187 26.4602 5.83672 41.2452 14.0228 
226 1 30.3443 6.0935 15.7346 29.0103 -50.3202 57.2757 
227 2 30.8577 5.55742 15.1302 -17.0625 19.1427 11.7234 
228 2 30.4383 5.6573 16.5814 -13.6217 36.2093 -68.8758 
229 1 34.9406 25.1535 32.0359 -53.0762 -30.1649 90.3946 
230 2 34.6475 24.6313 32.7827 26.3961 117.066 -102.702 
231 2 34.5757 26.0242 32.1941 15.1417 -80.1978 19.5365 
232 1 0.486827 26.4103 7.95722 124.875 -85.7052 40.59 
233 2 35.2606 26.1137 7.41716 -79.3455 0.456501 -47.345 
234 2 0.316061 27.3408 8.10317 -44.4252 80.7273 0.713515 
235 1 28.5546 15.8348 29.5308 66.8025 41.4978 -5.89079 
236 2 28.4016 16.7769 29.603 -5.5961 -48.4331 0.809848 
237 2 29.4774 15.7595 29.2877 -69.7011 1.65452 15.1976 
238 1 18.1482 14.6895 4.78996 8.00082 -70.2306 -11.2 
239 2 18.482 15.5072 5.15915 48.1651 77.4657 47.0685 
240 2 17.3317 14.9376 4.35647 -49.4963 -7.10304 -29.2879 
241 1 23.9882 17.7998 4.00135 20.3949 74.3027 21.119 
242 2 24.8648 17.7641 3.61845 -68.5798 -57.8839 7.89019 
243 2 23.6128 16.9377 3.82215 51.9494 -25.0455 -30.3431 
244 1 27.7862 18.3989 29.8265 -63.6581 -49.8202 70.1486 
245 2 27.1292 18.9462 30.2565 -7.75297 -4.80631 2.21132 
246 2 28.306 19.0119 29.3064 63.0177 59.3949 -62.3275 
247 1 32.5582 20.9927 23.1604 38.3772 -15.0773 -39.4729 
248 2 33.1231 20.5952 22.4977 6.98637 -51.1748 14.5939 
249 2 32.4888 21.9104 22.8973 -35.7752 58.1314 21.5966 
250 1 0.528608 10.6878 20.5129 -45.1825 -91.6801 -43.9594 
251 2 35.2342 10.7282 21.0358 48.3923 39.2871 -3.51685 
252 2 1.04905 11.433 20.8129 -6.60051 50.7162 44.2546 
253 1 24.9866 7.82749 20.9415 -6.60822 19.7581 -51.3802 
254 2 25.8535 7.95815 20.5572 -4.03983 -7.49698 19.0213 
255 2 24.377 8.11853 20.2633 16.7624 -16.0334 39.3525 
256 1 22.843 20.1255 4.77966 -5.35193 8.30823 7.63631 
257 2 23.2394 19.2562 4.83915 6.63705 -10.0641 -1.45143 
258 2 23.5621 20.6995 4.51581 -2.434 -0.970204 -5.47414 
259 1 33.5356 10.0152 10.4555 12.5933 37.9752 -122.351 
260 2 32.8766 9.38348 10.7435 50.3779 9.66049 78.5068 
261 2 34.0545 10.1949 11.2395 -59.5617 -58.0541 41.63 
262 1 16.0063 10.0182 6.93569 -102.376 -18.2949 26.802 
263 2 16.3601 10.7312 6.40402 19.5437 35.7976 -25.6892 
264 2 15.0648 10.1875 6.96843 82.7652 -14.9595 0.289532 
265 1 29.8113 30.3232 24.406 -23.7178 98.4642 -3.14443 
266 2 29.922 30.0038 25.3015 12.0233 -11.0747 81.5559 
267 2 29.9367 29.5487 23.8577 11.5541 -81.6359 -77.4595 
268 1 4.63644 9.89466 32.0912 120.797 -9.32754 65.1128 
269 2 4.05974 9.6844 31.3567 -76.1477 -19.9134 -84.1071 
270 2 5.44173 9.40979 31.9105 -48.0989 32.1609 19.6015 
271 1 32.8568 18.7926 15.2635 -51.2923 14.5456 -75.9336 
272 2 33.0922 17.9405 15.6308 24.7186 -23.8985 32.9854 
273 2 33.3873 19.4203 15.7543 39.5623 6.46069 40.5207 
274 1 0.620035 7.9515 15.2532 -143.122 -14.9926 129.979 
275 2 0.0510458 7.86056 16.0175 123.296 5.69832 -56.917 
276 2 35.5239 8.03812 14.5144 24.9711 5.12758 -70.7027 
277 1 2.41065 1.86754 23.9447 -40.4756 105.488 -9.40925 
278 2 2.47755 1.8148 22.9913 11.2521 -33.4133 32.9604 
279 2 2.77411 1.03892 24.257 34.231 -72.5424 -13.211 
280 1 35.1326 4.79391 16.9146 106.68 -42.9244 -68.6416 
281 2 34.777 5.68071 16.8566 -63.4326 2.62601 40.6823 
282 2 34.4928 4.31261 17.4393 -62.593 37.258 23.7005 
283 1 0.971748 31.0445 15.1789 76.4355 -14.7966 -16.0432 
284 2 35.5565 31.2671 15.3104 -50.0812 0.95173 26.557 
285 2 1.19513 30.494 15.9294 -27.3807 17.0655 -11.5771 
286 1 2.20035 4.72159 17.0276 47.0668 39.7929 17.8805 
287 2 2.33908 5.61694 17.3364 61.7702 15.4537 12.3053 
288 2 1.25717 4.66382 16.8749 -87.1196 -55.0563 -28.2108 
289 1 11.3254 9.4347 18.2344 11.7976 -10.4379 24.5317 
290 2 11.3164 9.66372 17.3051 -25.075 5.1143 3.69917 
291 2 10.4471 9.65542 18.5445 7.50548 -0.11578 -26.3305 
292 1 1.17591 29.8737 2.3068 -107.463 -153.382 44.0449 
293 2 0.828878 30.5377 1.71103 86.6769 59.3349 7.20169 
294 2 2.04257 30.1991 2.55023 21.8408 99.5657 -50.7846 
295 1 30.8956 1.46771 1.98014 -75.339 129.725 59.4699 
296 2 31.6312 1.00728 2.38406 42.7946 -65.7909 -19.7995 
297 2 30.7103 0.971315 1.18295 34.3845 -56.7708 -28.112 
298 1 5.03388 1.93986 10.3156 40.2198 -8.9614 79.105 
299 2 4.31666 1.9889 10.9476 -10.0479 4.93042 54.0974 
300 2 4.60913 2.03307 9.4629 -17.7046 6.17047 -105.855 
301 1 12.089 2.71992 8.77078 -0.44395 146.49 0.351241 
302 2 11.7554 3.02262 9.61538 -27.0699 -84.9299 99.2585 
303 2 12.2005 3.51938 8.2563 39.3597 -64.2996 -86.5592 
304 1 33.0148 6.97463 32.6982 59.5937 11.0476 -7.192 
305 2 32.3935 6.99179 31.9702 -72.4361 0.276944 -27.2154 
306 2 33.8723 7.07198 32.2842 7.82339 -9.57214 40.7648 
307 1 24.198 6.71447 6.6216 35.4711 -61.6312 -34.9 
308 2 24.4396 5.98182 6.05494 -3.14269 40.3724 37.7002 
309 2 23.3814 7.04694 6.24897 -29.5513 22.2993 -1.9748 
310 1 11.2072 33.6597 13.7404 -90.0765 -14.1081 5.97921 
311 2 11.1307 33.961 12.8351 58.6471 -3.82007 33.6458 
312 2 12.1269 33.8025 13.9641 27.3421 17.4136 -46.6304 
313 1 9.04559 20.2483 13.1334 -12.3327 118.563 28.8468 
314 2 8.84419 19.4861 13.6763 14.5411 -47.5289 -57.295 
315 2 9.26221 19.8818 12.2761 -9.75541 -75.679 25.6173 
316 1 8.42923 16.2958 7.43331 124.073 -42.0451 -52.7424 
317 2 9.13467 15.7129 7.15261 -46.0416 66.5848 23.4621 
318 2 7.69911 15.71 7.63334 -74.6834 -28.5133 18.2854 
319 1 8.18104 30.9568 14.0723 -133.551 72.597 -7.443 
320 2 7.61271 30.5196 14.7065 49.0629 -6.08976 -18.3683 
321 2 7.66595 31.7014 13.7617 83.6323 -69.5569 10.9112 
322 1 17.7645 27.7213 30.1781 51.9341 -123.736 -74.5055 
323 2 17.6426 28.6085 29.84 -29.2491 52.2985 53.3968 
324 2 17.4532 27.7641 31.0823 -27.5855 68.413 26.443 
325 1 17.4568 25.8552 16.7827 154.473 -58.3036 63.0945 
326 2 18.0215 26.5675 17.0825 -59.5731 -25.912 -28.4384 
327 2 17.9731 25.0623 16.9277 -97.2115 84.5361 -31.6402 
328 1 28.6 12.4539 18.305 6.49159 -106.916 62.1566 
329 2 28.8491 12.5384 17.3846 0.679384 33.4404 -47.7569 
330 2 28.3481 13.3392 18.5677 -11.5062 71.0539 -6.87848 
331 1 20.0399 19.6067 21.614 3.01922 17.046 38.0965 
332 2 19.2616 19.3948 22.1295 -54.7351 -40.0747 -11.8341 
333 2 20.5158 20.2426 22.1483 33.955 6.52502 -34.0655 
334 1 24.4307 31.0807 15.275 23.5122 -14.3992 -27.9385 
335 2 24.6303 31.0822 14.3389 -51.3969 23.1188 70.6773 
336 2 23.6561 31.6372 15.3562 21.8003 -10.0533 -44.1874 
337 1 14.0344 4.28348 28.231 58.5623 -7.93259 -45.5328 
338 2 13.7612 5.01885 27.6826 -51.1202 45.9101 7.95334 
339 2 14.7762 3.89853 27.7643 -10.9784 -32.6367 41.9163 
340 1 3.18854 1.92069 1.25146 -20.104 97.423 -144.691 
341 2 3.9078 2.01521 1.87594 -44.2109 -69.4343 59.7438 
342 2 2.6209 1.25404 1.63827 62.3149 -16.3633 79.9835 
343 1 22.5438 23.6026 9.4683 -87.252 -6.22256 -36.4821 
344 2 22.8416 22.8247 8.99672 14.7837 -22.9257 -12.1197 
345 2 23.3332 23.947 9.886 82.1846 37.0176 42.2679 
346 1 6.44607 3.02132 18.876 78.7812 47.2181 -22.7118 
347 2 5.96158 2.75632 19.6579 -41.5365 -23.3135 99.9642 
348 2 5.92777 2.68238 18.1461 -36.0119 -20.5394 -78.3414 
349 1 12.3169 10.9432 26.1829 -5.08656 -28.0125 43.4747 
350 2 11.8078 11.5545 26.7152 16.3468 -20.8769 -15.1568 
351 2 12.4989 10.2086 26.769 -4.79142 30.8135 -20.3199 
352 1 8.93682 1.70871 18.8141 -58.6924 9.95536 -22.4594 
353 2 9.38413 2.41209 19.2847 65.4522 22.7208 33.2048 
354 2 8.08246 2.07653 18.5882 -7.64927 -33.5054 -10.5631 
355 1 2.23471 20.2183 0.676125 -163.761 -2.13057 -62.3142 
356 2 1.94055 19.3844 0.309555 79.6101 -58.4522 18.6978 
357 2 1.49985 20.8152 0.534791 75.9203 50.0528 46.035 
358 1 32.3471 18.1361 22.3814 33.0839 -23.5078 39.0562 
359 2 31.7985 18.8718 22.6535 -58.2719 59.1757 -20.3121 
360 2 32.8137 17.8777 23.1762 25.448 -34.6631 -15.3604 
361 1 20.2462 32.095 18.494 -44.3344 3.0311 -25.3448 
362 2 19.4254 32.5546 18.6705 65.2391 -20.7042 28.631 
363 2 20.7682 32.2231 19.286 -36.9082 18.5041 12.5029 
364 1 32.4443 13.4841 19.5474 -10.9594 -49.1601 -73.407 
365 2 32.4715 14.2622 20.1041 -32.1411 15.5405 -66.0445 
366 2 32.0113 13.7776 18.7457 38.6789 32.0174 122.655 
367 1 35.2662 18.2165 1.39492 32.4568 25.5004 34.1354 
368 2 0.0781831 18.3756 2.28352 14.7457 5.48261 -32.5375 
369 2 34.5289 17.6166 1.50792 -53.602 -35.4773 -19.5135 
370 1 3.39321 26.4378 7.35976 -132.051 -84.8389 -66.0548 
371 2 2.46301 26.3969 7.5818 68.4405 43.1117 36.9187 
372 2 3.47809 25.8893 6.57987 64.6112 37.2069 30.8245 
373 1 15.9473 21.7571 15.7717 80.2477 37.3872 97.4646 
374 2 16.5322 22.1216 15.1074 -34.0919 -18.5258 -16.5313 
375 2 15.2781 21.2896 15.2718 -24.9871 -11.8194 -70.5596 
376 1 20.4938 23.5717 7.41159 50.8193 20.4004 68.0395 
377 2 19.762 23.467 8.01969 -37.5397 -16.3792 -20.7314 
378 2 21.2331 23.8203 7.96634 -4.87661 -6.30441 -49.9873 
379 1 6.64522 4.33607 1.9108 -89.8952 -38.2359 -27.7463 
380 2 6.3417 4.912 1.20907 37.8968 -2.82108 23.7595 
381 2 7.47689 4.71773 2.1917 37.5115 41.0863 -6.03177 
382 1 26.7061 32.8934 9.88993 -46.2541 34.8766 -56.947 
383 2 26.6289 31.9395 9.9114 27.757 8.92786 33.4513 
384 2 27.3372 33.0987 10.5797 20.6789 -38.3521 25.8477 
385 1 5.48762 32.6298 12.9312 90.8528 -39.6573 -57.829 
386 2 5.6899 33.4572 13.3679 -41.8708 9.12524 24.0689 
387 2 4.57656 32.4516 13.1646 -41.376 32.1412 34.7119 
388 1 3.37037 5.95494 9.99259 -73.6018 1.37215 -95.8919 
389 2 3.97871 6.51332 10.4767 56.43 33.8593 55.7786 
390 2 3.42291 5.10584 10.4314 15.7429 -37.8924 39.7238 
391 1 2.63508 9.37827 30.0091 21.121 18.2333 -26.021 
392 2 2.77034 9.84765 29.1859 -49.0229 -52.7445 61.9651 
393 2 1.72909 9.07251 29.965 32.3238 35.317 -35.2681 
394 1 0.977609 8.01621 8.99919 -111.563 -11.1128 68.7844 
395 2 1.80768 8.15617 8.54352 75.3304 32.5143 -57.4543 
396 2 0.443131 8.77422 8.76255 38.9877 -26.0165 -8.7021 
397 1 2.73739 11.5303 15.3858 -0.442878 -61.1168 -47.9938 
398 2 3.53085 11.7961 15.8506 80.7975 102.272 87.973 
399 2 2.95627 10.6803 15.004 -64.613 -35.0083 -44.0725 
400 1 18.3556 23.1694 17.3713 -20.4775 -22.0644 -13.6739 
401 2 17.8315 22.4691 16.9827 50.8265 45.4387 -4.75072 
402 2 19.0225 23.3638 16.7128 -39.801 -33.8349 4.72978 
403 1 9.12975 4.89663 5.72344 95.4048 128.979 43.9469 
404 2 9.74879 5.58115 5.97734 -92.9449 -70.912 -48.2661 
405 2 9.47026 4.10122 6.13285 -2.30589 -59.3782 14.5398 
406 1 7.31487 35.3513 12.8636 -53.7009 10.8717 -37.9202 
407 2 7.73273 35.1803 13.7076 3.88322 -3.06639 44.3497 
408 2 6.41171 0.0723024 13.0846 65.4322 -13.1168 3.70361 
409 1 0.521146 24.4006 19.6652 23.4031 31.7994 89.2139 
410 2 0.81366 23.586 20.0739 -16.8799 22.5984 -36.8923 
411 2 0.269965 24.1469 18.7771 -16.5335 -39.5627 -65.1023 
412 1 11.6427 23.42 11.5287 41.9603 -80.4573 -53.5971 
413 2 12.5664 23.6709 11.5231 -57.7336 33.5005 25.4825 
414 2 11.2049 24.1268 12.0031 30.9178 34.3145 7.24893 
415 1 3.45754 3.18434 19.1296 -0.791523 -195.631 19.4209 
416 2 3.14656 3.75098 18.4236 -39.9981 101.254 -92.2787 
417 2 3.78767 3.78858 19.7945 39.2864 99.8256 68.2361 
418 1 20.6324 31.64 26.8937 -50.896 -88.2509 -36.3265 
419 2 21.2188 31.7854 26.1513 29.9033 0.455118 -37.7432 
420 2 20.8442 32.3427 27.5082 29.1877 97.6429 84.8576 
421 1 27.8733 20.3289 9.33363 33.4251 35.6949 -34.4631 
422 2 27.043 20.7293 9.07542 -1.36718 -21.0707 18.556 
423 2 27.6306 19.674 9.98818 -35.5326 -16.8023 19.2559 
424 1 31.2911 11.9345 0.401079 -0.669509 -1.5057 14.1636 
425 2 31.3346 12.033 1.35222 66.4446 3.47246 60.5543 
426 2 30.3556 11.9582 0.199844 -70.6666 -5.75203 -80.5383 
427 1 21.3945 7.42481 2.71765 40.4438 -7.61201 -28.0919 
428 2 22.2268 6.9521 2.71221 -74.2935 29.919 30.902 
429 2 21.0664 7.32279 3.61106 25.307 -16.9995 -1.99737 
430 1 20.0198 19.5365 17.1659 77.726 3.43199 -2.6656 
431 2 19.0718 19.4551 17.0617 -101.912 -24.19 -30.1089 
432 2 20.1298 20.0787 17.9471 30.6105 23.147 30.7171 
433 1 3.61397 34.6745 24.7218 -109.308 14.9079 63.5267 
434 2 3.62587 34.539 25.6693 57.4424 8.28404 -116.419 
435 2 4.52288 34.5476 24.4497 49.8739 -17.5674 50.3328 
436 1 23.4164 19.5568 18.899 8.1154 -3.76905 8.85423 
437 2 24.0628 19.0481 18.4095 -6.46996 7.58754 -7.80924 
438 2 23.0406 20.1537 18.2519 8.76205 -8.26691 -1.39997 
439 1 13.0197 3.81797 4.39004 -13.751 -29.1759 87.5723 
440 2 13.3658 3.12571 3.82679 28.7745 -69.2024 -39.3079 
441 2 12.942 4.57905 3.81474 -11.8278 86.2159 -47.0621 
442 1 15.2845 28.3697 13.0717 -95.1139 -12.2299 -48.7565 
443 2 15.6975 28.8397 12.3473 54.9125 27.8223 -4.42333 
444 2 14.4265 28.1135 12.7335 32.4002 -8.41115 55.0494 
445 1 31.0729 4.63924 29.6443 -6.76117 59.7208 11.8063 
446 2 30.905 5.34935 30.2638 16.8108 -48.7851 -51.7218 
447 2 31.2708 5.08233 28.8192 2.74051 -14.2359 41.6695 
448 1 18.6697 22.7204 9.28188 64.4602 -69.137 86.0174 
449 2 19.3896 22.6437 9.9081 -51.066 36.4415 -57.6202 
450 2 18.234 21.8687 9.31152 -10.0184 22.6509 -21.3654 
451 1 20.6769 4.79527 26.4455 112.125 37.3145 -38.5672 
452 2 21.3077 4.88435 25.731 31.8742 24.8201 47.3011 
453 2 19.9194 4.36867 26.0451 -142.877 -60.5842 -8.85356 
454 1 23.3256 28.5944 34.8758 -49.0897 -75.8034 4.91447 
455 2 22.3798 28.7293 34.8168 -15.7028 66.527 -10.1902 
456 2 23.4249 27.655 35.0304 62.731 20.2169 4.14569 
457 1 19.3044 32.1589 13.0141 -29.5809 23.5704 45.9915 
458 2 18.8311 32.2128 13.8443 -12.7724 -41.1367 6.13506 
459 2 19.7127 33.0189 12.9144 31.6374 4.45258 -49.2538 
460 1 34.7634 20.4998 35.2443 -13.6499 93.575 -4.385 
461 2 34.8055 20.2032 34.3351 5.28093 -46.3307 73.4743 
462 2 34.8943 19.7055 0.314969 7.43231 -45.8009 -53.0403 
463 1 13.9861 1.37234 3.23 -17.3905 76.8784 -30.4277 
464 2 13.6014 0.497041 3.27534 -38.5888 -70.4565 1.30393 
465 2 14.8347 1.28425 3.66407 58.6516 -6.1958 30.8329 
466 1 24.9605 8.59214 8.51438 71.9788 47.2208 45.683 
467 2 24.9432 7.91317 7.83988 -28.7961 -55.0824 -53.6017 
468 2 25.8898 8.71292 8.70958 -43.6741 10.0154 9.12725 
469 1 14.1786 14.8674 29.6201 -55.0628 -68.3241 -6.25569 
470 2 14.4547 13.9914 29.8895 -3.51416 41.8122 -10.9206 
471 2 13.2518 14.7702 29.4012 58.2236 16.0113 13.2021 
472 1 32.4922 9.01235 2.57225 60.3162 55.0596 -15.4453 
473 2 31.9249 8.89765 3.33466 -31.9796 -13.4608 35.4835 
474 2 32.9537 9.83445 2.73797 -18.9102 -40.2828 -15.6205 
475 1 33.4785 32.1769 27.4678 -36.0697 66.285 -128.06 
476 2 33.3593 32.1783 28.4175 33.2141 -61.8531 39.0471 
477 2 34.0456 31.4246 27.2982 -1.20475 -7.74747 75.6765 
478 1 31.0956 6.22277 0.75316 -1.68791 3.1179 22.1487 
479 2 31.59 5.84207 35.4745 1.32683 72.8085 26.2947 
480 2 31.3748 7.13796 0.779867 5.56221 -88.5619 -52.6526 
481 1 14.5717 18.7904 19.0881 -37.3197 3.53263 -16.8672 
482 2 15.4679 18.7544 19.4223 105.341 49.1246 32.5226 
483 2 14.2779 17.8794 19.0906 -69.5095 -56.084 -18.0849 
484 1 34.1233 15.7722 34.7603 -68.787 99.0112 -45.9824 
485 2 34.1397 15.2396 0.108299 16.1175 -69.8001 72.5325 
486 2 33.3672 16.3483 34.8728 50.5399 -25.6276 -28.6308 
487 1 27.185 6.31325 11.1444 -10.152 -29.5811 59.2476 
488 2 27.1779 6.89013 10.3806 5.72129 45.5244 -74.8985 
489 2 26.8382 6.85214 11.8554 9.71853 -16.3633 2.97909 
490 1 11.8433 26.7799 35.2855 30.4022 23.9277 -92.2132 
491 2 11.0199 26.4465 0.194727 -85.2345 -31.5198 31.3192 
492 2 12.4362 26.8075 0.589303 53.1338 2.65929 55.988 
493 1 7.69402 20.7204 27.4987 1.79057 89.8662 -4.7832 
494 2 7.6955 21.6527 27.2816 -8.50029 -21.6446 45.407 
495 2 7.81217 20.278 26.6581 5.64822 -75.2982 -39.207 
496 1 23.5086 8.78525 32.0301 53.7446 137.692 106.931 
497 2 23.271 8.22239 31.2932 -36.2918 -106.054 -11.4029 
498 2 23.3895 8.23251 32.8025 -13.1224 -25.361 -93.2468 
499 1 15.5723 12.9998 12.6022 -61.849 -26.1968 -183.135 
500 2 14.8092 13.5199 12.8541 7.43183 14.6243 36.583 
501 2 15.427 12.7919 11.6792 54.5257 13.4483 130.138 
502 1 11.2985 27.9294 8.6854 23.1152 -19.3718 -75.1387 
503 2 11.6352 27.1258 8.28897 9.67304 -70.3423 49.655 
504 2 11.2946 28.5662 7.97077 -23.8632 81.7385 18.9316 
505 1 15.7586 14.5554 3.4991 -8.20249 -59.9263 -66.7933 
506 2 16.0207 15.0913 2.75059 0.143613 26.6417 14.6013 
507 2 15.6309 13.6797 3.13428 0.262132 39.9968 44.162 
508 1 29.042 26.8837 19.8513 -11.7145 -32.1786 -32.6432 
509 2 28.5771 26.7987 19.0189 7.81062 -10.9956 2.48898 
510 2 28.9565 27.8091 20.0806 0.171708 60.5996 27.2904 
511 1 28.0275 8.84497 0.367598 13.4533 -7.20738 71.0945 
512 2 28.9832 8.89053 0.338066 41.255 8.50518 -59.4352 
513 2 27.8216 8.72304 1.29441 -61.4887 -2.58931 -0.227275 
514 1 32.7498 2.39469 21.0187 -49.2344 157.964 20.5985 
515 2 32.2039 1.60948 20.978 45.7607 -72.66 -9.16697 
516 2 33.6468 2.06698 20.9535 12.2647 -89.4033 -3.91285 
517 1 16.2518 5.40714 30.7296 176.034 127.855 -121.817 
518 2 16.7322 6.23429 30.7652 -114.2 -83.4266 70.7216 
519 2 16.6149 4.95125 29.9702 -71.1617 -39.2645 63.1616 
520 1 28.5774 22.3151 24.2235 126.464 -30.0745 123.215 
521 2 28.6145 23.0449 24.8418 -50.2287 23.9506 -43.3353 
522 2 29.2544 21.7097 24.5259 -73.5696 11.9078 -76.2697 
523 1 31.7128 17.9846 9.79808 -72.66 70.2809 -108.931 
524 2 32.5424 17.6112 10.0956 92.5579 -53.8911 58.0559 
525 2 31.0865 17.7557 10.4849 -12.0469 -16.3097 47.7217 
526 1 28.8218 33.2443 34.5954 11.3632 13.4381 -69.1097 
527 2 28.5344 33.9618 34.0308 8.10746 -33.2748 41.731 
528 2 28.3356 33.3706 35.4102 -7.0575 14.7438 9.60856 
529 1 34.6093 19.7152 32.7136 -58.4991 51.5425 -18.2983 
530 2 34.6152 19.2892 31.8564 16.8286 -21.6165 -3.19767 
531 2 33.942 20.3972 32.6381 48.1976 -38.2016 17.2125 
532 1 17.6954 27.6501 3.21718 -72.6845 1.30547 -51.6073 
533 2 18.4481 27.4622 3.77784 55.1781 20.3748 30.2719 