LAMMPS data file via write_data, version 27 Nov 2018, timestep = 1100100

383 atoms
8 atom types
342 bonds
9 bond types
562 angles
14 angle types
534 dihedrals
11 dihedral types
348 impropers
11 improper types

-5.0514130135769175e-01 1.5783110029075640e+01 xlo xhi
-8.0620338035756767e-01 1.5482047948350324e+01 ylo yhi
-8.6275306635756799e-01 1.5425498262350324e+01 zlo zhi

Masses

1 12.0112
2 12.0112
3 15.9994
4 1.00797
5 1.00797
6 12.0112
7 12.0112
8 1.00797

Pair Coeffs # lj/class2/coul/long

1 lj/class2/coul/long 0.054 4.01
2 lj/class2/coul/long 0.054 4.01
3 lj/class2/coul/long 0.24 3.535
4 lj/class2/coul/long 0.02 2.995
5 lj/class2/coul/long 0.013 1.098
6 lj/class2/coul/long 0.054 4.01
7 lj/class2/coul/long 0.054 4.01
8 lj/class2/coul/long 0.02 2.995

Bond Coeffs # class2

1 1.53 299.67 -501.77 679.81
2 1.101 345 -691.89 844.6
3 1.101 345 -691.89 844.6
4 1.42 400.395 -835.195 1313.01
5 0.965 532.506 -1282.9 2004.77
6 1.53 299.67 -501.77 679.81
7 1.101 345 -691.89 844.6
8 1.53 299.67 -501.77 679.81
9 1.101 345 -691.89 844.6

Angle Coeffs # class2

1 110.77 41.453 -10.604 5.129
2 107.66 39.641 -12.921 -2.4318
3 110.77 41.453 -10.604 5.129
4 111.27 54.5381 -8.3642 -13.0838
5 107.66 39.641 -12.921 -2.4318
6 108.728 58.5446 -10.8088 -12.4006
7 105.8 52.7061 -12.109 -9.8681
8 110.77 41.453 -10.604 5.129
9 107.66 39.641 -12.921 -2.4318
10 112.67 39.516 -7.443 -9.5583
11 110.77 41.453 -10.604 5.129
12 110.77 41.453 -10.604 5.129
13 107.66 39.641 -12.921 -2.4318
14 112.67 39.516 -7.443 -9.5583

BondBond Coeffs

1 3.3872 1.53 1.101
2 5.3316 1.101 1.101
3 3.3872 1.53 1.101
4 11.4318 1.53 1.42
5 5.3316 1.101 1.101
6 23.1979 1.42 1.101
7 -9.6879 1.42 0.965
8 3.3872 1.53 1.101
9 5.3316 1.101 1.101
10 0 1.53 1.53
11 3.3872 1.53 1.101
12 3.3872 1.53 1.101
13 5.3316 1.101 1.101
14 0 1.53 1.53

BondAngle Coeffs

1 20.754 11.421 1.53 1.101
2 18.103 18.103 1.101 1.101
3 20.754 11.421 1.53 1.101
4 2.6868 20.4033 1.53 1.42
5 18.103 18.103 1.101 1.101
6 55.327 4.6189 1.42 1.101
7 28.58 18.9277 1.42 0.965
8 20.754 11.421 1.53 1.101
9 18.103 18.103 1.101 1.101
10 8.016 8.016 1.53 1.53
11 20.754 11.421 1.53 1.101
12 20.754 11.421 1.53 1.101
13 18.103 18.103 1.101 1.101
14 8.016 8.016 1.53 1.53

Dihedral Coeffs # class2

1 -0.1432 0 0.0617 0 -0.1083 0
2 -0.1435 0 0.253 0 -0.0905 0
3 -0.6732 0 -0.4778 0 -0.167 0
4 0.1863 0 -0.4338 0 -0.2121 0
5 0 0 0.0316 0 -0.1681 0
6 -0.1432 0 0.0617 0 -0.1083 0
7 0 0 0.0514 0 -0.143 0
8 0 0 0.0316 0 -0.1681 0
9 0 0 0.0316 0 -0.1681 0
10 -0.1432 0 0.0617 0 -0.1083 0
11 0 0 0.0514 0 -0.143 0

AngleAngleTorsion Coeffs

1 -12.564 110.77 110.77
2 -20.2006 110.77 111.27
3 -12.1038 111.27 105.8
4 -10.5093 108.728 105.8
5 -16.164 110.77 112.67
6 -12.564 110.77 110.77
7 -22.045 112.67 112.67
8 -16.164 112.67 110.77
9 -16.164 112.67 110.77
10 -12.564 110.77 110.77
11 -22.045 112.67 112.67

EndBondTorsion Coeffs

1 0.213 0.312 0.0777 0.213 0.312 0.0777 1.101 1.101
2 0.9681 0.9551 0.0436 0.5903 0.6669 0.8584 1.101 1.42
3 -0.58 0.9004 0 0 0.5343 0.9025 1.53 0.965
4 -1.7554 1.3145 0.2263 0.2493 0.6803 0 1.101 0.965
5 0.0814 0.0591 0.2219 0.2486 0.2422 -0.0925 1.101 1.53
6 0.213 0.312 0.0777 0.213 0.312 0.0777 1.101 1.101
7 -0.0732 0 0 -0.0732 0 0 1.53 1.53
8 0.2486 0.2422 -0.0925 0.0814 0.0591 0.2219 1.53 1.101
9 0.2486 0.2422 -0.0925 0.0814 0.0591 0.2219 1.53 1.101
10 0.213 0.312 0.0777 0.213 0.312 0.0777 1.101 1.101
11 -0.0732 0 0 -0.0732 0 0 1.53 1.53

MiddleBondTorsion Coeffs

1 -14.261 -0.5322 -0.4864 1.53
2 -16.7975 -1.2296 -0.275 1.53
3 1.2472 0 0.7485 1.42
4 0 0.9241 -0.5889 1.42
5 -14.879 -3.6581 -0.3138 1.53
6 -14.261 -0.5322 -0.4864 1.53
7 -17.787 -7.1877 0 1.53
8 -14.879 -3.6581 -0.3138 1.53
9 -14.879 -3.6581 -0.3138 1.53
10 -14.261 -0.5322 -0.4864 1.53
11 -17.787 -7.1877 0 1.53

BondBond13 Coeffs

1 0 1.101 1.101
2 0 1.101 1.42
3 0 1.53 0.965
4 0 1.101 0.965
5 0 1.101 1.53
6 0 1.101 1.101
7 0 1.53 1.53
8 0 1.53 1.101
9 0 1.53 1.101
10 0 1.101 1.101
11 0 1.53 1.53

AngleTorsion Coeffs

1 -0.8085 0.5569 -0.2466 -0.8085 0.5569 -0.2466 110.77 110.77
2 2.3668 2.492 -1.0122 -0.1892 0.4918 0.7273 110.77 111.27
3 -3.5903 2.5225 0.4888 0.8726 -0.3577 0.3888 111.27 105.8
4 -3.406 1.6396 0.0737 0 -0.281 -0.5944 108.728 105.8
5 0.3113 0.4516 -0.1988 -0.2454 0 -0.1136 110.77 112.67
6 -0.8085 0.5569 -0.2466 -0.8085 0.5569 -0.2466 110.77 110.77
7 0.3886 -0.3139 0.1389 0.3886 -0.3139 0.1389 112.67 112.67
8 -0.2454 0 -0.1136 0.3113 0.4516 -0.1988 112.67 110.77
9 -0.2454 0 -0.1136 0.3113 0.4516 -0.1988 112.67 110.77
10 -0.8085 0.5569 -0.2466 -0.8085 0.5569 -0.2466 110.77 110.77
11 0.3886 -0.3139 0.1389 0.3886 -0.3139 0.1389 112.67 112.67

Improper Coeffs # class2

1 0 0
2 0 0
3 0 0
4 0 0
5 0 0
6 0 0
7 0 0
8 0 0
9 0 0
10 0 0
11 0 0

AngleAngle Coeffs

1 0.2738 -0.4825 0.2738 110.77 107.66 110.77
2 -0.3157 -0.3157 -0.3157 107.66 107.66 107.66
3 0.2738 -0.4825 0.2738 110.77 107.66 110.77
4 0.1689 2.5926 3.9177 111.27 108.728 110.77
5 2.4259 2.1283 2.4259 108.728 107.66 108.728
6 0.2738 -0.4825 0.2738 110.77 107.66 110.77
7 -0.3157 -0.3157 -0.3157 107.66 107.66 107.66
8 -1.3199 -1.3199 0.1184 112.67 110.77 110.77
9 0.2738 -0.4825 0.2738 110.77 107.66 110.77
10 0.2738 -0.4825 0.2738 110.77 107.66 110.77
11 -1.3199 -1.3199 0.1184 112.67 110.77 110.77

Atoms # full

266 1 4 5.2999999999999999e-02 1.6864256263249984e+00 3.9338060620105360e+00 2.1660446484538451e+00 3 2 1
369 3 8 5.2999999999999999e-02 3.3919511835590943e-01 3.0096236406752253e+00 -2.5770783759613225e-01 -6 -4 1
262 1 1 -1.5900000000000000e-01 6.5498274037974347e-01 4.1907594188897948e+00 2.4050161328305437e+00 3 2 1
32 1 4 5.2999999999999999e-02 2.7301623259329730e+00 5.8422246585345166e+00 5.5163771763213223e+00 5 -1 -2
109 1 1 -1.5900000000000000e-01 2.7961551958578061e+00 -2.2969882281549192e-01 3.2188699615959901e+00 3 2 -1
368 3 8 5.2999999999999999e-02 2.0712023208108077e+00 3.0177796852734509e+00 -5.8999253600034041e-01 -6 -4 1
265 1 4 5.2999999999999999e-02 3.9700241923613155e-01 3.7910255338969643e+00 3.3987341741926453e+00 3 2 1
33 1 4 5.2999999999999999e-02 1.2162576164780894e+00 6.7486742879722721e+00 5.3541920309475231e+00 5 -1 -2
263 1 2 2.7000000000000000e-02 4.8103594949677597e-01 5.7557856279469517e+00 2.3868716152095644e+00 3 2 1
39 1 3 -5.5710000000000004e-01 2.2521850090997195e+00 1.3947926015289074e+00 6.8621803249373796e+00 1 1 -3
112 1 4 5.2999999999999999e-02 2.4856857509546786e+00 5.1057788440507146e-01 3.9725913564313755e+00 3 2 -1
120 1 3 -5.5710000000000004e-01 1.2419834017083919e-01 -2.8040716156599221e-01 5.5372267728894133e+00 2 0 -1
264 1 3 -5.5710000000000004e-01 7.8020608557254234e-01 6.5188794064615569e+00 1.1877308855805855e+00 3 2 1
270 1 5 4.2409999999999998e-01 1.7403462539394239e+00 6.4832110763225046e+00 1.1734811625841393e+00 3 2 1
267 1 4 5.2999999999999999e-02 1.1704177676301275e-02 3.6374346744456014e+00 1.7121920952086365e+00 3 2 1
268 1 4 5.2999999999999999e-02 1.1685372696766843e+00 6.1221409798979280e+00 3.1734573248995028e+00 3 2 1
45 1 5 4.2409999999999998e-01 3.0067261615845320e+00 1.7753804307094345e+00 6.4118946885558064e+00 1 1 -3
31 1 4 5.2999999999999999e-02 2.2064050697036626e+00 6.6971086605071743e+00 7.0117703687360011e+00 5 -1 -2
126 1 5 4.2409999999999998e-01 9.0902656336434240e-01 2.4613225741733991e-01 5.7163101931818154e+00 2 0 -1
28 1 1 -1.5900000000000000e-01 2.1879824905767289e+00 6.7120777486652399e+00 5.8681805243073955e+00 5 -1 -2
114 1 4 5.2999999999999999e-02 2.5999606312665224e+00 1.7579021287431351e-01 2.2402962094249448e+00 3 2 -1
273 1 3 -5.5710000000000004e-01 3.5334785972957876e+00 6.4187908708259780e+00 8.3840175214941537e-01 3 -2 0
258 1 4 5.2999999999999999e-02 2.9621482858284094e+00 3.8660247181975240e+00 1.3019528905914020e+01 0 2 -1
37 1 1 -1.5900000000000000e-01 1.0598521129795269e+00 3.0842438875120148e+00 8.2204006884588523e+00 1 1 -3
38 1 2 2.7000000000000000e-02 2.1712614298592863e+00 2.1008262983928208e+00 8.0540118733527279e+00 1 1 -3
41 1 4 5.2999999999999999e-02 1.0703671263629493e+00 3.7702137135715805e+00 7.3735977277148770e+00 1 1 -3
257 1 4 5.2999999999999999e-02 1.7278164571316088e+00 4.7177234027880157e+00 1.2063346879485389e+01 0 2 -1
42 1 4 5.2999999999999999e-02 1.2265876394911785e+00 3.6636674713028308e+00 9.1605331578946778e+00 1 1 -3
370 3 8 5.2999999999999999e-02 9.2116275250916879e-01 4.1227962814687666e+00 1.4820928762308647e+01 -6 -4 0
40 1 4 5.2999999999999999e-02 5.2495487796965445e-02 2.6229951455138050e+00 8.2848891549388437e+00 1 1 -3
375 3 8 5.2999999999999999e-02 -4.9489330077790628e-01 3.6053192991211880e-01 1.2651600307530902e+01 -6 -4 0
376 3 8 5.2999999999999999e-02 8.3275310657087132e-01 1.0348745969202238e+00 1.1656725334364307e+01 -6 -4 0
373 3 8 5.2999999999999999e-02 3.4813445141000299e-01 3.2104872018562682e+00 1.2429232235348742e+01 -6 -4 0
372 3 8 5.2999999999999999e-02 1.8720848803887398e+00 1.6196739445964643e+00 1.3755288219666763e+01 -6 -4 0
371 3 8 5.2999999999999999e-02 5.1521194340731657e-01 1.0583762045930640e+00 1.4722003701038862e+01 -6 -4 0
367 3 6 -1.5900000000000000e-01 -6.3602171946119113e-02 -5.1524032249274621e-01 9.5686066785259367e+00 -6 -4 0
361 3 6 -1.5900000000000000e-01 1.1055962223046736e+00 3.0718618123315631e+00 1.5223515082094190e+01 -6 -4 0
362 3 7 -1.0600000000000000e-01 9.2517651947552504e-01 1.9594163698683427e+00 1.4169307339497134e+01 -6 -4 0
58 1 4 5.2999999999999999e-02 -1.0797825339466011e-01 6.0503146158064398e+00 9.8664400533903684e+00 2 -1 1
253 1 1 -1.5900000000000000e-01 2.8283162006044194e+00 4.5709670497798092e+00 1.2154328606987141e+01 0 2 -1
364 3 7 -1.0600000000000000e-01 -1.7830350547990370e-01 1.2321897052899029e+00 1.2030731564906919e+01 -6 -4 0
363 3 7 -1.0600000000000000e-01 -2.2293502066847992e-02 2.3269152812887848e+00 1.3058793538777712e+01 -6 -4 0
55 1 1 -1.5900000000000000e-01 -3.4547620768957216e-01 6.7052614343524413e+00 8.9800035885703497e+00 2 -1 1
43 1 4 5.2999999999999999e-02 2.2289826718804684e+00 1.3826800188016928e+00 8.8857303442604341e+00 1 1 -3
44 1 4 5.2999999999999999e-02 3.1106725954525829e+00 2.6936260484123027e+00 8.2445169299102297e+00 1 1 -3
256 1 4 5.2999999999999999e-02 3.0815299500044633e+00 4.1798256626747667e+00 1.1170970686950326e+01 0 2 -1
383 3 8 5.2999999999999999e-02 6.6060041795775071e-01 1.8687930716221879e-01 9.0559595439783092e+00 -6 -4 0
59 1 4 5.2999999999999999e-02 4.7264429449302814e-01 6.6355010886654773e+00 8.3125090991278423e+00 2 -1 1
259 1 4 5.2999999999999999e-02 3.3035090800840821e+00 6.2970068335297444e+00 1.3411452602206555e+01 0 2 -1
260 1 4 5.2999999999999999e-02 3.4815907559267174e+00 6.5487893364255791e+00 1.1673290002180893e+01 0 2 -1
246 1 3 -5.5710000000000004e-01 5.9360453663246515e-01 1.2888335162908080e+01 4.9194654955102726e+00 0 1 1
194 1 4 5.2999999999999999e-02 1.5982974629307658e+00 1.0794069696699315e+01 2.7568796416622536e+00 -1 2 -2
306 2 5 4.2409999999999998e-01 1.9607698791782062e+00 1.3490896316592197e+01 6.1148592423624670e+00 0 -2 0
169 1 4 5.2999999999999999e-02 2.5814274148450411e+00 8.9353531619117117e+00 -7.1860299310229192e-01 1 1 0
29 1 2 2.7000000000000000e-02 2.9715974167913686e+00 7.9074772360655281e+00 5.4078205795204184e+00 5 -1 -2
347 2 4 5.2999999999999999e-02 -1.2145719128731031e-01 1.4316297751241606e+01 1.9542178483600749e+00 1 -2 -1
245 1 2 2.7000000000000000e-02 -3.1943890227418781e-02 1.1653109988263420e+01 5.3021998249174400e+00 0 1 1
346 2 4 5.2999999999999999e-02 1.1648612308654103e+00 1.3546593415196059e+01 1.1513387013498551e+00 1 -2 -1
105 1 4 5.2999999999999999e-02 2.4984252378209559e+00 1.2561039259960308e+01 -7.4563758375880484e-01 -2 1 3
190 1 1 -1.5900000000000000e-01 2.5442573818340546e+00 1.0336093395312226e+01 2.4142884402883711e+00 -1 2 -2
252 1 5 4.2409999999999998e-01 -8.4868098238746081e-02 1.3527901602376835e+01 4.7408105763897623e+00 0 1 1
195 1 4 5.2999999999999999e-02 2.7444617280772605e+00 9.5155123532255175e+00 3.0995750636190915e+00 -1 2 -2
193 1 4 5.2999999999999999e-02 2.2759583286797103e+00 9.8854073073173439e+00 1.3997372539430004e+00 -1 2 -2
251 1 4 5.2999999999999999e-02 7.0682971683056928e-01 1.0855419453551940e+01 5.4815682983141318e+00 0 1 1
113 1 4 5.2999999999999999e-02 2.1365548120446012e+00 1.5110693884482084e+01 3.3157191792030547e+00 3 1 -1
35 1 4 5.2999999999999999e-02 2.8218901511510834e+00 7.8331847645831392e+00 4.3648254807178608e+00 5 -1 -2
34 1 4 5.2999999999999999e-02 2.6112645111197019e+00 8.8482268099249133e+00 5.8786736247116984e+00 5 -1 -2
300 2 3 -5.5710000000000004e-01 2.6726228086114237e+00 1.4137611533587489e+01 6.3626920348583642e+00 0 -2 0
348 2 4 5.2999999999999999e-02 8.1911152060473835e-02 1.4692935765232779e+01 1.8380956100244661e-01 1 -2 -1
104 1 4 5.2999999999999999e-02 2.9137919554007121e+00 1.4109221864485288e+01 -1.2848082165395347e-03 -2 1 3
343 2 1 -1.5900000000000000e-01 1.5025941006641419e-01 1.3872586813946324e+01 9.5434790416816107e-01 1 -2 -1
198 1 5 4.2409999999999998e-01 3.3263561638513188e+00 1.2048317213703360e+01 4.1493225130191487e+00 -1 2 -2
349 2 4 5.2999999999999999e-02 -4.7533304233178342e-01 1.1743319381729441e+01 1.1379390844809540e+00 1 -2 -1
381 3 8 5.2999999999999999e-02 -2.5253459769271025e-01 1.5016546350800526e+01 8.8563352367762960e+00 -6 -5 0
62 1 4 5.2999999999999999e-02 -3.0101575816639070e-01 8.9505133973015845e+00 8.7311617779673369e+00 2 -1 1
165 1 3 -5.5710000000000004e-01 2.6495621319898675e+00 9.9725814348209738e+00 1.3719978940978105e+01 1 1 -1
296 2 4 5.2999999999999999e-02 1.3616049035244895e+00 1.2418520845427265e+01 1.1927818173816899e+01 -1 2 1
57 1 3 -5.5710000000000004e-01 8.0025188914569867e-01 8.2231792347140633e+00 1.0382903917002796e+01 2 -1 1
94 1 4 5.2999999999999999e-02 3.1134847866002588e+00 9.7191046074117668e+00 1.1282865354000007e+01 1 0 -3
291 2 3 -5.5710000000000004e-01 5.7746831232943996e-01 1.0502193148917126e+01 1.1931381160382449e+01 -1 2 1
304 2 4 5.2999999999999999e-02 3.1480866720513800e+00 1.2554444617491869e+01 7.6680859654405946e+00 0 -2 0
297 2 5 4.2409999999999998e-01 1.2581372902155021e+00 1.0392480540302307e+01 1.2645034320330218e+01 -1 2 1
63 1 5 4.2409999999999998e-01 6.9962328213572200e-01 9.0038329278533400e+00 1.0950522205481576e+01 2 -1 1
168 1 4 5.2999999999999999e-02 7.4732895006075384e-01 7.5654030176846749e+00 1.5093830258489049e+01 1 1 -1
56 1 2 2.7000000000000000e-02 -3.0829835630448443e-01 8.1698186033941287e+00 9.5432386080912188e+00 2 -1 1
93 1 3 -5.5710000000000004e-01 3.1184068671991230e+00 8.1800617489551524e+00 8.9323958196463522e+00 1 0 -3
103 1 4 5.2999999999999999e-02 2.0548927400547661e+00 1.3964074878457176e+01 1.4776678767988326e+01 -2 1 2
99 1 5 4.2409999999999998e-01 2.1923343441361740e+00 8.0584065948694708e+00 9.2971820594261239e+00 1 0 -3
290 2 2 2.7000000000000000e-02 4.3414483295607909e-01 1.1871391700999565e+01 1.2096311101589102e+01 -1 2 1
163 1 1 -1.5900000000000000e-01 1.0116198007630826e+00 8.2277422809693448e+00 1.4283847257195621e+01 1 1 -1
295 2 4 5.2999999999999999e-02 1.1905040007496892e-01 1.2006426348757550e+01 1.3147128052970970e+01 -1 2 1
164 1 2 2.7000000000000000e-02 1.8964210723954134e+00 9.3907455546435141e+00 1.4774949455134708e+01 1 1 -1
167 1 4 5.2999999999999999e-02 1.1110143230801606e-01 8.7077367610222893e+00 1.3848402127344096e+01 1 1 -1
98 1 4 5.2999999999999999e-02 2.7954767577720729e+00 1.0209433996235170e+01 8.5813522654327983e+00 1 0 -3
170 1 4 5.2999999999999999e-02 1.2937245448507924e+00 1.0211248408459982e+01 1.5257808316502553e+01 1 1 -1
166 1 4 5.2999999999999999e-02 1.5663502753431100e+00 7.6372880838286736e+00 1.3447366637258915e+01 1 1 -1
301 2 4 5.2999999999999999e-02 3.2040804757000143e+00 1.4821853763357593e+01 8.6859261469418989e+00 0 -2 0
92 1 2 2.7000000000000000e-02 3.5402985121619341e+00 9.5251145205544105e+00 9.0870936143557959e+00 1 0 -3
171 1 5 4.2409999999999998e-01 3.5049974485613955e+00 9.4865685393847698e+00 1.3741531134676274e+01 1 1 -1
293 2 4 5.2999999999999999e-02 -4.0290006083748076e-01 1.2161498050289142e+01 1.0115396844804712e+01 -1 2 1
382 3 8 5.2999999999999999e-02 3.8111524867696900e-01 1.5249301402764702e+01 1.0392457422068464e+01 -6 -5 0
100 1 1 -1.5900000000000000e-01 2.8824491237974170e+00 1.3514579167955647e+01 1.5375198678359117e+01 -2 1 2
319 2 4 5.2999999999999999e-02 7.5752643063321949e+00 1.0291376916791783e-01 6.9710140316169920e+00 -1 1 1
153 1 5 4.2409999999999998e-01 4.8833050814817280e+00 1.2598397858423063e+00 5.2834576280717611e+00 -1 -3 1
329 2 4 5.2999999999999999e-02 5.8839386230267285e+00 2.0385731922443862e+00 1.3801349329144039e+00 3 1 -1
152 1 4 5.2999999999999999e-02 3.6668459069007158e+00 3.1600106021113947e+00 4.5486080769550883e+00 -1 -3 1
146 1 2 2.7000000000000000e-02 4.7287803832642306e+00 3.1740829122861203e+00 4.9498532198197713e+00 -1 -3 1
158 1 4 5.2999999999999999e-02 7.6136591821503989e+00 3.1776587975426160e+00 2.8583981962479976e+00 -1 3 1
148 1 4 5.2999999999999999e-02 6.2771310470865895e+00 4.5533196419623074e+00 5.6903646362904423e+00 -1 -3 1
328 2 4 5.2999999999999999e-02 5.5260068947678258e+00 3.5221978424341334e+00 4.5421794647096458e-01 3 1 -1
184 1 4 5.2999999999999999e-02 7.4935031754295567e+00 6.5002453690344133e+00 4.3916889528194876e+00 -1 -2 -2
272 1 2 2.7000000000000000e-02 4.5691769166961906e+00 6.3748055591786921e+00 1.8396849457160620e+00 3 -2 0
147 1 3 -5.5710000000000004e-01 4.9505552502859071e+00 2.0830622151245328e+00 5.8236784326880384e+00 -1 -3 1
327 2 3 -5.5710000000000004e-01 4.2666032669924236e+00 3.8167835692031926e-01 -5.3595089135148433e-02 3 1 -1
326 2 2 2.7000000000000000e-02 4.8408012527152771e+00 1.6320524048581087e+00 -4.8421622056258312e-01 3 1 -1
110 1 2 2.7000000000000000e-02 4.2936113687928934e+00 -5.7563996394875960e-01 3.4261223201473463e+00 3 2 -1
111 1 3 -5.5710000000000004e-01 4.6656891785307799e+00 -4.2044396387793825e-01 4.8270455759143163e+00 3 2 -1
279 1 5 4.2409999999999998e-01 3.9878434551384858e+00 6.0728939050531956e+00 4.3733632367613073e-02 3 -2 0
325 2 1 -1.5900000000000000e-01 5.1846223688004711e+00 2.4906563887354536e+00 6.8853961903435312e-01 3 1 -1
278 1 4 5.2999999999999999e-02 5.0962272183645645e+00 5.3998336050607536e+00 1.8584416280005440e+00 3 -2 0
115 1 4 5.2999999999999999e-02 5.0049882438876168e+00 4.0291627749559078e-02 2.8185162444943748e+00 3 2 -1
151 1 4 5.2999999999999999e-02 5.3140574990817075e+00 2.9726241310458419e+00 4.0570209421503227e+00 -1 -3 1
145 1 1 -1.5900000000000000e-01 5.1939620654299592e+00 4.5359750583237997e+00 5.4905281269968498e+00 -1 -3 1
160 1 4 5.2999999999999999e-02 7.1615694600385460e+00 1.0724813117621848e+00 4.0622693123524876e+00 -1 3 1
150 1 4 5.2999999999999999e-02 5.0823734708179682e+00 5.3287796435733608e+00 4.6864680940322350e+00 -1 -3 1
149 1 4 5.2999999999999999e-02 4.7694946573432206e+00 4.7948468763216514e+00 6.4502541126546236e+00 -1 -3 1
277 1 4 5.2999999999999999e-02 4.1139661331791189e+00 6.4112563090863688e+00 2.8901407926111724e+00 3 -2 0
330 2 4 5.2999999999999999e-02 4.2040186042454133e+00 2.5214082183438959e+00 1.2150649093217165e+00 3 1 -1
333 2 5 4.2409999999999998e-01 4.0584693132349479e+00 -8.4642390212496865e-02 -8.5191313070881414e-01 3 1 -1
261 1 5 4.2409999999999998e-01 5.2772764354733672e+00 4.7806769119062675e+00 1.2034656038605625e+01 0 2 -1
200 1 2 2.7000000000000000e-02 6.2842322337738761e+00 2.5503146208057963e+00 9.9717256330655246e+00 -2 3 -1
66 1 3 -5.5710000000000004e-01 5.9613214652419071e+00 6.2943021578620071e+00 9.7701556489862273e+00 0 0 0
65 1 2 2.7000000000000000e-02 7.0384203826933378e+00 6.6245626038660985e+00 8.9102889651410937e+00 0 0 0
255 1 3 -5.5710000000000004e-01 5.0310061809559228e+00 5.4506175107580548e+00 1.2729670932608991e+01 0 2 -1
72 1 5 4.2409999999999998e-01 5.2055894478586442e+00 6.8209298412081836e+00 9.4579471872680401e+00 0 0 0
206 1 4 5.2999999999999999e-02 6.9695464224326624e+00 2.4820465794149649e+00 9.0427381725124523e+00 -2 3 -1
135 1 5 4.2409999999999998e-01 6.3848555691301350e+00 5.9140085808116858e+00 1.3866149614168444e+01 -1 -2 0
202 1 4 5.2999999999999999e-02 5.9047065956822831e+00 1.0350641390222330e+00 1.1569145055898792e+01 -2 3 -1
129 1 3 -5.5710000000000004e-01 6.9715589398679914e+00 6.0012206976466187e+00 1.4624232492400116e+01 -1 -2 0
132 1 4 5.2999999999999999e-02 6.8588122066874604e+00 3.4419264298575536e+00 1.4075144130344817e+01 -1 -2 0
199 1 1 -1.5900000000000000e-01 6.5976309590745705e+00 1.2619979325315298e+00 1.0757493681406810e+01 -2 3 -1
201 1 3 -5.5710000000000004e-01 6.4309666922474182e+00 3.7282292529565888e+00 1.0788527286713014e+01 -2 3 -1
332 2 4 5.2999999999999999e-02 4.1419835140202714e+00 2.0873751292040224e+00 1.5052925965413847e+01 3 1 -2
204 1 4 5.2999999999999999e-02 6.7707072497105809e+00 4.0512975279951080e-01 1.0094167804858246e+01 -2 3 -1
207 1 5 4.2409999999999998e-01 6.3872244116744064e+00 4.5270918721908542e+00 1.0185050887654155e+01 -2 3 -1
203 1 4 5.2999999999999999e-02 7.5812528899203881e+00 1.3651909988248354e+00 1.1262899340930874e+01 -2 3 -1
205 1 4 5.2999999999999999e-02 5.2033284428980870e+00 2.4871388185007612e+00 9.6791657015542469e+00 -2 3 -1
70 1 4 5.2999999999999999e-02 6.8384138450854950e+00 6.3496755078083025e+00 7.8065608798628663e+00 0 0 0
254 1 2 2.7000000000000000e-02 3.5807833202763604e+00 5.7893968502923929e+00 1.2486936853075687e+01 0 2 -1
331 2 4 5.2999999999999999e-02 5.6588930550898748e+00 1.3925365193578658e+00 1.5176561830964578e+01 3 1 -2
284 2 4 5.2999999999999999e-02 7.2245975792665824e+00 1.5277335498657655e+01 1.6327974527516615e+00 0 0 1
116 1 4 5.2999999999999999e-02 4.4580667241065814e+00 1.4680200071353276e+01 3.1309634353509144e+00 3 1 -1
192 1 3 -5.5710000000000004e-01 4.1645271850687529e+00 1.1720434086660104e+01 3.7258609996621903e+00 -1 2 -2
197 1 4 5.2999999999999999e-02 4.6525801067351820e+00 1.0696213056511240e+01 1.8591816348330634e+00 -1 2 -2
117 1 5 4.2409999999999998e-01 3.9467793771388369e+00 1.5283610523320982e+01 5.1827347768563072e+00 3 1 -1
275 1 4 5.2999999999999999e-02 4.9620013386671902e+00 8.4094611971473139e+00 1.4792720915967781e+00 3 -2 0
323 2 4 5.2999999999999999e-02 6.7309806825520049e+00 1.4442840355861971e+01 5.7697983842284275e+00 -1 0 1
209 1 2 2.7000000000000000e-02 7.4136431353776064e+00 9.8004301531911064e+00 5.6207424334481910e+00 -1 0 3
30 1 3 -5.5710000000000004e-01 4.3936988959013181e+00 7.9176235128187731e+00 5.5971650089402809e+00 5 -1 -2
271 1 1 -1.5900000000000000e-01 5.5792359384011592e+00 7.4944041909318635e+00 1.7073804654278266e+00 3 -2 0
36 1 5 4.2409999999999998e-01 4.5671328616360274e+00 7.9370644008251041e+00 6.5517847842966379e+00 5 -1 -2
274 1 4 5.2999999999999999e-02 6.1323248153507031e+00 7.7209279421419108e+00 2.6803074111421652e+00 3 -2 0
305 2 4 5.2999999999999999e-02 4.4658573692704397e+00 1.3111424678221381e+01 6.4898195881159095e+00 0 -2 0
210 1 3 -5.5710000000000004e-01 6.4068013912718120e+00 1.0784924027778493e+01 5.8249271189268432e+00 -1 0 3
216 1 5 4.2409999999999998e-01 5.8528941809866843e+00 1.0723979521356343e+01 5.0152622471994057e+00 -1 0 3
324 2 5 4.2409999999999998e-01 7.2970197617350951e+00 1.2460458304562982e+01 6.6413476003558563e+00 -1 0 1
196 1 4 5.2999999999999999e-02 3.5684881063119596e+00 1.2178732093992780e+01 1.7837111050112631e+00 -1 2 -2
214 1 4 5.2999999999999999e-02 6.9002722273556429e+00 8.8144040445258991e+00 5.6753415061728392e+00 -1 0 3
191 1 2 2.7000000000000000e-02 3.7931056034635420e+00 1.1260724002552084e+01 2.3581318282721617e+00 -1 2 -2
317 2 2 2.7000000000000000e-02 7.5643280691285257e+00 1.4339537912787701e+01 6.5119012483922027e+00 -1 0 1
283 2 4 5.2999999999999999e-02 7.4507660927160728e+00 1.3496801969545126e+01 1.8663633030422258e+00 0 0 1
276 1 4 5.2999999999999999e-02 6.3036143083631515e+00 7.3809574928952451e+00 8.3853915802087564e-01 3 -2 0
299 2 2 2.7000000000000000e-02 3.5947105312437273e+00 1.3442997295151599e+01 7.2082186808269881e+00 0 -2 0
71 1 4 5.2999999999999999e-02 7.1596940934240223e+00 7.6655313517041481e+00 9.0775542108667793e+00 0 0 0
96 1 4 5.2999999999999999e-02 4.8397822941574793e+00 9.8213569202260782e+00 1.0906065839531728e+01 1 0 -3
108 1 5 4.2409999999999998e-01 5.6237966959648880e+00 1.4413498838405015e+01 1.3828356073825333e+01 -2 1 2
54 1 5 4.2409999999999998e-01 7.5822009723532569e+00 1.3372061336070397e+01 9.2746961476833718e+00 2 -1 0
95 1 4 5.2999999999999999e-02 3.8928883134849217e+00 1.1075716676152581e+01 1.0560382082406274e+01 1 0 -3
318 2 3 -5.5710000000000004e-01 7.4953488506952235e+00 1.3119908543554086e+01 7.2831345468348925e+00 -1 0 1
52 1 4 5.2999999999999999e-02 6.4350662583917426e+00 1.2124538033896524e+01 1.1375017425699205e+01 2 -1 0
321 2 4 5.2999999999999999e-02 6.6239182645062078e+00 1.5480713140036412e+01 8.0791223799107446e+00 -1 0 1
236 1 2 2.7000000000000000e-02 6.0019816871761957e+00 9.1721656965919482e+00 1.3549138894921745e+01 0 2 -1
242 1 4 5.2999999999999999e-02 5.6799042946122897e+00 1.0181425694453084e+01 1.3586336459443975e+01 0 2 -1
302 2 4 5.2999999999999999e-02 4.4672150774335648e+00 1.5293732368623521e+01 7.5250699897547921e+00 0 -2 0
101 1 2 2.7000000000000000e-02 4.2299106807585920e+00 1.3379609562763859e+01 1.4683002720132393e+01 -2 1 2
102 1 3 -5.5710000000000004e-01 4.7535578863989381e+00 1.4634304336497145e+01 1.4221982477923921e+01 -2 1 2
12 2 3 -5.5710000000000004e-01 7.1140044734093344e+00 1.4719632620845440e+01 1.2614119305385840e+01 2 0 1
241 1 4 5.2999999999999999e-02 5.9552790493819039e+00 8.7291463112841345e+00 1.2566215922629212e+01 0 2 -1
107 1 4 5.2999999999999999e-02 4.9662203974514352e+00 1.2968187187142622e+01 1.5376177638116198e+01 -2 1 2
91 1 1 -1.5900000000000000e-01 3.8326695647287199e+00 1.0034511258774828e+01 1.0524455518907379e+01 1 0 -3
237 1 3 -5.5710000000000004e-01 5.2451037087299301e+00 8.3387606907969900e+00 1.4431213888420567e+01 0 2 -1
243 1 5 4.2409999999999998e-01 5.7672828718957367e+00 7.5029395100981944e+00 1.4477551335261879e+01 0 2 -1
106 1 4 5.2999999999999999e-02 4.1678912708832421e+00 1.2656576825519764e+01 1.3823306021534128e+01 -2 1 2
303 2 4 5.2999999999999999e-02 4.9041437574790629e+00 1.4127158528466502e+01 8.8435122867639553e+00 0 -2 0
47 1 2 2.7000000000000000e-02 7.2279537958656483e+00 1.1864708513948235e+01 1.0518307928780013e+01 2 -1 0
53 1 4 5.2999999999999999e-02 6.6264054633731240e+00 1.1547802078935780e+01 9.6560295194653456e+00 2 -1 0
235 1 1 -1.5900000000000000e-01 7.3081134658540154e+00 9.2818693972069539e+00 1.4238629934138531e+01 0 2 -1
97 1 4 5.2999999999999999e-02 4.3973392149148420e+00 9.5607140778187514e+00 8.3782555637648475e+00 1 0 -3
298 2 1 -1.5900000000000000e-01 4.0646143800583578e+00 1.4451202459190581e+01 8.1561126479263599e+00 0 -2 0
18 2 5 4.2409999999999998e-01 7.4795844335112047e+00 1.4378196797234882e+01 1.1792447697855090e+01 2 0 1
240 1 4 5.2999999999999999e-02 7.2401503885294067e+00 9.5333972466718837e+00 1.5344206748140598e+01 0 2 -1
316 2 1 -1.5900000000000000e-01 7.5638948567565523e+00 1.5465275788864895e+01 7.5002314025299768e+00 -1 0 1
156 1 3 -5.5710000000000004e-01 9.2116309722692442e+00 5.6687224765184285e-01 4.4843301926142223e+00 -1 3 1
162 1 5 4.2409999999999998e-01 9.4548158322523896e+00 3.4375659309514139e-01 3.5940137705952413e+00 -1 3 1
157 1 4 5.2999999999999999e-02 9.2583116405891346e+00 3.1047270099050479e+00 3.2249393706005556e+00 -1 3 1
84 1 3 -5.5710000000000004e-01 1.0860449850998783e+01 1.8390420666843914e+00 7.2664590974619419e+00 2 1 -1
187 1 4 5.2999999999999999e-02 8.8040283707490978e+00 6.5318717227856320e+00 2.2200586412938259e+00 -1 -2 -2
358 2 4 5.2999999999999999e-02 1.0789288680348228e+01 7.2887190216926072e+00 6.9080463480399192e+00 -1 2 -3
188 1 4 5.2999999999999999e-02 9.5728150655844431e+00 5.1755297662578208e+00 2.8888107439049766e+00 -1 -2 -2
159 1 4 5.2999999999999999e-02 8.5521182710731196e+00 1.8318065668163159e+00 2.2128025843205918e+00 -1 3 1
181 1 1 -1.5900000000000000e-01 8.5669375723676602e+00 6.5652625664989177e+00 4.3867847139993428e+00 -1 -2 -2
90 1 5 4.2409999999999998e-01 1.0351176527482956e+01 1.3298946600255865e+00 6.6496081268436509e+00 2 1 -1
186 1 4 5.2999999999999999e-02 8.9886695489356327e+00 5.9270215001901549e+00 5.1821787706155886e+00 -1 -2 -2
155 1 2 2.7000000000000000e-02 8.1297084214431514e+00 1.5488106836073001e+00 4.2386208013496480e+00 -1 3 1
182 1 2 2.7000000000000000e-02 9.3636971153506572e+00 6.2593357586336422e+00 3.1088087571604683e+00 -1 -2 -2
286 2 4 5.2999999999999999e-02 9.6156947581261605e+00 -5.2528073204852199e-01 1.5807267348061322e+00 0 1 1
183 1 3 -5.5710000000000004e-01 1.0599604690095415e+01 6.9452888928753209e+00 3.1556963993367440e+00 -1 -2 -2
154 1 1 -1.5900000000000000e-01 8.3884016008613145e+00 2.4800578312300829e+00 3.0742119330435669e+00 -1 3 1
360 2 5 4.2409999999999998e-01 1.1682950857303588e+01 6.7739609598953354e+00 4.9143894816802547e+00 -1 2 -3
161 1 4 5.2999999999999999e-02 8.0448263132971327e+00 2.0669426534919357e+00 5.1833968971051210e+00 -1 3 1
68 1 4 5.2999999999999999e-02 7.9890058400855137e+00 4.7266528420751328e+00 9.1568699554188058e+00 0 0 0
64 1 1 -1.5900000000000000e-01 8.1337466227446775e+00 5.7724283884148102e+00 9.4789775799576059e+00 0 0 0
69 1 4 5.2999999999999999e-02 8.1362299705628942e+00 5.8433405236914187e+00 1.0532941226716533e+01 0 0 0
87 1 4 5.2999999999999999e-02 1.0437505674805731e+01 2.0235424690614292e+00 1.0658303865850529e+01 2 1 -1
134 1 4 5.2999999999999999e-02 8.8686515114585127e+00 5.5085497046735119e+00 1.5092875532655620e+01 -1 -2 0
88 1 4 5.2999999999999999e-02 9.2107393172120027e+00 1.6285147361338947e+00 8.5146995672153114e+00 2 1 -1
127 1 1 -1.5900000000000000e-01 7.9586423270215265e+00 3.6715812631622109e+00 1.4333087259446444e+01 -1 -2 0
131 1 4 5.2999999999999999e-02 8.7293627937132676e+00 3.1913899004533977e+00 1.3750122532180828e+01 -1 -2 0
89 1 4 5.2999999999999999e-02 1.0511084372663500e+01 4.8473741595420061e-01 8.8106454173645403e+00 2 1 -1
82 1 1 -1.5900000000000000e-01 1.0872532076313679e+01 2.3351996212656418e+00 9.6711022465678553e+00 2 1 -1