
1 atoms
1 atom types
1 ellipsoids
0 60 xlo xhi
0 60 zlo zhi
0 60 ylo yhi

Atoms
atom-ID atom-type ellipsoidflag density x y z
1 1 1 1 30 30 50


Ellipsoids
atom-ID shapex shapey shapez quatw quati quatj quatk
1 14 6 8 0.44700 0 0.89453  0


Velocities

1 0 0 1 1 3 5

