dimer.dat (written by ASE) 

2 	 atoms 
1  atom types
0.0                      15  xlo xhi
0.0                      15  ylo yhi
0.0                      15  zlo zhi


Atoms 

     1   1                       0                       0                       0
     2   1                       0                       0                       1
