fcc.dat (written by ASE) 

1 	 atoms 
1  atom types
0.0      2.8637824638055176  xlo xhi
0.0      2.4801083645679673  ylo yhi
0.0      2.3382685902179841  zlo zhi
     1.4318912319027586      1.4318912319027586      0.8267027881893223  xy xz yz


Atoms 

     1   1                       0                       0                       0
