LAMMPS (11 Nov 2013)
# created by fftool

units real
boundary p p p

atom_style full
bond_style harmonic
angle_style harmonic
dihedral_style opls
special_bonds lj/coul 0.0 0.0 0.5

read_data data.0.lmp
  1 = max bonds/atom
  10 = max angles/atom
  12 = max dihedrals/atom
  orthogonal box = (-13.4438 -13.4438 -13.4438) to (13.4438 13.4438 13.4438)
  2 by 2 by 2 MPI processor grid
  1090 atoms
  729 bonds
  377 angles
  16 dihedrals
  5 = max # of 1-2 neighbors
  4 = max # of 1-3 neighbors
  8 = max # of 1-4 neighbors
  9 = max # of special neighbors
# read_restart restart.*.lmp
# reset_timestep 0

pair_style hybrid lj/cut/coul/long 10.0 10.0   lj/cut/coul/long/soft 1 0.5 10.0 10.0 10.0
pair_modify tail no
kspace_style pppm 1.0e-4

pair_coeff    1    1  none  # C-CO C-CO
pair_coeff    1    2  none  # C-CO C-D
pair_coeff    1    3  none  # C-CO H-D
pair_coeff    1    4  none  # C-CO H-H1
pair_coeff    1    5  none  # C-CO OHD-
pair_coeff    1    6  none  # C-CO HOD-
pair_coeff    1    7  lj/cut/coul/long    0.0000   1.0000  # C-CO Hw
pair_coeff    1    8  lj/cut/coul/long    0.1013   3.3286  # C-CO Ow
pair_coeff    2    2  none  # C-D C-D
pair_coeff    2    3  none  # C-D H-D
pair_coeff    2    4  none  # C-D H-H1
pair_coeff    2    5  none  # C-D OHD-
pair_coeff    2    6  none  # C-D HOD-
pair_coeff    2    7  lj/cut/coul/long/soft    0.0000   1.0000  1.0  # C-D Hw
pair_coeff    2    8  lj/cut/coul/long/soft    0.1013   3.3286  1.0  # C-D Ow
pair_coeff    3    3  none  # H-D H-D
pair_coeff    3    4  lj/cut/coul/long/soft    0.0300   2.5000  1.0  # H-D H-H1
pair_coeff    3    5  none  # H-D OHD-
pair_coeff    3    6  none  # H-D HOD-
pair_coeff    3    7  lj/cut/coul/long/soft    0.0000   1.0000  1.0  # H-D Hw
pair_coeff    3    8  lj/cut/coul/long/soft    0.0683   2.8131  1.0  # H-D Ow
pair_coeff    4    4  none  # H-H1 H-H1
pair_coeff    4    5  none  # H-H1 OHD-
pair_coeff    4    6  lj/cut/coul/long/soft    0.0000   1.0000  0.0 # H-H1 HOD-
pair_coeff    4    7  lj/cut/coul/long    0.0000   1.0000  # H-H1 Hw
pair_coeff    4    8  lj/cut/coul/long    0.0683   2.8131  # H-H1 Ow
pair_coeff    5    5  none  # OHD- OHD-
pair_coeff    5    6  none  # OHD- HOD-
pair_coeff    5    7  lj/cut/coul/long/soft    0.0000   1.0000  0.0  # OHD- Hw
pair_coeff    5    8  lj/cut/coul/long/soft    0.1625   3.1427  0.0  # OHD- Ow
pair_coeff    6    6  none  # HOD- HOD-
pair_coeff    6    7  lj/cut/coul/long/soft    0.0000   1.0000  0.0  # HOD- Hw
pair_coeff    6    8  lj/cut/coul/long/soft    0.0000   1.7792  0.0  # HOD- Ow
pair_coeff    7    7  lj/cut/coul/long    0.0000   1.0000  # Hw Hw
pair_coeff    7    8  lj/cut/coul/long    0.0000   1.0000  # Hw Ow
pair_coeff    8    8  lj/cut/coul/long    0.1554   3.1655  # Ow Ow

variable nsteps equal 500000
variable nprint equal ${nsteps}/500
variable nprint equal 500000/500
variable ndump equal ${nsteps}/100
variable ndump equal 500000/100
# variable nrestart equal ${nsteps}/10

variable temp equal 300.0
variable press equal 1.0

neighbor 2.0 bin

timestep 2.0

# velocity all create ${temp} 12345

thermo_style multi
thermo ${nprint}
thermo 1000

fix fSHAKE all shake 0.0001 20 ${nprint} b 2 4 5 a 6
fix fSHAKE all shake 0.0001 20 1000 b 2 4 5 a 6
  1 = # of size 2 clusters
  0 = # of size 3 clusters
  2 = # of size 4 clusters
  360 = # of frozen angles

fix fNPT all npt temp ${temp} ${temp} 100 iso ${press} ${press} 500
fix fNPT all npt temp 300 ${temp} 100 iso ${press} ${press} 500
fix fNPT all npt temp 300 300 100 iso ${press} ${press} 500
fix fNPT all npt temp 300 300 100 iso 1 ${press} 500
fix fNPT all npt temp 300 300 100 iso 1 1 500

run 100000
PPPM initialization ...
  G vector (1/distance) = 0.270213
  grid = 15 15 15
  stencil order = 5
  estimated absolute RMS force accuracy = 0.0169033
  estimated relative force accuracy = 5.09037e-05
  using double precision FFTs
  3d grid and FFT values/proc = 2744 512
SHAKE stats (type/ave/delta) on step 0
  2 1.09 4.99625e-06
  4 0.945001 0
  5 1 1.58341e-05
  6 109.47 0.0012593
Memory usage per processor = 9.53747 Mbytes
---------------- Step        0 ----- CPU =      0.0000 (sec) ----------------
TotEng   =      -236.7999 KinEng   =         0.0000 Temp     =         0.0000 
PotEng   =      -236.7999 E_bond   =         0.0000 E_angle  =         0.3094 
E_dihed  =         0.0001 E_impro  =         0.0000 E_vdwl   =      -192.9285 
E_coul   =     19402.7702 E_long   =    -19446.9511 Press    =       406.6448 
Volume   =     19438.0383 
SHAKE stats (type/ave/delta) on step 1000
  2 1.08999 1.15002e-08
  4 0.944994 0
  5 0.999995 4.80929e-06
  6 109.47 0.000491039
---------------- Step     1000 ----- CPU =      2.4078 (sec) ----------------
TotEng   =     -3217.9123 KinEng   =       652.5200 Temp     =       301.2481 
PotEng   =     -3870.4323 E_bond   =         0.0078 E_angle  =         0.3221 
E_dihed  =         0.0150 E_impro  =         0.0000 E_vdwl   =       783.1596 
E_coul   =     14994.7334 E_long   =    -19648.6702 Press    =       549.1741 
Volume   =     12042.4531 
SHAKE stats (type/ave/delta) on step 2000
  2 1.08988 1.67967e-07
  4 0.944898 0
  5 0.999894 4.93373e-06
  6 109.47 0.000452483
---------------- Step     2000 ----- CPU =      4.9568 (sec) ----------------
TotEng   =     -3332.7672 KinEng   =       636.0068 Temp     =       293.6245 
PotEng   =     -3968.7740 E_bond   =         0.0180 E_angle  =         1.1327 
E_dihed  =         0.0508 E_impro  =         0.0000 E_vdwl   =       750.6768 
E_coul   =     14928.0558 E_long   =    -19648.7081 Press    =      -354.5979 
Volume   =     11260.1480 
SHAKE stats (type/ave/delta) on step 3000
  2 1.0899 1.40781e-07
  4 0.944912 0
  5 0.999908 5.24581e-06
  6 109.47 0.000425396
---------------- Step     3000 ----- CPU =      7.5873 (sec) ----------------
TotEng   =     -3353.9381 KinEng   =       623.5220 Temp     =       287.8606 
PotEng   =     -3977.4601 E_bond   =         0.0813 E_angle  =         0.8822 
E_dihed  =         1.1778 E_impro  =         0.0000 E_vdwl   =       754.5693 
E_coul   =     14913.5131 E_long   =    -19647.6839 Press    =      -605.9009 
Volume   =     11277.8637 
SHAKE stats (type/ave/delta) on step 4000
  2 1.08995 3.09747e-07
  4 0.944953 0
  5 0.999951 5.0402e-06
  6 109.47 0.00052059
---------------- Step     4000 ----- CPU =     10.2962 (sec) ----------------
TotEng   =     -3344.1961 KinEng   =       657.3739 Temp     =       303.4890 
PotEng   =     -4001.5700 E_bond   =         0.3067 E_angle  =         1.0566 
E_dihed  =         0.0662 E_impro  =         0.0000 E_vdwl   =       799.6622 
E_coul   =     14849.7418 E_long   =    -19652.4036 Press    =       415.6542 
Volume   =     11042.5299 
SHAKE stats (type/ave/delta) on step 5000
  2 1.09002 1.88652e-07
  4 0.945017 1.11022e-16
  5 1.00002 7.5027e-06
  6 109.47 0.000605716
---------------- Step     5000 ----- CPU =     13.0506 (sec) ----------------
TotEng   =     -3329.4020 KinEng   =       668.8162 Temp     =       308.7715 
PotEng   =     -3998.2182 E_bond   =         0.6560 E_angle  =         0.6876 
E_dihed  =         0.1921 E_impro  =         0.0000 E_vdwl   =       762.8239 
E_coul   =     14887.4371 E_long   =    -19650.0149 Press    =      -266.3436 
Volume   =     11070.5412 
SHAKE stats (type/ave/delta) on step 6000
  2 1.09 3.62941e-07
  4 0.945001 0
  5 1 4.5458e-06
  6 109.47 0.000427657
---------------- Step     6000 ----- CPU =     15.8118 (sec) ----------------
TotEng   =     -3399.7604 KinEng   =       627.3639 Temp     =       289.6343 
PotEng   =     -4027.1243 E_bond   =         1.0917 E_angle  =         1.5339 
E_dihed  =         1.6562 E_impro  =         0.0000 E_vdwl   =       737.5998 
E_coul   =     14882.5116 E_long   =    -19651.5175 Press    =      -700.5427 
Volume   =     10927.8549 
SHAKE stats (type/ave/delta) on step 7000
  2 1.09004 3.49321e-07
  4 0.945038 0
  5 1.00004 3.85608e-06
  6 109.47 0.000367893
---------------- Step     7000 ----- CPU =     18.5292 (sec) ----------------
TotEng   =     -3277.7424 KinEng   =       701.4521 Temp     =       323.8385 
PotEng   =     -3979.1946 E_bond   =         1.3566 E_angle  =         1.2862 
E_dihed  =         1.4763 E_impro  =         0.0000 E_vdwl   =       782.5368 
E_coul   =     14884.4580 E_long   =    -19650.3085 Press    =       618.9891 
Volume   =     10922.0887 
SHAKE stats (type/ave/delta) on step 8000
  2 1.09 1.09982e-06
  4 0.945 0
  5 1 8.88099e-06
  6 109.47 0.000771179
---------------- Step     8000 ----- CPU =     21.2993 (sec) ----------------
TotEng   =     -3275.6623 KinEng   =       682.2747 Temp     =       314.9849 
PotEng   =     -3957.9370 E_bond   =         0.5256 E_angle  =         1.3297 
E_dihed  =         0.5502 E_impro  =         0.0000 E_vdwl   =       764.4418 
E_coul   =     14925.9387 E_long   =    -19650.7230 Press    =       267.6285 
Volume   =     11144.5971 
SHAKE stats (type/ave/delta) on step 9000
  2 1.09013 8.30916e-07
  4 0.945116 0
  5 1.00012 3.9234e-06
  6 109.47 0.000400096
---------------- Step     9000 ----- CPU =     24.0954 (sec) ----------------
TotEng   =     -3253.4290 KinEng   =       687.1937 Temp     =       317.2558 
PotEng   =     -3940.6227 E_bond   =         0.1820 E_angle  =         1.9554 
E_dihed  =         0.3348 E_impro  =         0.0000 E_vdwl   =       745.2296 
E_coul   =     14961.6400 E_long   =    -19649.9645 Press    =       106.0587 
Volume   =     10978.0177 
SHAKE stats (type/ave/delta) on step 10000
  2 1.09 2.03614e-07
  4 0.944997 0
  5 0.999998 3.67878e-06
  6 109.47 0.000368998
---------------- Step    10000 ----- CPU =     26.8270 (sec) ----------------
TotEng   =     -3338.0512 KinEng   =       657.2942 Temp     =       303.4522 
PotEng   =     -3995.3454 E_bond   =         1.1957 E_angle  =         0.5646 
E_dihed  =         1.1543 E_impro  =         0.0000 E_vdwl   =       695.8693 
E_coul   =     14955.4315 E_long   =    -19649.5608 Press    =     -1133.7227 
Volume   =     10852.5093 
SHAKE stats (type/ave/delta) on step 11000
  2 1.08995 2.6884e-07
  4 0.944955 1.22125e-15
  5 0.999954 5.0581e-06
  6 109.47 0.000475887
---------------- Step    11000 ----- CPU =     29.6983 (sec) ----------------
TotEng   =     -3343.6505 KinEng   =       635.5980 Temp     =       293.4357 
PotEng   =     -3979.2485 E_bond   =         1.2138 E_angle  =         2.0145 
E_dihed  =         0.0838 E_impro  =         0.0000 E_vdwl   =       787.6886 
E_coul   =     14878.3322 E_long   =    -19648.5814 Press    =       584.7587 
Volume   =     11041.9176 
SHAKE stats (type/ave/delta) on step 12000
  2 1.08999 3.22975e-07
  4 0.944989 0
  5 0.99999 4.62125e-06
  6 109.47 0.000472431
---------------- Step    12000 ----- CPU =     32.6082 (sec) ----------------
TotEng   =     -3408.9593 KinEng   =       632.9036 Temp     =       292.1918 
PotEng   =     -4041.8629 E_bond   =         0.1483 E_angle  =         4.0967 
E_dihed  =         1.7820 E_impro  =         0.0000 E_vdwl   =       780.4196 
E_coul   =     14822.3902 E_long   =    -19650.6997 Press    =      -264.3819 
Volume   =     11044.2865 
SHAKE stats (type/ave/delta) on step 13000
  2 1.08993 3.75872e-06
  4 0.944936 0
  5 0.999932 1.13396e-05
  6 109.47 0.0012135
---------------- Step    13000 ----- CPU =     35.5989 (sec) ----------------
TotEng   =     -3358.7575 KinEng   =       649.9023 Temp     =       300.0395 
PotEng   =     -4008.6597 E_bond   =         0.2769 E_angle  =         1.6738 
E_dihed  =         0.9313 E_impro  =         0.0000 E_vdwl   =       782.3699 
E_coul   =     14853.8677 E_long   =    -19647.7794 Press    =       109.8816 
Volume   =     11042.7551 
SHAKE stats (type/ave/delta) on step 14000
  2 1.09001 1.91694e-06
  4 0.945012 0
  5 1.00001 1.37869e-05
  6 109.47 0.00113667
---------------- Step    14000 ----- CPU =     38.5543 (sec) ----------------
TotEng   =     -3341.6791 KinEng   =       656.2381 Temp     =       302.9646 
PotEng   =     -3997.9172 E_bond   =         0.1703 E_angle  =         3.5813 
E_dihed  =         0.1498 E_impro  =         0.0000 E_vdwl   =       773.3285 
E_coul   =     14873.8705 E_long   =    -19649.0177 Press    =       113.0673 
Volume   =     10977.8483 
SHAKE stats (type/ave/delta) on step 15000
  2 1.09002 8.74147e-07
  4 0.945015 0
  5 1.00002 7.53763e-06
  6 109.47 0.000719878
---------------- Step    15000 ----- CPU =     41.4642 (sec) ----------------
TotEng   =     -3355.0683 KinEng   =       644.8247 Temp     =       297.6954 
PotEng   =     -3999.8930 E_bond   =         0.0112 E_angle  =         2.2050 
E_dihed  =         0.0885 E_impro  =         0.0000 E_vdwl   =       744.0030 
E_coul   =     14905.3339 E_long   =    -19651.5346 Press    =      -412.3518 
Volume   =     10967.7501 
SHAKE stats (type/ave/delta) on step 16000
  2 1.09004 8.49066e-07
  4 0.945035 0
  5 1.00004 6.77636e-06
  6 109.47 0.000563811
---------------- Step    16000 ----- CPU =     44.3274 (sec) ----------------
TotEng   =     -3333.4172 KinEng   =       659.7653 Temp     =       304.5930 
PotEng   =     -3993.1825 E_bond   =         0.0368 E_angle  =         4.5594 
E_dihed  =         0.3091 E_impro  =         0.0000 E_vdwl   =       733.0931 
E_coul   =     14919.8756 E_long   =    -19651.0565 Press    =      -476.9490 
Volume   =     10842.3618 
SHAKE stats (type/ave/delta) on step 17000
  2 1.09007 4.02556e-07
  4 0.94506 0
  5 1.00006 6.28564e-06
  6 109.47 0.000483654
---------------- Step    17000 ----- CPU =     47.2279 (sec) ----------------
TotEng   =     -3342.0915 KinEng   =       671.3960 Temp     =       309.9625 
PotEng   =     -4013.4875 E_bond   =         0.1839 E_angle  =         1.9810 
E_dihed  =         0.3354 E_impro  =         0.0000 E_vdwl   =       808.8125 
E_coul   =     14825.0393 E_long   =    -19649.8395 Press    =       816.7787 
Volume   =     10882.2536 
SHAKE stats (type/ave/delta) on step 18000
  2 1.09013 4.96135e-07
  4 0.945111 1.55431e-15
  5 1.00012 5.26621e-06
  6 109.47 0.000441323
---------------- Step    18000 ----- CPU =     50.0967 (sec) ----------------
TotEng   =     -3323.1081 KinEng   =       632.8776 Temp     =       292.1798 
PotEng   =     -3955.9858 E_bond   =         0.0809 E_angle  =         0.9757 
E_dihed  =         1.1387 E_impro  =         0.0000 E_vdwl   =       765.6506 
E_coul   =     14924.9728 E_long   =    -19648.8044 Press    =       219.3952 
Volume   =     11091.2723 
SHAKE stats (type/ave/delta) on step 19000
  2 1.0901 2.89551e-06
  4 0.94509 0
  5 1.0001 1.19025e-05
  6 109.47 0.000853968
---------------- Step    19000 ----- CPU =     52.9821 (sec) ----------------
TotEng   =     -3379.6348 KinEng   =       657.4941 Temp     =       303.5445 
PotEng   =     -4037.1288 E_bond   =         0.3501 E_angle  =         2.6780 
E_dihed  =         0.4627 E_impro  =         0.0000 E_vdwl   =       836.3367 
E_coul   =     14771.3574 E_long   =    -19648.3137 Press    =      1099.0038 
Volume   =     10858.3356 
SHAKE stats (type/ave/delta) on step 20000
  2 1.08991 1.14671e-06
  4 0.944924 5.55112e-16
  5 0.999921 5.53079e-06
  6 109.47 0.000464729
---------------- Step    20000 ----- CPU =     55.8639 (sec) ----------------
TotEng   =     -3323.6005 KinEng   =       667.1655 Temp     =       308.0094 
PotEng   =     -3990.7660 E_bond   =         0.4638 E_angle  =         3.0360 
E_dihed  =         1.1158 E_impro  =         0.0000 E_vdwl   =       753.4071 
E_coul   =     14901.5474 E_long   =    -19650.3362 Press    =      -152.1080 
Volume   =     10939.9242 
SHAKE stats (type/ave/delta) on step 21000
  2 1.08999 4.99356e-07
  4 0.944987 0
  5 0.999987 4.43594e-06
  6 109.47 0.000455897
---------------- Step    21000 ----- CPU =     58.7526 (sec) ----------------
TotEng   =     -3311.4700 KinEng   =       671.1729 Temp     =       309.8595 
PotEng   =     -3982.6428 E_bond   =         0.0436 E_angle  =         2.7489 
E_dihed  =         0.9616 E_impro  =         0.0000 E_vdwl   =       814.6897 
E_coul   =     14850.1843 E_long   =    -19651.2708 Press    =      1537.8657 
Volume   =     10752.9291 
SHAKE stats (type/ave/delta) on step 22000
  2 1.09005 9.96198e-07
  4 0.94504 0
  5 1.00004 7.8567e-06
  6 109.47 0.00127517
---------------- Step    22000 ----- CPU =     61.6361 (sec) ----------------
TotEng   =     -3322.1196 KinEng   =       642.4856 Temp     =       296.6155 
PotEng   =     -3964.6052 E_bond   =         0.4329 E_angle  =         3.1230 
E_dihed  =         0.4583 E_impro  =         0.0000 E_vdwl   =       760.4664 
E_coul   =     14922.3869 E_long   =    -19651.4727 Press    =      -232.1732 
Volume   =     11279.8369 
SHAKE stats (type/ave/delta) on step 23000
  2 1.09004 1.76487e-06
  4 0.945035 0
  5 1.00004 6.14797e-06
  6 109.47 0.000594824
---------------- Step    23000 ----- CPU =     64.4384 (sec) ----------------
TotEng   =     -3320.6909 KinEng   =       672.4120 Temp     =       310.4316 
PotEng   =     -3993.1029 E_bond   =         0.2273 E_angle  =         2.9497 
E_dihed  =         0.7470 E_impro  =         0.0000 E_vdwl   =       777.3663 
E_coul   =     14875.4508 E_long   =    -19649.8441 Press    =       693.2605 
Volume   =     10755.5734 
SHAKE stats (type/ave/delta) on step 24000
  2 1.0901 2.27798e-06
  4 0.945093 0
  5 1.0001 1.18431e-05
  6 109.47 0.00102309
---------------- Step    24000 ----- CPU =     67.2307 (sec) ----------------
TotEng   =     -3345.0045 KinEng   =       638.4695 Temp     =       294.7614 
PotEng   =     -3983.4739 E_bond   =         0.0878 E_angle  =         3.8329 
E_dihed  =         0.1459 E_impro  =         0.0000 E_vdwl   =       769.4060 
E_coul   =     14893.2221 E_long   =    -19650.1686 Press    =       387.7248 
Volume   =     10764.7144 
SHAKE stats (type/ave/delta) on step 25000
  2 1.09002 3.46079e-07
  4 0.94502 0
  5 1.00002 3.92959e-06
  6 109.47 0.000357799
---------------- Step    25000 ----- CPU =     69.9819 (sec) ----------------
TotEng   =     -3400.8492 KinEng   =       653.1481 Temp     =       301.5380 
PotEng   =     -4053.9973 E_bond   =         0.0765 E_angle  =         1.1034 
E_dihed  =         2.1173 E_impro  =         0.0000 E_vdwl   =       754.7374 
E_coul   =     14839.6671 E_long   =    -19651.6990 Press    =      -686.0974 
Volume   =     10943.1181 
SHAKE stats (type/ave/delta) on step 26000
  2 1.08982 3.52324e-06
  4 0.944843 0
  5 0.999832 8.69253e-06
  6 109.47 0.000811171
---------------- Step    26000 ----- CPU =     72.7935 (sec) ----------------
TotEng   =     -3343.9100 KinEng   =       636.5672 Temp     =       293.8832 
PotEng   =     -3980.4773 E_bond   =         0.6973 E_angle  =         2.0124 
E_dihed  =         0.3292 E_impro  =         0.0000 E_vdwl   =       786.6682 
E_coul   =     14878.6484 E_long   =    -19648.8327 Press    =       738.0781 
Volume   =     10799.3732 
SHAKE stats (type/ave/delta) on step 27000
  2 1.09 4.49165e-07
  4 0.944996 0
  5 0.999997 5.18712e-06
  6 109.47 0.000414716
---------------- Step    27000 ----- CPU =     75.6099 (sec) ----------------
TotEng   =     -3308.2354 KinEng   =       667.8030 Temp     =       308.3038 
PotEng   =     -3976.0384 E_bond   =         0.6901 E_angle  =         2.8404 
E_dihed  =         2.5171 E_impro  =         0.0000 E_vdwl   =       684.8857 
E_coul   =     14984.4501 E_long   =    -19651.4219 Press    =     -1511.8262 
Volume   =     11145.2058 
SHAKE stats (type/ave/delta) on step 28000
  2 1.09006 1.18592e-06
  4 0.94505 0
  5 1.00005 5.59568e-06
  6 109.47 0.00056615
---------------- Step    28000 ----- CPU =     78.3705 (sec) ----------------
TotEng   =     -3357.4735 KinEng   =       632.7497 Temp     =       292.1207 
PotEng   =     -3990.2232 E_bond   =         0.9005 E_angle  =         3.2025 
E_dihed  =         0.4364 E_impro  =         0.0000 E_vdwl   =       733.1482 
E_coul   =     14921.4433 E_long   =    -19649.3540 Press    =      -530.0229 
Volume   =     10897.7357 
SHAKE stats (type/ave/delta) on step 29000
  2 1.09001 8.02182e-07
  4 0.945011 0
  5 1.00001 4.08009e-06
  6 109.47 0.000421482
---------------- Step    29000 ----- CPU =     81.1462 (sec) ----------------
TotEng   =     -3316.6148 KinEng   =       646.0184 Temp     =       298.2465 
PotEng   =     -3962.6332 E_bond   =         0.3347 E_angle  =         2.2213 
E_dihed  =         2.0474 E_impro  =         0.0000 E_vdwl   =       777.2786 
E_coul   =     14905.4452 E_long   =    -19649.9604 Press    =       442.6397 
Volume   =     11051.7613 
SHAKE stats (type/ave/delta) on step 30000
  2 1.08995 1.58859e-06
  4 0.944959 0
  5 0.999958 5.28533e-06
  6 109.47 0.000482186
---------------- Step    30000 ----- CPU =     83.9011 (sec) ----------------
TotEng   =     -3326.6443 KinEng   =       666.1477 Temp     =       307.5395 
PotEng   =     -3992.7920 E_bond   =         0.1304 E_angle  =         4.1951 
E_dihed  =         1.6753 E_impro  =         0.0000 E_vdwl   =       765.3654 
E_coul   =     14884.9052 E_long   =    -19649.0635 Press    =      -320.6762 
Volume   =     11139.0340 
SHAKE stats (type/ave/delta) on step 31000
  2 1.08992 1.22153e-06
  4 0.944933 0
  5 0.99993 4.15258e-06
  6 109.47 0.000401312
---------------- Step    31000 ----- CPU =     86.6145 (sec) ----------------
TotEng   =     -3286.8069 KinEng   =       642.4821 Temp     =       296.6139 
PotEng   =     -3929.2890 E_bond   =         0.2603 E_angle  =         2.5284 
E_dihed  =         0.7550 E_impro  =         0.0000 E_vdwl   =       693.5106 
E_coul   =     15023.5707 E_long   =    -19649.9140 Press    =     -1162.7936 
Volume   =     11292.8658 
SHAKE stats (type/ave/delta) on step 32000
  2 1.08985 1.85508e-06
  4 0.944866 0
  5 0.999859 7.48776e-06
  6 109.47 0.000721311
---------------- Step    32000 ----- CPU =     89.3949 (sec) ----------------
TotEng   =     -3320.5533 KinEng   =       643.5355 Temp     =       297.1002 
PotEng   =     -3964.0888 E_bond   =         1.0796 E_angle  =         2.4685 
E_dihed  =         0.7515 E_impro  =         0.0000 E_vdwl   =       753.0999 
E_coul   =     14928.8024 E_long   =    -19650.2906 Press    =      -150.5866 
Volume   =     10979.9120 
SHAKE stats (type/ave/delta) on step 33000
  2 1.09005 9.58567e-07
  4 0.945042 0
  5 1.00005 1.01902e-05
  6 109.47 0.00066764
---------------- Step    33000 ----- CPU =     92.1397 (sec) ----------------
TotEng   =     -3326.0919 KinEng   =       655.4132 Temp     =       302.5838 
PotEng   =     -3981.5051 E_bond   =         0.6341 E_angle  =         2.2089 
E_dihed  =         0.1787 E_impro  =         0.0000 E_vdwl   =       747.7887 
E_coul   =     14917.8028 E_long   =    -19650.1183 Press    =      -552.4992 
Volume   =     11325.5626 
SHAKE stats (type/ave/delta) on step 34000
  2 1.08994 1.25145e-06
  4 0.944951 0
  5 0.999949 6.8338e-06
  6 109.47 0.000761199
---------------- Step    34000 ----- CPU =     95.0195 (sec) ----------------
TotEng   =     -3347.9625 KinEng   =       633.4703 Temp     =       292.4534 
PotEng   =     -3981.4328 E_bond   =         0.1431 E_angle  =         4.0331 
E_dihed  =         0.3496 E_impro  =         0.0000 E_vdwl   =       832.2229 
E_coul   =     14827.0415 E_long   =    -19645.2229 Press    =      1542.8300 
Volume   =     10949.1060 
SHAKE stats (type/ave/delta) on step 35000
  2 1.09002 1.78235e-06
  4 0.945019 0
  5 1.00002 8.9064e-06
  6 109.47 0.000789419
---------------- Step    35000 ----- CPU =     97.7046 (sec) ----------------
TotEng   =     -3297.7620 KinEng   =       673.6980 Temp     =       311.0253 
PotEng   =     -3971.4600 E_bond   =         0.8471 E_angle  =         2.1768 
E_dihed  =         0.0894 E_impro  =         0.0000 E_vdwl   =       731.5289 
E_coul   =     14944.6770 E_long   =    -19650.7793 Press    =      -502.4334 
Volume   =     11076.9061 
SHAKE stats (type/ave/delta) on step 36000
  2 1.08997 3.95346e-06
  4 0.944973 0
  5 0.999972 8.12969e-06
  6 109.47 0.000675075
---------------- Step    36000 ----- CPU =    100.4789 (sec) ----------------
TotEng   =     -3328.2729 KinEng   =       648.4538 Temp     =       299.3708 
PotEng   =     -3976.7267 E_bond   =         0.6243 E_angle  =         3.2058 
E_dihed  =         0.3869 E_impro  =         0.0000 E_vdwl   =       781.9091 
E_coul   =     14886.7658 E_long   =    -19649.6186 Press    =       436.4975 
Volume   =     10969.4431 
SHAKE stats (type/ave/delta) on step 37000
  2 1.09013 2.03767e-06
  4 0.945111 0
  5 1.00012 1.32046e-05
  6 109.47 0.00144946
---------------- Step    37000 ----- CPU =    103.2527 (sec) ----------------
TotEng   =     -3254.3336 KinEng   =       659.1419 Temp     =       304.3052 
PotEng   =     -3913.4755 E_bond   =         0.4454 E_angle  =         3.0213 
E_dihed  =         1.3350 E_impro  =         0.0000 E_vdwl   =       804.7771 
E_coul   =     14926.4498 E_long   =    -19649.5041 Press    =      1465.6736 
Volume   =     10904.8642 
SHAKE stats (type/ave/delta) on step 38000
  2 1.08992 3.27256e-06
  4 0.944934 0
  5 0.999931 9.94233e-06
  6 109.47 0.000916478
---------------- Step    38000 ----- CPU =    105.9819 (sec) ----------------
TotEng   =     -3346.7288 KinEng   =       679.0574 Temp     =       313.4996 
PotEng   =     -4025.7861 E_bond   =         0.9557 E_angle  =         2.9194 
E_dihed  =         0.3538 E_impro  =         0.0000 E_vdwl   =       763.9194 
E_coul   =     14856.9512 E_long   =    -19650.8856 Press    =        15.9118 
Volume   =     10894.5920 
SHAKE stats (type/ave/delta) on step 39000
  2 1.08991 1.70912e-06
  4 0.944928 0
  5 0.999919 8.44267e-06
  6 109.47 0.000643911
---------------- Step    39000 ----- CPU =    108.7624 (sec) ----------------
TotEng   =     -3390.9837 KinEng   =       627.6793 Temp     =       289.7799 
PotEng   =     -4018.6631 E_bond   =         0.1727 E_angle  =         4.4610 
E_dihed  =         0.6430 E_impro  =         0.0000 E_vdwl   =       767.6392 
E_coul   =     14860.7058 E_long   =    -19652.2848 Press    =      -100.7552 
Volume   =     10944.5402 
SHAKE stats (type/ave/delta) on step 40000
  2 1.09003 1.26924e-06
  4 0.945028 0
  5 1.00003 1.47204e-05
  6 109.47 0.00114625
---------------- Step    40000 ----- CPU =    111.5463 (sec) ----------------
TotEng   =     -3303.3352 KinEng   =       676.0197 Temp     =       312.0972 
PotEng   =     -3979.3549 E_bond   =         0.0436 E_angle  =         4.2183 
E_dihed  =         2.9994 E_impro  =         0.0000 E_vdwl   =       733.6119 
E_coul   =     14930.1106 E_long   =    -19650.3388 Press    =      -578.3384 
Volume   =     11047.6607 
SHAKE stats (type/ave/delta) on step 41000
  2 1.08992 1.11256e-06
  4 0.944933 0
  5 0.99993 7.27512e-06
  6 109.47 0.000690934
---------------- Step    41000 ----- CPU =    114.3167 (sec) ----------------
TotEng   =     -3384.2211 KinEng   =       631.1231 Temp     =       291.3698 
PotEng   =     -4015.3442 E_bond   =         0.6045 E_angle  =         1.1257 
E_dihed  =         1.4672 E_impro  =         0.0000 E_vdwl   =       752.6557 
E_coul   =     14878.4934 E_long   =    -19649.6908 Press    =      -317.1641 
Volume   =     10800.2602 
SHAKE stats (type/ave/delta) on step 42000
  2 1.08993 6.81004e-07
  4 0.944936 0
  5 0.999933 7.76801e-06
  6 109.47 0.000556266
---------------- Step    42000 ----- CPU =    117.0391 (sec) ----------------
TotEng   =     -3358.6852 KinEng   =       626.8848 Temp     =       289.4131 
PotEng   =     -3985.5700 E_bond   =         0.2024 E_angle  =         4.4950 
E_dihed  =         0.3259 E_impro  =         0.0000 E_vdwl   =       764.3603 
E_coul   =     14894.1019 E_long   =    -19649.0555 Press    =        78.7524 
Volume   =     11004.1719 
SHAKE stats (type/ave/delta) on step 43000
  2 1.09008 3.08005e-07
  4 0.945073 0
  5 1.00008 4.52546e-06
  6 109.47 0.000434336
---------------- Step    43000 ----- CPU =    119.8131 (sec) ----------------
TotEng   =     -3345.7249 KinEng   =       654.7836 Temp     =       302.2931 
PotEng   =     -4000.5085 E_bond   =         0.0409 E_angle  =         2.4010 
E_dihed  =         2.1471 E_impro  =         0.0000 E_vdwl   =       796.6377 
E_coul   =     14847.6065 E_long   =    -19649.3416 Press    =       537.6770 
Volume   =     10913.0090 
SHAKE stats (type/ave/delta) on step 44000
  2 1.09008 1.36584e-06
  4 0.945066 0
  5 1.00007 1.18073e-05
  6 109.47 0.000969058
---------------- Step    44000 ----- CPU =    122.5705 (sec) ----------------
TotEng   =     -3399.1599 KinEng   =       619.0868 Temp     =       285.8130 
PotEng   =     -4018.2467 E_bond   =         0.2303 E_angle  =         4.2294 
E_dihed  =         1.1526 E_impro  =         0.0000 E_vdwl   =       828.3768 
E_coul   =     14799.1394 E_long   =    -19651.3753 Press    =      1196.3314 
Volume   =     10780.7881 
SHAKE stats (type/ave/delta) on step 45000
  2 1.09001 6.26693e-07
  4 0.945006 0
  5 1.00001 5.25906e-06
  6 109.47 0.000520095
---------------- Step    45000 ----- CPU =    125.4078 (sec) ----------------
TotEng   =     -3304.3671 KinEng   =       649.1222 Temp     =       299.6794 
PotEng   =     -3953.4893 E_bond   =         0.6637 E_angle  =         4.4704 
E_dihed  =         1.4889 E_impro  =         0.0000 E_vdwl   =       721.9330 
E_coul   =     14967.6276 E_long   =    -19649.6729 Press    =      -562.2744 
Volume   =     11029.3559 
SHAKE stats (type/ave/delta) on step 46000
  2 1.08993 2.05517e-06
  4 0.944941 1.66533e-15
  5 0.999938 4.82683e-06
  6 109.47 0.000478335
---------------- Step    46000 ----- CPU =    128.1250 (sec) ----------------
TotEng   =     -3353.1232 KinEng   =       611.0273 Temp     =       282.0922 
PotEng   =     -3964.1506 E_bond   =         0.1752 E_angle  =         4.1814 
E_dihed  =         0.1173 E_impro  =         0.0000 E_vdwl   =       759.9704 
E_coul   =     14920.1018 E_long   =    -19648.6967 Press    =      -219.0682 
Volume   =     11239.7337 
SHAKE stats (type/ave/delta) on step 47000
  2 1.08999 5.68544e-07
  4 0.944993 0
  5 0.999994 6.47624e-06
  6 109.47 0.000533807
---------------- Step    47000 ----- CPU =    130.9137 (sec) ----------------
TotEng   =     -3349.4226 KinEng   =       641.2903 Temp     =       296.0637 
PotEng   =     -3990.7129 E_bond   =         0.3184 E_angle  =         5.4203 
E_dihed  =         0.0335 E_impro  =         0.0000 E_vdwl   =       824.6761 
E_coul   =     14829.0748 E_long   =    -19650.2360 Press    =      1236.0102 
Volume   =     10795.1706 
SHAKE stats (type/ave/delta) on step 48000
  2 1.09006 4.03585e-06
  4 0.945049 0
  5 1.00005 6.80503e-06
  6 109.47 0.000542252
---------------- Step    48000 ----- CPU =    133.6645 (sec) ----------------
TotEng   =     -3341.1105 KinEng   =       633.7689 Temp     =       292.5913 
PotEng   =     -3974.8793 E_bond   =         0.1186 E_angle  =         2.3109 
E_dihed  =         0.3743 E_impro  =         0.0000 E_vdwl   =       779.4490 
E_coul   =     14893.7042 E_long   =    -19650.8364 Press    =      -111.4783 
Volume   =     11123.6991 
SHAKE stats (type/ave/delta) on step 49000
  2 1.09006 2.40959e-07
  4 0.945052 0
  5 1.00006 4.69122e-06
  6 109.47 0.000358664
---------------- Step    49000 ----- CPU =    136.4141 (sec) ----------------
TotEng   =     -3411.4197 KinEng   =       640.8757 Temp     =       295.8722 
PotEng   =     -4052.2953 E_bond   =         0.7926 E_angle  =         3.3549 
E_dihed  =         0.0558 E_impro  =         0.0000 E_vdwl   =       790.6068 
E_coul   =     14803.5629 E_long   =    -19650.6684 Press    =      -275.9105 
Volume   =     11093.5370 
SHAKE stats (type/ave/delta) on step 50000
  2 1.08998 1.05948e-05
  4 0.944986 0
  5 0.999986 1.33278e-05
  6 109.47 0.00114061
---------------- Step    50000 ----- CPU =    139.1352 (sec) ----------------
TotEng   =     -3312.1277 KinEng   =       675.6043 Temp     =       311.9054 
PotEng   =     -3987.7320 E_bond   =         0.9279 E_angle  =         1.9885 
E_dihed  =         0.2728 E_impro  =         0.0000 E_vdwl   =       774.2190 
E_coul   =     14884.8654 E_long   =    -19650.0055 Press    =       343.0839 
Volume   =     11049.2536 
SHAKE stats (type/ave/delta) on step 51000
  2 1.09007 2.22981e-06
  4 0.945063 0
  5 1.00007 7.85451e-06
  6 109.47 0.000500539
---------------- Step    51000 ----- CPU =    141.8967 (sec) ----------------
TotEng   =     -3365.2623 KinEng   =       638.5262 Temp     =       294.7876 
PotEng   =     -4003.7884 E_bond   =         0.4405 E_angle  =         3.5182 
E_dihed  =         0.2514 E_impro  =         0.0000 E_vdwl   =       749.3703 
E_coul   =     14893.2972 E_long   =    -19650.6660 Press    =      -531.0686 
Volume   =     11057.3657 
SHAKE stats (type/ave/delta) on step 52000
  2 1.09001 1.22166e-06
  4 0.945009 0
  5 1.00001 5.0169e-06
  6 109.47 0.000412033
---------------- Step    52000 ----- CPU =    144.6637 (sec) ----------------
TotEng   =     -3335.9061 KinEng   =       652.6648 Temp     =       301.3149 
PotEng   =     -3988.5709 E_bond   =         0.7313 E_angle  =         3.8341 
E_dihed  =         0.3489 E_impro  =         0.0000 E_vdwl   =       768.7203 
E_coul   =     14889.7335 E_long   =    -19651.9390 Press    =      -369.7171 
Volume   =     11212.7909 
SHAKE stats (type/ave/delta) on step 53000
  2 1.08998 1.85176e-06
  4 0.944979 0
  5 0.999978 7.26929e-06
  6 109.47 0.0007596
---------------- Step    53000 ----- CPU =    147.4599 (sec) ----------------
TotEng   =     -3336.3387 KinEng   =       640.4052 Temp     =       295.6550 
PotEng   =     -3976.7439 E_bond   =         0.4760 E_angle  =         3.9729 
E_dihed  =         0.3578 E_impro  =         0.0000 E_vdwl   =       765.1925 
E_coul   =     14903.4203 E_long   =    -19650.1635 Press    =        91.8856 
Volume   =     10971.4456 
SHAKE stats (type/ave/delta) on step 54000
  2 1.09 9.9329e-08
  4 0.944996 0
  5 0.999997 3.49847e-06
  6 109.47 0.00037444
---------------- Step    54000 ----- CPU =    150.2394 (sec) ----------------
TotEng   =     -3340.5054 KinEng   =       645.4296 Temp     =       297.9747 
PotEng   =     -3985.9351 E_bond   =         0.5807 E_angle  =         6.2144 
E_dihed  =         0.3612 E_impro  =         0.0000 E_vdwl   =       723.1469 
E_coul   =     14930.8272 E_long   =    -19647.0655 Press    =      -457.8876 
Volume   =     10887.7486 
SHAKE stats (type/ave/delta) on step 55000
  2 1.08998 1.81723e-07
  4 0.944983 0
  5 0.999983 4.02764e-06
  6 109.47 0.000381373
---------------- Step    55000 ----- CPU =    153.1333 (sec) ----------------
TotEng   =     -3405.6299 KinEng   =       643.1156 Temp     =       296.9064 
PotEng   =     -4048.7455 E_bond   =         0.3215 E_angle  =         2.8723 
E_dihed  =         0.7979 E_impro  =         0.0000 E_vdwl   =       786.0754 
E_coul   =     14807.6695 E_long   =    -19646.4821 Press    =       300.6264 
Volume   =     10693.8232 
SHAKE stats (type/ave/delta) on step 56000
  2 1.09009 2.33037e-06
  4 0.945081 0
  5 1.00009 5.51821e-06
  6 109.47 0.000527244
---------------- Step    56000 ----- CPU =    155.9854 (sec) ----------------
TotEng   =     -3369.4841 KinEng   =       672.6676 Temp     =       310.5496 
PotEng   =     -4042.1517 E_bond   =         0.3457 E_angle  =         6.6238 
E_dihed  =         0.3432 E_impro  =         0.0000 E_vdwl   =       799.6607 
E_coul   =     14803.3686 E_long   =    -19652.4937 Press    =       260.4162 
Volume   =     10882.8504 
SHAKE stats (type/ave/delta) on step 57000
  2 1.09003 7.08907e-06
  4 0.945022 0
  5 1.00003 1.07341e-05
  6 109.47 0.000961811
---------------- Step    57000 ----- CPU =    158.7541 (sec) ----------------
TotEng   =     -3401.9455 KinEng   =       613.8195 Temp     =       283.3813 
PotEng   =     -4015.7649 E_bond   =         0.0560 E_angle  =         4.5455 
E_dihed  =         1.0017 E_impro  =         0.0000 E_vdwl   =       759.1824 
E_coul   =     14866.4698 E_long   =    -19647.0204 Press    =      -414.7567 
Volume   =     10868.2134 
SHAKE stats (type/ave/delta) on step 58000
  2 1.09001 1.34464e-06
  4 0.945011 0
  5 1.00001 4.5353e-06
  6 109.47 0.000419393
---------------- Step    58000 ----- CPU =    161.4828 (sec) ----------------
TotEng   =     -3334.6523 KinEng   =       657.2159 Temp     =       303.4160 
PotEng   =     -3991.8682 E_bond   =         0.3683 E_angle  =         5.0603 
E_dihed  =         0.4007 E_impro  =         0.0000 E_vdwl   =       766.1305 
E_coul   =     14885.4475 E_long   =    -19649.2755 Press    =       264.8077 
Volume   =     10801.7494 
SHAKE stats (type/ave/delta) on step 59000
  2 1.08998 2.6371e-06
  4 0.944984 0
  5 0.999984 8.61913e-06
  6 109.47 0.000711849
---------------- Step    59000 ----- CPU =    164.1886 (sec) ----------------
TotEng   =     -3352.1514 KinEng   =       673.3442 Temp     =       310.8620 
PotEng   =     -4025.4956 E_bond   =         1.1187 E_angle  =         4.4134 
E_dihed  =         0.1274 E_impro  =         0.0000 E_vdwl   =       757.5208 
E_coul   =     14860.2975 E_long   =    -19648.9733 Press    =      -352.2329 
Volume   =     10919.8886 
SHAKE stats (type/ave/delta) on step 60000
  2 1.08994 1.11807e-06
  4 0.944946 0
  5 0.999944 6.34293e-06
  6 109.47 0.000482486
---------------- Step    60000 ----- CPU =    166.9628 (sec) ----------------
TotEng   =     -3403.4621 KinEng   =       656.6099 Temp     =       303.1363 
PotEng   =     -4060.0720 E_bond   =         0.7644 E_angle  =         6.4483 
E_dihed  =         0.1281 E_impro  =         0.0000 E_vdwl   =       730.5979 
E_coul   =     14850.1487 E_long   =    -19648.1594 Press    =     -1326.5799 
Volume   =     10861.1991 
SHAKE stats (type/ave/delta) on step 61000
  2 1.08999 1.3739e-06
  4 0.944995 0
  5 0.999996 4.37125e-06
  6 109.47 0.000495802
---------------- Step    61000 ----- CPU =    169.7070 (sec) ----------------
TotEng   =     -3339.5824 KinEng   =       676.1225 Temp     =       312.1446 
PotEng   =     -4015.7049 E_bond   =         1.7776 E_angle  =         3.9823 
E_dihed  =         1.5628 E_impro  =         0.0000 E_vdwl   =       738.7802 
E_coul   =     14887.0257 E_long   =    -19648.8335 Press    =      -803.2902 
Volume   =     11166.0920 
SHAKE stats (type/ave/delta) on step 62000
  2 1.08998 8.63545e-06
  4 0.944986 0
  5 0.999988 1.17201e-05
  6 109.47 0.000802742
---------------- Step    62000 ----- CPU =    172.4633 (sec) ----------------
TotEng   =     -3329.7173 KinEng   =       625.9720 Temp     =       288.9917 
PotEng   =     -3955.6893 E_bond   =         1.0235 E_angle  =         4.6517 
E_dihed  =         2.3090 E_impro  =         0.0000 E_vdwl   =       760.1917 
E_coul   =     14926.1870 E_long   =    -19650.0522 Press    =       343.9202 
Volume   =     10843.6940 
SHAKE stats (type/ave/delta) on step 63000
  2 1.09006 1.01378e-06
  4 0.945052 0
  5 1.00006 5.68299e-06
  6 109.47 0.000482124
---------------- Step    63000 ----- CPU =    175.2352 (sec) ----------------
TotEng   =     -3351.7897 KinEng   =       627.7098 Temp     =       289.7940 
PotEng   =     -3979.4995 E_bond   =         0.0689 E_angle  =         6.7832 
E_dihed  =         1.4130 E_impro  =         0.0000 E_vdwl   =       735.1621 
E_coul   =     14925.8926 E_long   =    -19648.8192 Press    =      -573.5825 
Volume   =     11120.8863 
SHAKE stats (type/ave/delta) on step 64000
  2 1.08985 2.47878e-06
  4 0.944868 0
  5 0.999859 7.35009e-06
  6 109.47 0.000583056
---------------- Step    64000 ----- CPU =    178.0067 (sec) ----------------
TotEng   =     -3422.1245 KinEng   =       617.6704 Temp     =       285.1591 
PotEng   =     -4039.7948 E_bond   =         0.7751 E_angle  =         5.5551 
E_dihed  =         0.3788 E_impro  =         0.0000 E_vdwl   =       783.9118 
E_coul   =     14819.0933 E_long   =    -19649.5089 Press    =      -134.0516 
Volume   =     10931.4492 
SHAKE stats (type/ave/delta) on step 65000
  2 1.0901 2.0292e-06
  4 0.945082 0
  5 1.00009 4.9816e-06
  6 109.47 0.000444053
---------------- Step    65000 ----- CPU =    180.7697 (sec) ----------------
TotEng   =     -3352.2905 KinEng   =       664.5268 Temp     =       306.7913 
PotEng   =     -4016.8173 E_bond   =         0.1004 E_angle  =         6.0405 
E_dihed  =         1.7117 E_impro  =         0.0000 E_vdwl   =       799.6023 
E_coul   =     14826.6807 E_long   =    -19650.9529 Press    =       382.5095 
Volume   =     10978.6672 
SHAKE stats (type/ave/delta) on step 66000
  2 1.09002 1.35008e-06
  4 0.945014 0
  5 1.00002 5.79912e-06
  6 109.47 0.000428684
---------------- Step    66000 ----- CPU =    183.5686 (sec) ----------------
TotEng   =     -3337.3416 KinEng   =       644.3466 Temp     =       297.4747 
PotEng   =     -3981.6882 E_bond   =         1.6365 E_angle  =         5.3221 
E_dihed  =         0.3346 E_impro  =         0.0000 E_vdwl   =       738.0531 
E_coul   =     14923.2956 E_long   =    -19650.3300 Press    =      -440.9620 
Volume   =     10960.1140 
SHAKE stats (type/ave/delta) on step 67000
  2 1.0901 1.84866e-06
  4 0.945092 1.11022e-15
  5 1.0001 6.80596e-06
  6 109.47 0.000709576
---------------- Step    67000 ----- CPU =    186.2815 (sec) ----------------
TotEng   =     -3326.2489 KinEng   =       651.5706 Temp     =       300.8098 
PotEng   =     -3977.8195 E_bond   =         0.3425 E_angle  =         4.5305 
E_dihed  =         0.4101 E_impro  =         0.0000 E_vdwl   =       721.2772 
E_coul   =     14944.4772 E_long   =    -19648.8569 Press    =     -1172.6034 
Volume   =     11265.5303 
SHAKE stats (type/ave/delta) on step 68000
  2 1.08995 1.20486e-05
  4 0.944957 0
  5 0.999955 1.74881e-05
  6 109.47 0.00133745
---------------- Step    68000 ----- CPU =    188.9173 (sec) ----------------
TotEng   =     -3322.2759 KinEng   =       664.1246 Temp     =       306.6056 
PotEng   =     -3986.4005 E_bond   =         0.8314 E_angle  =         5.7108 
E_dihed  =         0.1868 E_impro  =         0.0000 E_vdwl   =       759.2311 
E_coul   =     14896.7283 E_long   =    -19649.0889 Press    =      -413.7660 
Volume   =     11161.3038 
SHAKE stats (type/ave/delta) on step 69000
  2 1.0901 1.12229e-06
  4 0.945083 0
  5 1.00009 6.05895e-06
  6 109.47 0.000461528
---------------- Step    69000 ----- CPU =    191.5029 (sec) ----------------
TotEng   =     -3310.2635 KinEng   =       658.5356 Temp     =       304.0253 
PotEng   =     -3968.7991 E_bond   =         0.3995 E_angle  =         3.1216 
E_dihed  =         0.9594 E_impro  =         0.0000 E_vdwl   =       831.1497 
E_coul   =     14842.7730 E_long   =    -19647.2024 Press    =      1103.4980 
Volume   =     11258.0019 
SHAKE stats (type/ave/delta) on step 70000
  2 1.08994 3.30997e-07
  4 0.94495 0
  5 0.999948 5.20316e-06
  6 109.47 0.00041032
---------------- Step    70000 ----- CPU =    194.0753 (sec) ----------------
TotEng   =     -3346.2031 KinEng   =       632.0275 Temp     =       291.7874 
PotEng   =     -3978.2307 E_bond   =         0.7190 E_angle  =         7.8441 
E_dihed  =         0.9343 E_impro  =         0.0000 E_vdwl   =       832.8158 
E_coul   =     14828.0626 E_long   =    -19648.6064 Press    =      1377.4062 
Volume   =     10967.4799 
SHAKE stats (type/ave/delta) on step 71000
  2 1.09001 1.9046e-06
  4 0.945013 0
  5 1.00001 5.54404e-06
  6 109.47 0.000522249
---------------- Step    71000 ----- CPU =    196.6935 (sec) ----------------
TotEng   =     -3331.1336 KinEng   =       644.6519 Temp     =       297.6156 
PotEng   =     -3975.7855 E_bond   =         1.3393 E_angle  =         2.6629 
E_dihed  =         2.5579 E_impro  =         0.0000 E_vdwl   =       793.6739 
E_coul   =     14875.4199 E_long   =    -19651.4394 Press    =       615.0489 
Volume   =     11104.5557 
SHAKE stats (type/ave/delta) on step 72000
  2 1.08995 4.70208e-07
  4 0.944958 1.77636e-15
  5 0.999956 4.59573e-06
  6 109.47 0.000397022
---------------- Step    72000 ----- CPU =    199.2674 (sec) ----------------
TotEng   =     -3395.6234 KinEng   =       624.2617 Temp     =       288.2021 
PotEng   =     -4019.8851 E_bond   =         2.2306 E_angle  =         4.8013 
E_dihed  =         0.5081 E_impro  =         0.0000 E_vdwl   =       804.5618 
E_coul   =     14819.5932 E_long   =    -19651.5803 Press    =       110.9540 
Volume   =     11048.2380 
SHAKE stats (type/ave/delta) on step 73000
  2 1.09006 5.74123e-07
  4 0.94505 0
  5 1.00005 4.59157e-06
  6 109.47 0.000442897
---------------- Step    73000 ----- CPU =    201.8455 (sec) ----------------
TotEng   =     -3375.3976 KinEng   =       635.0681 Temp     =       293.1911 
PotEng   =     -4010.4657 E_bond   =         1.2603 E_angle  =         3.9601 
E_dihed  =         0.9362 E_impro  =         0.0000 E_vdwl   =       773.1403 
E_coul   =     14862.5740 E_long   =    -19652.3366 Press    =        15.7788 
Volume   =     10978.3906 
SHAKE stats (type/ave/delta) on step 74000
  2 1.09001 1.58169e-06
  4 0.945007 0
  5 1.00001 5.56244e-06
  6 109.47 0.000403264
---------------- Step    74000 ----- CPU =    204.4546 (sec) ----------------
TotEng   =     -3404.9056 KinEng   =       619.0375 Temp     =       285.7903 
PotEng   =     -4023.9430 E_bond   =         1.1623 E_angle  =         5.0523 
E_dihed  =         0.9719 E_impro  =         0.0000 E_vdwl   =       727.4856 
E_coul   =     14892.1703 E_long   =    -19650.7855 Press    =     -1111.3466 
Volume   =     10820.6651 
SHAKE stats (type/ave/delta) on step 75000
  2 1.08997 1.11843e-06
  4 0.944974 0
  5 0.999973 6.46982e-06
  6 109.47 0.000561426
---------------- Step    75000 ----- CPU =    207.1075 (sec) ----------------
TotEng   =     -3375.5149 KinEng   =       651.0587 Temp     =       300.5735 
PotEng   =     -4026.5736 E_bond   =         0.7324 E_angle  =         4.5549 
E_dihed  =         0.3556 E_impro  =         0.0000 E_vdwl   =       777.4752 
E_coul   =     14839.6107 E_long   =    -19649.3024 Press    =      -169.1232 
Volume   =     11046.7181 
SHAKE stats (type/ave/delta) on step 76000
  2 1.09004 2.96396e-06
  4 0.945035 0
  5 1.00004 7.14486e-06
  6 109.47 0.00054432
---------------- Step    76000 ----- CPU =    209.7646 (sec) ----------------
TotEng   =     -3320.7692 KinEng   =       646.2858 Temp     =       298.3700 
PotEng   =     -3967.0550 E_bond   =         0.0978 E_angle  =         3.1155 
E_dihed  =         3.8959 E_impro  =         0.0000 E_vdwl   =       791.5810 
E_coul   =     14883.8214 E_long   =    -19649.5667 Press    =       789.3415 
Volume   =     10871.3775 
SHAKE stats (type/ave/delta) on step 77000
  2 1.09013 3.49364e-06
  4 0.945114 0
  5 1.00012 1.01726e-05
  6 109.47 0.00107162
---------------- Step    77000 ----- CPU =    212.3838 (sec) ----------------
TotEng   =     -3399.0750 KinEng   =       644.7276 Temp     =       297.6506 
PotEng   =     -4043.8026 E_bond   =         0.2817 E_angle  =         4.7573 
E_dihed  =         0.7254 E_impro  =         0.0000 E_vdwl   =       764.9989 
E_coul   =     14834.5958 E_long   =    -19649.1617 Press    =      -489.4142 
Volume   =     10976.1488 
SHAKE stats (type/ave/delta) on step 78000
  2 1.09007 2.33229e-07
  4 0.94506 0
  5 1.00006 3.86704e-06
  6 109.47 0.000371707
---------------- Step    78000 ----- CPU =    215.1532 (sec) ----------------
TotEng   =     -3341.8635 KinEng   =       654.6427 Temp     =       302.2281 
PotEng   =     -3996.5062 E_bond   =         0.2525 E_angle  =         4.2641 
E_dihed  =         0.2330 E_impro  =         0.0000 E_vdwl   =       719.1003 
E_coul   =     14930.2472 E_long   =    -19650.6034 Press    =     -1131.7823 
Volume   =     11084.6477 
SHAKE stats (type/ave/delta) on step 79000
  2 1.08986 3.0857e-06
  4 0.944876 0
  5 0.999869 6.614e-06
  6 109.47 0.000929532
---------------- Step    79000 ----- CPU =    217.8673 (sec) ----------------
TotEng   =     -3327.4969 KinEng   =       659.0076 Temp     =       304.2432 
PotEng   =     -3986.5046 E_bond   =         0.1078 E_angle  =         3.7164 
E_dihed  =         0.8828 E_impro  =         0.0000 E_vdwl   =       748.1390 
E_coul   =     14909.8828 E_long   =    -19649.2334 Press    =      -161.5742 
Volume   =     10868.5843 
SHAKE stats (type/ave/delta) on step 80000
  2 1.09003 1.55905e-06
  4 0.94503 0
  5 1.00003 1.00091e-05
  6 109.47 0.00123386
---------------- Step    80000 ----- CPU =    220.4571 (sec) ----------------
TotEng   =     -3390.1904 KinEng   =       641.6400 Temp     =       296.2251 
PotEng   =     -4031.8304 E_bond   =         0.1823 E_angle  =         5.3298 
E_dihed  =         0.3127 E_impro  =         0.0000 E_vdwl   =       783.4052 
E_coul   =     14830.6922 E_long   =    -19651.7525 Press    =       164.4978 
Volume   =     10824.6903 
SHAKE stats (type/ave/delta) on step 81000
  2 1.08985 5.32828e-06
  4 0.944867 1.66533e-15
  5 0.999861 1.30183e-05
  6 109.47 0.00131354
---------------- Step    81000 ----- CPU =    223.0517 (sec) ----------------
TotEng   =     -3344.8185 KinEng   =       682.1917 Temp     =       314.9466 
PotEng   =     -4027.0103 E_bond   =         0.2841 E_angle  =         5.8990 
E_dihed  =         0.5632 E_impro  =         0.0000 E_vdwl   =       749.3817 
E_coul   =     14866.9352 E_long   =    -19650.0734 Press    =      -703.7376 
Volume   =     11061.5178 
SHAKE stats (type/ave/delta) on step 82000
  2 1.08991 1.66531e-06
  4 0.944923 0
  5 0.99992 8.10245e-06
  6 109.47 0.000739285
---------------- Step    82000 ----- CPU =    225.6077 (sec) ----------------
TotEng   =     -3413.7572 KinEng   =       623.9480 Temp     =       288.0573 
PotEng   =     -4037.7052 E_bond   =         0.5788 E_angle  =         3.9834 
E_dihed  =         0.7769 E_impro  =         0.0000 E_vdwl   =       802.8181 
E_coul   =     14802.1581 E_long   =    -19648.0205 Press    =       336.9323 
Volume   =     11014.8279 
SHAKE stats (type/ave/delta) on step 83000
  2 1.08996 1.99787e-06
  4 0.944965 0
  5 0.999964 7.61539e-06
  6 109.47 0.00077911
---------------- Step    83000 ----- CPU =    228.2373 (sec) ----------------
TotEng   =     -3385.7105 KinEng   =       640.4014 Temp     =       295.6533 
PotEng   =     -4026.1119 E_bond   =         0.5074 E_angle  =         3.5262 
E_dihed  =         0.2209 E_impro  =         0.0000 E_vdwl   =       776.0897 
E_coul   =     14843.9253 E_long   =    -19650.3814 Press    =      -187.7853 
Volume   =     11014.5107 
SHAKE stats (type/ave/delta) on step 84000
  2 1.08999 3.41691e-06
  4 0.944988 0
  5 0.999988 5.45616e-06
  6 109.47 0.000673308
---------------- Step    84000 ----- CPU =    230.8249 (sec) ----------------
TotEng   =     -3333.7005 KinEng   =       675.1701 Temp     =       311.7049 
PotEng   =     -4008.8706 E_bond   =         0.3270 E_angle  =         5.7415 
E_dihed  =         0.2927 E_impro  =         0.0000 E_vdwl   =       824.3487 
E_coul   =     14810.7696 E_long   =    -19650.3501 Press    =      1431.1758 
Volume   =     10850.6458 
SHAKE stats (type/ave/delta) on step 85000
  2 1.09007 2.08285e-06
  4 0.945057 0
  5 1.00006 7.79973e-06
  6 109.47 0.000814066
---------------- Step    85000 ----- CPU =    233.4651 (sec) ----------------
TotEng   =     -3339.4384 KinEng   =       637.0556 Temp     =       294.1087 
PotEng   =     -3976.4941 E_bond   =         0.2638 E_angle  =         6.7693 
E_dihed  =         1.8531 E_impro  =         0.0000 E_vdwl   =       737.7235 
E_coul   =     14928.4301 E_long   =    -19651.5338 Press    =      -458.3754 
Volume   =     10955.5653 
SHAKE stats (type/ave/delta) on step 86000
  2 1.08989 2.25145e-06
  4 0.944908 0
  5 0.999903 8.92488e-06
  6 109.47 0.000742735
---------------- Step    86000 ----- CPU =    236.1279 (sec) ----------------
TotEng   =     -3334.2700 KinEng   =       676.7507 Temp     =       312.4346 
PotEng   =     -4011.0207 E_bond   =         0.1767 E_angle  =         7.3768 
E_dihed  =         0.3681 E_impro  =         0.0000 E_vdwl   =       769.9712 
E_coul   =     14860.7620 E_long   =    -19649.6755 Press    =       320.1893 
Volume   =     10738.9411 
SHAKE stats (type/ave/delta) on step 87000
  2 1.09009 7.97396e-07
  4 0.945075 0
  5 1.00008 4.45234e-06
  6 109.47 0.000486962
---------------- Step    87000 ----- CPU =    238.7525 (sec) ----------------
TotEng   =     -3366.4988 KinEng   =       657.8408 Temp     =       303.7045 
PotEng   =     -4024.3396 E_bond   =         0.2016 E_angle  =         8.3934 
E_dihed  =         0.5279 E_impro  =         0.0000 E_vdwl   =       795.6235 
E_coul   =     14821.3625 E_long   =    -19650.4485 Press    =       416.8731 
Volume   =     10881.0791 
SHAKE stats (type/ave/delta) on step 88000
  2 1.08994 2.87012e-07
  4 0.94495 1.66533e-15
  5 0.999948 4.52961e-06
  6 109.47 0.000379924
---------------- Step    88000 ----- CPU =    241.4091 (sec) ----------------
TotEng   =     -3316.4283 KinEng   =       658.6530 Temp     =       304.0795 
PotEng   =     -3975.0813 E_bond   =         1.0821 E_angle  =         4.1528 
E_dihed  =         1.3078 E_impro  =         0.0000 E_vdwl   =       796.2316 
E_coul   =     14872.9922 E_long   =    -19650.8477 Press    =       816.6010 
Volume   =     10909.9825 
SHAKE stats (type/ave/delta) on step 89000
  2 1.09 1.31621e-07
  4 0.944998 0
  5 0.999999 4.45821e-06
  6 109.47 0.000369389
---------------- Step    89000 ----- CPU =    244.2451 (sec) ----------------
TotEng   =     -3362.4462 KinEng   =       670.9896 Temp     =       309.7749 
PotEng   =     -4033.4358 E_bond   =         0.0998 E_angle  =         5.1461 
E_dihed  =         1.0669 E_impro  =         0.0000 E_vdwl   =       812.5294 
E_coul   =     14800.3927 E_long   =    -19652.6706 Press    =       588.5420 
Volume   =     10922.7440 
SHAKE stats (type/ave/delta) on step 90000
  2 1.09015 1.23839e-06
  4 0.945141 0
  5 1.00014 1.55069e-05
  6 109.47 0.00125161
---------------- Step    90000 ----- CPU =    247.0551 (sec) ----------------
TotEng   =     -3289.4824 KinEng   =       687.4961 Temp     =       317.3955 
PotEng   =     -3976.9785 E_bond   =         0.6402 E_angle  =         4.2373 
E_dihed  =         0.2454 E_impro  =         0.0000 E_vdwl   =       761.4551 
E_coul   =     14904.3831 E_long   =    -19647.9396 Press    =       439.9040 
Volume   =     10702.9545 
SHAKE stats (type/ave/delta) on step 91000
  2 1.08996 1.3343e-06
  4 0.944965 0
  5 0.999965 7.71497e-06
  6 109.47 0.000729887
---------------- Step    91000 ----- CPU =    249.7563 (sec) ----------------
TotEng   =     -3292.3758 KinEng   =       650.5939 Temp     =       300.3589 
PotEng   =     -3942.9697 E_bond   =         0.5233 E_angle  =         3.1626 
E_dihed  =         0.6410 E_impro  =         0.0000 E_vdwl   =       718.5632 
E_coul   =     14984.2545 E_long   =    -19650.1144 Press    =      -797.2293 
Volume   =     11139.1372 
SHAKE stats (type/ave/delta) on step 92000
  2 1.09017 1.8182e-07
  4 0.945147 0
  5 1.00016 3.689e-06
  6 109.47 0.000360009
---------------- Step    92000 ----- CPU =    252.4948 (sec) ----------------
TotEng   =     -3309.5845 KinEng   =       654.1142 Temp     =       301.9841 
PotEng   =     -3963.6987 E_bond   =         2.6298 E_angle  =         3.8662 
E_dihed  =         1.3945 E_impro  =         0.0000 E_vdwl   =       728.0678 
E_coul   =     14947.5399 E_long   =    -19647.1968 Press    =      -530.6426 
Volume   =     11011.2537 
SHAKE stats (type/ave/delta) on step 93000
  2 1.08996 2.07673e-06
  4 0.94497 0
  5 0.999967 8.42403e-06
  6 109.47 0.000675949
---------------- Step    93000 ----- CPU =    255.2491 (sec) ----------------
TotEng   =     -3307.9933 KinEng   =       666.4253 Temp     =       307.6677 
PotEng   =     -3974.4187 E_bond   =         2.8808 E_angle  =         5.8976 
E_dihed  =         0.3081 E_impro  =         0.0000 E_vdwl   =       773.0455 
E_coul   =     14893.8828 E_long   =    -19650.4335 Press    =       543.5310 
Volume   =     10819.5070 
SHAKE stats (type/ave/delta) on step 94000
  2 1.08993 2.81052e-08
  4 0.944942 0
  5 0.999939 3.58911e-06
  6 109.47 0.000403773
---------------- Step    94000 ----- CPU =    257.9866 (sec) ----------------
TotEng   =     -3331.2867 KinEng   =       666.2858 Temp     =       307.6033 
PotEng   =     -3997.5726 E_bond   =         1.3063 E_angle  =         3.5352 
E_dihed  =         0.5311 E_impro  =         0.0000 E_vdwl   =       780.0856 
E_coul   =     14868.5061 E_long   =    -19651.5369 Press    =       187.2597 
Volume   =     10967.0267 
SHAKE stats (type/ave/delta) on step 95000
  2 1.08995 2.33126e-06
  4 0.944958 0
  5 0.999956 5.38984e-06
  6 109.47 0.000727539
---------------- Step    95000 ----- CPU =    260.7930 (sec) ----------------
TotEng   =     -3366.8314 KinEng   =       619.6494 Temp     =       286.0727 
PotEng   =     -3986.4808 E_bond   =         0.1195 E_angle  =         5.1707 
E_dihed  =         0.3213 E_impro  =         0.0000 E_vdwl   =       777.8304 
E_coul   =     14878.7924 E_long   =    -19648.7152 Press    =        75.4756 
Volume   =     11017.5955 
SHAKE stats (type/ave/delta) on step 96000
  2 1.08995 1.59182e-06
  4 0.944955 0
  5 0.999953 7.74825e-06
  6 109.47 0.000509144
---------------- Step    96000 ----- CPU =    263.5767 (sec) ----------------
TotEng   =     -3317.6784 KinEng   =       655.7333 Temp     =       302.7316 
PotEng   =     -3973.4117 E_bond   =         0.3252 E_angle  =         3.9222 
E_dihed  =         0.4805 E_impro  =         0.0000 E_vdwl   =       753.3976 
E_coul   =     14917.1777 E_long   =    -19648.7149 Press    =        77.4415 
Volume   =     10772.0672 
SHAKE stats (type/ave/delta) on step 97000
  2 1.08996 1.7617e-06
  4 0.944965 0
  5 0.999964 6.20556e-06
  6 109.47 0.000553485
---------------- Step    97000 ----- CPU =    266.4116 (sec) ----------------
TotEng   =     -3415.0372 KinEng   =       612.6950 Temp     =       282.8621 
PotEng   =     -4027.7322 E_bond   =         0.1009 E_angle  =         5.0481 
E_dihed  =         0.3800 E_impro  =         0.0000 E_vdwl   =       756.8370 
E_coul   =     14862.2928 E_long   =    -19652.3910 Press    =      -349.4189 
Volume   =     10846.4670 
SHAKE stats (type/ave/delta) on step 98000
  2 1.09004 1.84167e-06
  4 0.945036 0
  5 1.00004 1.00141e-05
  6 109.47 0.000739308
---------------- Step    98000 ----- CPU =    269.1871 (sec) ----------------
TotEng   =     -3323.7702 KinEng   =       672.8329 Temp     =       310.6259 
PotEng   =     -3996.6031 E_bond   =         0.0655 E_angle  =         5.3906 
E_dihed  =         0.4552 E_impro  =         0.0000 E_vdwl   =       809.5441 
E_coul   =     14835.7894 E_long   =    -19647.8480 Press    =       810.1216 
Volume   =     10944.0980 
SHAKE stats (type/ave/delta) on step 99000
  2 1.09009 7.99975e-06
  4 0.945075 0
  5 1.00008 9.28958e-06
  6 109.47 0.000968628
---------------- Step    99000 ----- CPU =    272.0649 (sec) ----------------
TotEng   =     -3367.8679 KinEng   =       642.1935 Temp     =       296.4807 
PotEng   =     -4010.0614 E_bond   =         0.0741 E_angle  =         3.8724 
E_dihed  =         0.8687 E_impro  =         0.0000 E_vdwl   =       830.1128 
E_coul   =     14808.3920 E_long   =    -19653.3814 Press    =      1691.8501 
Volume   =     10695.4048 
SHAKE stats (type/ave/delta) on step 100000
  2 1.09002 2.5552e-06
  4 0.945017 0
  5 1.00002 9.85104e-06
  6 109.47 0.000677927
---------------- Step   100000 ----- CPU =    275.1335 (sec) ----------------
TotEng   =     -3347.2113 KinEng   =       638.4597 Temp     =       294.7569 
PotEng   =     -3985.6710 E_bond   =         0.1907 E_angle  =         3.8699 
E_dihed  =         0.5415 E_impro  =         0.0000 E_vdwl   =       786.1456 
E_coul   =     14873.1907 E_long   =    -19649.6095 Press    =       542.5511 
Volume   =     10891.0239 
Loop time of 275.134 on 8 procs for 100000 steps with 1090 atoms

Pair  time (%) = 133.072 (48.3664)
Bond  time (%) = 0.376777 (0.136943)
Kspce time (%) = 51.7461 (18.8076)
Neigh time (%) = 19.3587 (7.03613)
Comm  time (%) = 22.9204 (8.33065)
Outpt time (%) = 0.00563866 (0.00204943)
Other time (%) = 47.6536 (17.3202)

FFT time (% of Kspce) = 11.4655 (22.1572)
FFT Gflps 3d (1d only) = 4.78288 35.047

Nlocal:    136.25 ave 144 max 127 min
Histogram: 1 1 1 0 0 1 0 1 1 2
Nghost:    4191.38 ave 4250 max 4155 min
Histogram: 3 1 0 0 0 1 2 0 0 1
Neighs:    49289.1 ave 56714 max 43866 min
Histogram: 3 0 0 1 1 0 1 0 1 1

Total # of neighbors = 394313
Ave neighs/atom = 361.755
Ave special neighs/atom = 2.05872
Neighbor list builds = 8278
Dangerous builds = 1394
reset_timestep 0


variable dlambda equal 1.0
variable minusdl equal -1.0
variable dq1 equal  0.145*v_dlambda+0.180*v_dlambda
variable dq2 equal  0.180*v_dlambda
variable dq3 equal -0.060*v_dlambda
variable dq4 equal  0.040*v_dlambda-0.060*v_dlambda
variable dq5 equal -0.683*v_dlambda
variable dq6 equal  0.418*v_dlambda

compute cFEP all fep ${temp}     pair lj/cut/coul/long/soft lambda 2*3 7*8 v_minusdl     pair lj/cut/coul/long/soft lambda 3 4 v_minusdl     pair lj/cut/coul/long/soft lambda 4 6 v_dlambda     pair lj/cut/coul/long/soft lambda 5*6 7*8 v_dlambda     atom charge 1 v_dq1     atom charge 2 v_dq2     atom charge 3 v_dq3     atom charge 4 v_dq4     atom charge 5 v_dq5     atom charge 6 v_dq6
compute cFEP all fep 300     pair lj/cut/coul/long/soft lambda 2*3 7*8 v_minusdl     pair lj/cut/coul/long/soft lambda 3 4 v_minusdl     pair lj/cut/coul/long/soft lambda 4 6 v_dlambda     pair lj/cut/coul/long/soft lambda 5*6 7*8 v_dlambda     atom charge 1 v_dq1     atom charge 2 v_dq2     atom charge 3 v_dq3     atom charge 4 v_dq4     atom charge 5 v_dq5     atom charge 6 v_dq6

fix fFEP all ave/time 1 1 100 c_cFEP[1] c_cFEP[2] file bar01.lmp

# compute cRDF all rdf 100 1 1
# fix fRDF all ave/time 20 100 ${nsteps} c_cRDF file rdf.lammps mode vector

# compute cMSD all msd
# fix fMSD all ave/time 1 1 ${ndump} c_cMSD[1] c_cMSD[2] c_cMSD[3] c_cMSD[4] file msd.lammps

dump dCONF all custom ${ndump} dump.lammpstrj id mol type element x y z ix iy iz
dump dCONF all custom 5000 dump.lammpstrj id mol type element x y z ix iy iz
dump_modify dCONF element C C H H O H H O

# restart ${nrestart} restart.*.lmp

run ${nsteps}
run 500000
PPPM initialization ...
  G vector (1/distance) = 0.2677
  grid = 12 12 12
  stencil order = 5
  estimated absolute RMS force accuracy = 0.0258522
  estimated relative force accuracy = 7.78532e-05
  using double precision FFTs
  3d grid and FFT values/proc = 2197 288
FEP settings ...
  temperature = 300.000000
  tail no
  lj/cut/coul/long/soft lambda 2-3 7-8
  lj/cut/coul/long/soft lambda 3-3 4-4
  lj/cut/coul/long/soft lambda 4-4 6-6
  lj/cut/coul/long/soft lambda 5-6 7-8
  1-1 charge
  2-2 charge
  3-3 charge
  4-4 charge
  5-5 charge
  6-6 charge
SHAKE stats (type/ave/delta) on step 0
  2 1.09002 2.5552e-06
  4 0.945017 0
  5 1.00002 9.85104e-06
  6 109.47 0.000677927
Memory usage per processor = 10.4655 Mbytes
---------------- Step        0 ----- CPU =      0.0000 (sec) ----------------
TotEng   =     -3347.1044 KinEng   =       638.4597 Temp     =       294.7569 
PotEng   =     -3985.5641 E_bond   =         0.1907 E_angle  =         3.8699 
E_dihed  =         0.5415 E_impro  =         0.0000 E_vdwl   =       786.1456 
E_coul   =     14690.7837 E_long   =    -19467.0955 Press    =       540.1765 
Volume   =     10891.0239 
SHAKE stats (type/ave/delta) on step 1000
  2 1.08996 4.17833e-06
  4 0.944968 0
  5 0.999966 1.49347e-05
  6 109.47 0.00108615
---------------- Step     1000 ----- CPU =      2.6616 (sec) ----------------
TotEng   =     -3333.3328 KinEng   =       658.0990 Temp     =       303.8237 
PotEng   =     -3991.4318 E_bond   =         0.0586 E_angle  =         4.0632 
E_dihed  =         0.9054 E_impro  =         0.0000 E_vdwl   =       739.0662 
E_coul   =     14731.6591 E_long   =    -19467.1844 Press    =      -491.0754 
Volume   =     11053.6188 
SHAKE stats (type/ave/delta) on step 2000
  2 1.08994 1.7168e-06
  4 0.944944 0
  5 0.99995 1.00847e-05
  6 109.47 0.00132452
---------------- Step     2000 ----- CPU =      5.3043 (sec) ----------------
TotEng   =     -3408.6666 KinEng   =       637.0695 Temp     =       294.1150 
PotEng   =     -4045.7360 E_bond   =         0.5079 E_angle  =         2.1967 
E_dihed  =         0.2680 E_impro  =         0.0000 E_vdwl   =       780.0197 
E_coul   =     14639.6319 E_long   =    -19468.3603 Press    =        59.9064 
Volume   =     10931.2309 
SHAKE stats (type/ave/delta) on step 3000
  2 1.08995 6.42201e-07
  4 0.944953 0
  5 0.999951 4.53807e-06
  6 109.47 0.000428823
---------------- Step     3000 ----- CPU =      7.9941 (sec) ----------------
TotEng   =     -3339.8082 KinEng   =       630.4185 Temp     =       291.0445 
PotEng   =     -3970.2267 E_bond   =         0.9415 E_angle  =         7.0859 
E_dihed  =         0.4424 E_impro  =         0.0000 E_vdwl   =       746.4116 
E_coul   =     14742.7163 E_long   =    -19467.8244 Press    =      -522.7457 
Volume   =     11203.1614 
SHAKE stats (type/ave/delta) on step 4000
  2 1.09002 3.57073e-07
  4 0.945015 3.33067e-16
  5 1.00002 5.11725e-06
  6 109.47 0.000387503
---------------- Step     4000 ----- CPU =     10.6396 (sec) ----------------
TotEng   =     -3344.6150 KinEng   =       671.4723 Temp     =       309.9978 
PotEng   =     -4016.0873 E_bond   =         0.0330 E_angle  =         4.4860 
E_dihed  =         1.3391 E_impro  =         0.0000 E_vdwl   =       798.3579 
E_coul   =     14647.4858 E_long   =    -19467.7891 Press    =       539.9110 
Volume   =     10936.2614 
SHAKE stats (type/ave/delta) on step 5000
  2 1.09007 1.46788e-07
  4 0.945058 0
  5 1.00006 3.83097e-06
  6 109.47 0.000381859
---------------- Step     5000 ----- CPU =     13.3728 (sec) ----------------
TotEng   =     -3318.8039 KinEng   =       669.4403 Temp     =       309.0597 
PotEng   =     -3988.2442 E_bond   =         0.6967 E_angle  =         4.2543 
E_dihed  =         1.7272 E_impro  =         0.0000 E_vdwl   =       792.1349 
E_coul   =     14678.4375 E_long   =    -19465.4948 Press    =       492.5567 
Volume   =     11149.7506 
SHAKE stats (type/ave/delta) on step 6000
  2 1.09001 1.6642e-06
  4 0.945009 0
  5 1.00001 7.60085e-06
  6 109.47 0.000613536
---------------- Step     6000 ----- CPU =     16.1250 (sec) ----------------
TotEng   =     -3334.6235 KinEng   =       648.9107 Temp     =       299.5818 
PotEng   =     -3983.5342 E_bond   =         0.5719 E_angle  =         2.9442 
E_dihed  =         0.2222 E_impro  =         0.0000 E_vdwl   =       788.0379 
E_coul   =     14693.0670 E_long   =    -19468.3775 Press    =       334.7159 
Volume   =     11121.9733 
SHAKE stats (type/ave/delta) on step 7000
  2 1.08992 5.90452e-07
  4 0.944931 0
  5 0.999927 4.84936e-06
  6 109.47 0.000515367
---------------- Step     7000 ----- CPU =     18.7826 (sec) ----------------
TotEng   =     -3416.4739 KinEng   =       627.4760 Temp     =       289.6860 
PotEng   =     -4043.9498 E_bond   =         0.4944 E_angle  =         3.5052 
E_dihed  =         0.3046 E_impro  =         0.0000 E_vdwl   =       835.2107 
E_coul   =     14586.3203 E_long   =    -19469.7849 Press    =       997.5855 
Volume   =     11011.6804 
SHAKE stats (type/ave/delta) on step 8000
  2 1.08997 9.38795e-07
  4 0.944976 0
  5 0.999974 5.93401e-06
  6 109.47 0.000509424
---------------- Step     8000 ----- CPU =     21.4559 (sec) ----------------
TotEng   =     -3257.3740 KinEng   =       699.3154 Temp     =       322.8521 
PotEng   =     -3956.6894 E_bond   =         0.9604 E_angle  =         2.5130 
E_dihed  =         0.3877 E_impro  =         0.0000 E_vdwl   =       747.9582 
E_coul   =     14757.1957 E_long   =    -19465.7044 Press    =      -163.5635 
Volume   =     10959.3823 
SHAKE stats (type/ave/delta) on step 9000
  2 1.0901 4.73148e-06
  4 0.945085 0
  5 1.00009 6.7244e-06
  6 109.47 0.00076448
---------------- Step     9000 ----- CPU =     24.1876 (sec) ----------------
TotEng   =     -3418.4553 KinEng   =       633.1322 Temp     =       292.2974 
PotEng   =     -4051.5876 E_bond   =         0.1606 E_angle  =         3.1003 
E_dihed  =         0.3689 E_impro  =         0.0000 E_vdwl   =       769.3989 
E_coul   =     14642.4800 E_long   =    -19467.0962 Press    =      -233.9585 
Volume   =     10834.9989 
SHAKE stats (type/ave/delta) on step 10000
  2 1.08997 4.43772e-07
  4 0.944971 0
  5 0.99997 3.95396e-06
  6 109.47 0.000426788
---------------- Step    10000 ----- CPU =     26.8651 (sec) ----------------
TotEng   =     -3337.3720 KinEng   =       651.2491 Temp     =       300.6613 
PotEng   =     -3988.6211 E_bond   =         0.3819 E_angle  =         5.6391 
E_dihed  =         0.4007 E_impro  =         0.0000 E_vdwl   =       760.4030 
E_coul   =     14714.3564 E_long   =    -19469.8023 Press    =       253.7864 
Volume   =     10859.4989 
SHAKE stats (type/ave/delta) on step 11000
  2 1.08996 1.5143e-07
  4 0.944965 0
  5 0.999963 4.35425e-06
  6 109.47 0.000487019
---------------- Step    11000 ----- CPU =     29.5945 (sec) ----------------
TotEng   =     -3319.6507 KinEng   =       650.4522 Temp     =       300.2934 
PotEng   =     -3970.1030 E_bond   =         0.6229 E_angle  =         3.5882 
E_dihed  =         0.3410 E_impro  =         0.0000 E_vdwl   =       725.6599 
E_coul   =     14766.3040 E_long   =    -19466.6189 Press    =      -117.8539 
Volume   =     10745.0260 
SHAKE stats (type/ave/delta) on step 12000
  2 1.08998 7.41303e-07
  4 0.944985 0
  5 0.999985 4.38141e-06
  6 109.47 0.000400657
---------------- Step    12000 ----- CPU =     32.3074 (sec) ----------------
TotEng   =     -3360.6614 KinEng   =       650.2117 Temp     =       300.1824 
PotEng   =     -4010.8731 E_bond   =         0.8591 E_angle  =         3.7622 
E_dihed  =         0.4334 E_impro  =         0.0000 E_vdwl   =       837.7098 
E_coul   =     14615.1237 E_long   =    -19468.7613 Press    =      1558.2345 
Volume   =     10773.5486 
SHAKE stats (type/ave/delta) on step 13000
  2 1.08989 1.15678e-06
  4 0.944908 0
  5 0.999904 5.56325e-06
  6 109.47 0.000714433
---------------- Step    13000 ----- CPU =     35.0199 (sec) ----------------
TotEng   =     -3305.3199 KinEng   =       660.6855 Temp     =       305.0178 
PotEng   =     -3966.0054 E_bond   =         0.3570 E_angle  =         4.3822 
E_dihed  =         0.6976 E_impro  =         0.0000 E_vdwl   =       814.8253 
E_coul   =     14681.5942 E_long   =    -19467.8615 Press    =      1479.1713 
Volume   =     10829.6416 
SHAKE stats (type/ave/delta) on step 14000
  2 1.08995 4.57514e-07
  4 0.944956 0
  5 0.999954 4.41603e-06
  6 109.47 0.000402377
---------------- Step    14000 ----- CPU =     37.6948 (sec) ----------------
TotEng   =     -3397.3991 KinEng   =       627.1184 Temp     =       289.5210 
PotEng   =     -4024.5176 E_bond   =         0.2043 E_angle  =         3.6394 
E_dihed  =         1.1479 E_impro  =         0.0000 E_vdwl   =       750.5943 
E_coul   =     14690.1816 E_long   =    -19470.2851 Press    =      -248.3074 
Volume   =     10849.2601 
SHAKE stats (type/ave/delta) on step 15000
  2 1.08994 3.75738e-06
  4 0.944952 0
  5 0.999949 8.89803e-06
  6 109.47 0.00110454
---------------- Step    15000 ----- CPU =     40.3968 (sec) ----------------
TotEng   =     -3371.5951 KinEng   =       607.1921 Temp     =       280.3216 
PotEng   =     -3978.7872 E_bond   =         0.0184 E_angle  =         2.5236 
E_dihed  =         0.4471 E_impro  =         0.0000 E_vdwl   =       745.9602 
E_coul   =     14739.2193 E_long   =    -19466.9558 Press    =      -547.3040 
Volume   =     11059.5767 
SHAKE stats (type/ave/delta) on step 16000
  2 1.08997 1.17381e-06
  4 0.944972 0
  5 0.99997 6.28347e-06
  6 109.47 0.000641107
---------------- Step    16000 ----- CPU =     43.0371 (sec) ----------------
TotEng   =     -3328.6510 KinEng   =       629.9130 Temp     =       290.8111 
PotEng   =     -3958.5640 E_bond   =         0.2301 E_angle  =         2.3199 
E_dihed  =         0.2523 E_impro  =         0.0000 E_vdwl   =       707.2252 
E_coul   =     14797.5166 E_long   =    -19466.1081 Press    =     -1187.9463 
Volume   =     11126.3926 
SHAKE stats (type/ave/delta) on step 17000
  2 1.08989 3.97525e-06
  4 0.944906 0
  5 0.999901 1.25889e-05
  6 109.47 0.000878991
---------------- Step    17000 ----- CPU =     45.7408 (sec) ----------------
TotEng   =     -3282.5126 KinEng   =       683.0839 Temp     =       315.3585 
PotEng   =     -3965.5965 E_bond   =         0.0934 E_angle  =         5.1201 
E_dihed  =         0.2600 E_impro  =         0.0000 E_vdwl   =       759.2408 
E_coul   =     14735.7690 E_long   =    -19466.0797 Press    =       -38.8633 
Volume   =     11102.3458 
SHAKE stats (type/ave/delta) on step 18000
  2 1.09011 7.33957e-07
  4 0.945098 0
  5 1.00011 5.05354e-06
  6 109.47 0.000461917
---------------- Step    18000 ----- CPU =     48.4103 (sec) ----------------
TotEng   =     -3369.1481 KinEng   =       651.2038 Temp     =       300.6404 
PotEng   =     -4020.3520 E_bond   =         0.2955 E_angle  =         3.6930 
E_dihed  =         2.5290 E_impro  =         0.0000 E_vdwl   =       751.4669 
E_coul   =     14689.0667 E_long   =    -19467.4031 Press    =      -668.4977 
Volume   =     10901.0378 
SHAKE stats (type/ave/delta) on step 19000
  2 1.08997 1.10404e-06
  4 0.944971 0
  5 0.999971 6.31372e-06
  6 109.47 0.000758817
---------------- Step    19000 ----- CPU =     51.1368 (sec) ----------------
TotEng   =     -3345.8332 KinEng   =       671.2726 Temp     =       309.9056 
PotEng   =     -4017.1058 E_bond   =         0.3114 E_angle  =         3.8965 
E_dihed  =         1.1155 E_impro  =         0.0000 E_vdwl   =       838.9919 
E_coul   =     14607.3903 E_long   =    -19468.8114 Press    =      1286.5530 
Volume   =     10976.7972 
SHAKE stats (type/ave/delta) on step 20000
  2 1.08998 8.31555e-08
  4 0.944984 0
  5 0.999984 3.85456e-06
  6 109.47 0.000359958
---------------- Step    20000 ----- CPU =     53.8231 (sec) ----------------
TotEng   =     -3278.4897 KinEng   =       653.7613 Temp     =       301.8211 
PotEng   =     -3932.2510 E_bond   =         0.1302 E_angle  =         4.0546 
E_dihed  =         1.0817 E_impro  =         0.0000 E_vdwl   =       729.0384 
E_coul   =     14802.6324 E_long   =    -19469.1883 Press    =      -181.2854 
Volume   =     10846.4462 
SHAKE stats (type/ave/delta) on step 21000
  2 1.09007 1.54561e-06
  4 0.945062 0
  5 1.00007 9.72835e-06
  6 109.47 0.000812954
---------------- Step    21000 ----- CPU =     56.4920 (sec) ----------------
TotEng   =     -3319.2352 KinEng   =       639.9744 Temp     =       295.4562 
PotEng   =     -3959.2096 E_bond   =         0.3592 E_angle  =         3.9243 
E_dihed  =         0.1287 E_impro  =         0.0000 E_vdwl   =       798.5519 
E_coul   =     14707.9942 E_long   =    -19470.1679 Press    =       799.2692 
Volume   =     11022.3235 
SHAKE stats (type/ave/delta) on step 22000
  2 1.09007 1.35333e-06
  4 0.94506 0
  5 1.00006 7.73188e-06
  6 109.47 0.000629508
---------------- Step    22000 ----- CPU =     59.3793 (sec) ----------------
TotEng   =     -3385.3871 KinEng   =       635.3718 Temp     =       293.3313 
PotEng   =     -4020.7590 E_bond   =         0.4780 E_angle  =         4.6058 
E_dihed  =         1.0912 E_impro  =         0.0000 E_vdwl   =       767.3914 
E_coul   =     14672.9656 E_long   =    -19467.2910 Press    =      -245.2907 
Volume   =     11051.0998 
SHAKE stats (type/ave/delta) on step 23000
  2 1.09 7.39074e-07
  4 0.944996 0
  5 0.999997 7.59339e-06
  6 109.47 0.000604577
---------------- Step    23000 ----- CPU =     62.0648 (sec) ----------------
TotEng   =     -3417.5297 KinEng   =       653.5984 Temp     =       301.7459 
PotEng   =     -4071.1281 E_bond   =         0.5626 E_angle  =         4.0055 
E_dihed  =         0.4118 E_impro  =         0.0000 E_vdwl   =       766.5426 
E_coul   =     14624.7038 E_long   =    -19467.3545 Press    =      -477.8638 
Volume   =     10851.8841 
SHAKE stats (type/ave/delta) on step 24000
  2 1.08999 1.71103e-06
  4 0.944991 0
  5 0.999991 6.13128e-06
  6 109.47 0.000512132
---------------- Step    24000 ----- CPU =     64.7279 (sec) ----------------
TotEng   =     -3388.8943 KinEng   =       619.3425 Temp     =       285.9311 
PotEng   =     -4008.2368 E_bond   =         0.0520 E_angle  =         3.3100 
E_dihed  =         0.6593 E_impro  =         0.0000 E_vdwl   =       798.9989 
E_coul   =     14655.3759 E_long   =    -19466.6330 Press    =       351.0888 
Volume   =     11130.5141 
SHAKE stats (type/ave/delta) on step 25000
  2 1.08986 6.80742e-07
  4 0.944877 0
  5 0.99987 3.98089e-06
  6 109.47 0.000406274
---------------- Step    25000 ----- CPU =     67.3356 (sec) ----------------
TotEng   =     -3311.8925 KinEng   =       636.1078 Temp     =       293.6711 
PotEng   =     -3948.0002 E_bond   =         0.2287 E_angle  =         4.9885 
E_dihed  =         0.2487 E_impro  =         0.0000 E_vdwl   =       834.2968 
E_coul   =     14680.0046 E_long   =    -19467.7675 Press    =      1600.8754 
Volume   =     11032.6204 
SHAKE stats (type/ave/delta) on step 26000
  2 1.08987 5.49331e-06
  4 0.944883 0
  5 0.999876 1.28406e-05
  6 109.47 0.00129301
---------------- Step    26000 ----- CPU =     69.9335 (sec) ----------------
TotEng   =     -3313.0617 KinEng   =       649.7700 Temp     =       299.9785 
PotEng   =     -3962.8317 E_bond   =         1.9325 E_angle  =         3.0340 
E_dihed  =         1.1129 E_impro  =         0.0000 E_vdwl   =       735.4267 
E_coul   =     14763.2097 E_long   =    -19467.5475 Press    =      -833.3538 
Volume   =     11219.8522 
SHAKE stats (type/ave/delta) on step 27000
  2 1.09013 2.03223e-06
  4 0.945109 0
  5 1.00012 7.76613e-06
  6 109.47 0.000535541
---------------- Step    27000 ----- CPU =     72.5549 (sec) ----------------
TotEng   =     -3346.3030 KinEng   =       658.9048 Temp     =       304.1957 
PotEng   =     -4005.2078 E_bond   =         0.4883 E_angle  =         3.6912 
E_dihed  =         0.4943 E_impro  =         0.0000 E_vdwl   =       713.6484 
E_coul   =     14746.2166 E_long   =    -19469.7466 Press    =      -650.6406 
Volume   =     10822.9401 
SHAKE stats (type/ave/delta) on step 28000
  2 1.09006 2.77846e-07
  4 0.945053 0
  5 1.00006 3.57973e-06
  6 109.47 0.000394731
---------------- Step    28000 ----- CPU =     75.1967 (sec) ----------------
TotEng   =     -3305.6619 KinEng   =       652.5671 Temp     =       301.2698 
PotEng   =     -3958.2290 E_bond   =         0.2264 E_angle  =         4.2285 
E_dihed  =         0.2886 E_impro  =         0.0000 E_vdwl   =       760.9543 
E_coul   =     14742.4069 E_long   =    -19466.3338 Press    =       504.2935 
Volume   =     10973.5995 
SHAKE stats (type/ave/delta) on step 29000
  2 1.08999 6.48076e-08
  4 0.944993 0
  5 0.999994 3.99532e-06
  6 109.47 0.000371042
---------------- Step    29000 ----- CPU =     77.8295 (sec) ----------------
TotEng   =     -3383.3987 KinEng   =       639.0423 Temp     =       295.0258 
PotEng   =     -4022.4409 E_bond   =         0.5957 E_angle  =         5.4298 
E_dihed  =         1.2138 E_impro  =         0.0000 E_vdwl   =       843.8100 
E_coul   =     14595.9603 E_long   =    -19469.4506 Press    =       890.9319 
Volume   =     11064.7409 
SHAKE stats (type/ave/delta) on step 30000
  2 1.08996 2.84532e-06
  4 0.94497 0
  5 0.999968 1.16175e-05
  6 109.47 0.00112954
---------------- Step    30000 ----- CPU =     80.5076 (sec) ----------------
TotEng   =     -3322.9077 KinEng   =       650.7714 Temp     =       300.4408 
PotEng   =     -3973.6791 E_bond   =         0.7597 E_angle  =         3.4202 
E_dihed  =         0.5600 E_impro  =         0.0000 E_vdwl   =       769.7582 
E_coul   =     14718.7971 E_long   =    -19466.9744 Press    =       501.3334 
Volume   =     10934.4778 
SHAKE stats (type/ave/delta) on step 31000
  2 1.09001 2.29871e-07
  4 0.945007 0
  5 1.00001 3.48561e-06
  6 109.47 0.000401062
---------------- Step    31000 ----- CPU =     83.1628 (sec) ----------------
TotEng   =     -3356.8302 KinEng   =       649.0243 Temp     =       299.6342 
PotEng   =     -4005.8545 E_bond   =         1.0410 E_angle  =         2.3641 
[...]
  5 1.00007 4.21822e-06
  6 109.47 0.000372805
---------------- Step   467000 ----- CPU =   1260.8570 (sec) ----------------
TotEng   =     -3383.0840 KinEng   =       644.9923 Temp     =       297.7728 
PotEng   =     -4028.0763 E_bond   =         1.0490 E_angle  =         2.5025 
E_dihed  =         2.0767 E_impro  =         0.0000 E_vdwl   =       699.1517 
E_coul   =     14736.0568 E_long   =    -19468.9130 Press    =     -1439.1008 
Volume   =     10793.5064 
SHAKE stats (type/ave/delta) on step 468000
  2 1.09002 1.10058e-06
  4 0.945022 0
  5 1.00002 6.19963e-06
  6 109.47 0.000791669
---------------- Step   468000 ----- CPU =   1263.7230 (sec) ----------------
TotEng   =     -3393.5777 KinEng   =       614.8442 Temp     =       283.8544 
PotEng   =     -4008.4219 E_bond   =         0.8910 E_angle  =         4.4620 
E_dihed  =         0.0304 E_impro  =         0.0000 E_vdwl   =       792.9610 
E_coul   =     14659.1699 E_long   =    -19465.9362 Press    =       542.9014 
Volume   =     10944.5469 
SHAKE stats (type/ave/delta) on step 469000
  2 1.09002 6.62383e-07
  4 0.945014 0
  5 1.00002 5.33693e-06
  6 109.47 0.000463904
---------------- Step   469000 ----- CPU =   1266.4952 (sec) ----------------
TotEng   =     -3364.8393 KinEng   =       642.7696 Temp     =       296.7466 
PotEng   =     -4007.6088 E_bond   =         2.1943 E_angle  =         3.2014 
E_dihed  =         0.2136 E_impro  =         0.0000 E_vdwl   =       780.0427 
E_coul   =     14674.1003 E_long   =    -19467.3611 Press    =        25.9530 
Volume   =     11116.6341 
SHAKE stats (type/ave/delta) on step 470000
  2 1.09014 6.87679e-07
  4 0.945121 0
  5 1.00013 5.3371e-06
  6 109.47 0.000501379
---------------- Step   470000 ----- CPU =   1269.3149 (sec) ----------------
TotEng   =     -3296.8045 KinEng   =       692.5568 Temp     =       319.7318 
PotEng   =     -3989.3614 E_bond   =         2.2655 E_angle  =         6.8212 
E_dihed  =         0.2935 E_impro  =         0.0000 E_vdwl   =       727.0677 
E_coul   =     14740.4421 E_long   =    -19466.2513 Press    =      -906.3629 
Volume   =     10913.6972 
SHAKE stats (type/ave/delta) on step 471000
  2 1.09017 3.87841e-07
  4 0.945143 0
  5 1.00015 3.99946e-06
  6 109.47 0.00035536
---------------- Step   471000 ----- CPU =   1272.1836 (sec) ----------------
TotEng   =     -3354.5095 KinEng   =       671.6471 Temp     =       310.0785 
PotEng   =     -4026.1566 E_bond   =         0.0551 E_angle  =         3.8819 
E_dihed  =         0.2896 E_impro  =         0.0000 E_vdwl   =       778.0326 
E_coul   =     14660.1459 E_long   =    -19468.5616 Press    =       446.9443 
Volume   =     10618.2484 
SHAKE stats (type/ave/delta) on step 472000
  2 1.09004 1.3656e-06
  4 0.945034 0
  5 1.00004 6.78843e-06
  6 109.47 0.000632264
---------------- Step   472000 ----- CPU =   1275.0313 (sec) ----------------
TotEng   =     -3360.5815 KinEng   =       648.6035 Temp     =       299.4399 
PotEng   =     -4009.1850 E_bond   =         0.3710 E_angle  =         4.6000 
E_dihed  =         0.4691 E_impro  =         0.0000 E_vdwl   =       731.4705 
E_coul   =     14720.7217 E_long   =    -19466.8173 Press    =      -472.5935 
Volume   =     10809.3410 
SHAKE stats (type/ave/delta) on step 473000
  2 1.09014 2.77885e-06
  4 0.945121 0
  5 1.00013 7.95276e-06
  6 109.47 0.000704654
---------------- Step   473000 ----- CPU =   1277.8597 (sec) ----------------
TotEng   =     -3398.1276 KinEng   =       636.0882 Temp     =       293.6620 
PotEng   =     -4034.2159 E_bond   =         0.0592 E_angle  =         5.8897 
E_dihed  =         1.3305 E_impro  =         0.0000 E_vdwl   =       768.5121 
E_coul   =     14656.3889 E_long   =    -19466.3963 Press    =      -183.6109 
Volume   =     10822.7810 
SHAKE stats (type/ave/delta) on step 474000
  2 1.08995 2.87712e-07
  4 0.944956 1.66533e-15
  5 0.999954 4.75886e-06
  6 109.47 0.000410867
---------------- Step   474000 ----- CPU =   1280.4737 (sec) ----------------
TotEng   =     -3317.9731 KinEng   =       658.9441 Temp     =       304.2139 
PotEng   =     -3976.9171 E_bond   =         0.4656 E_angle  =         4.4910 
E_dihed  =         1.3499 E_impro  =         0.0000 E_vdwl   =       757.9884 
E_coul   =     14724.3655 E_long   =    -19465.5775 Press    =      -224.3660 
Volume   =     11074.1895 
SHAKE stats (type/ave/delta) on step 475000
  2 1.08992 2.57742e-06
  4 0.944935 0
  5 0.999931 7.54501e-06
  6 109.47 0.000873307
---------------- Step   475000 ----- CPU =   1283.0517 (sec) ----------------
TotEng   =     -3352.6069 KinEng   =       636.6397 Temp     =       293.9166 
PotEng   =     -3989.2466 E_bond   =         1.9348 E_angle  =         7.0623 
E_dihed  =         0.7912 E_impro  =         0.0000 E_vdwl   =       728.9420 
E_coul   =     14739.0873 E_long   =    -19467.0643 Press    =      -784.6717 
Volume   =     10952.8915 
SHAKE stats (type/ave/delta) on step 476000
  2 1.09001 1.38208e-06
  4 0.945012 6.66134e-16
  5 1.00001 4.23192e-06
  6 109.47 0.000377121
---------------- Step   476000 ----- CPU =   1285.6772 (sec) ----------------
TotEng   =     -3437.1038 KinEng   =       630.7160 Temp     =       291.1818 
PotEng   =     -4067.8198 E_bond   =         0.6723 E_angle  =         6.3923 
E_dihed  =         0.2963 E_impro  =         0.0000 E_vdwl   =       839.6058 
E_coul   =     14553.0279 E_long   =    -19467.8144 Press    =       911.6495 
Volume   =     10902.7062 
SHAKE stats (type/ave/delta) on step 477000
  2 1.09007 3.36681e-06
  4 0.945061 0
  5 1.00007 9.5262e-06
  6 109.47 0.000870316
---------------- Step   477000 ----- CPU =   1288.2625 (sec) ----------------
TotEng   =     -3343.6273 KinEng   =       662.1093 Temp     =       305.6752 
PotEng   =     -4005.7366 E_bond   =         1.0965 E_angle  =         9.1189 
E_dihed  =         0.5688 E_impro  =         0.0000 E_vdwl   =       895.7729 
E_coul   =     14555.2463 E_long   =    -19467.5402 Press    =      2917.8633 
Volume   =     10616.6332 
SHAKE stats (type/ave/delta) on step 478000
  2 1.08999 1.0963e-06
  4 0.944991 0
  5 0.999992 5.68222e-06
  6 109.47 0.000449156
---------------- Step   478000 ----- CPU =   1290.9283 (sec) ----------------
TotEng   =     -3287.7864 KinEng   =       682.3232 Temp     =       315.0073 
PotEng   =     -3970.1096 E_bond   =         0.1875 E_angle  =        10.9549 
E_dihed  =         0.4619 E_impro  =         0.0000 E_vdwl   =       694.5695 
E_coul   =     14790.4859 E_long   =    -19466.7693 Press    =     -1621.2723 
Volume   =     11241.0847 
SHAKE stats (type/ave/delta) on step 479000
  2 1.08996 7.53261e-07
  4 0.944966 0
  5 0.999965 4.72724e-06
  6 109.47 0.000477466
---------------- Step   479000 ----- CPU =   1293.5446 (sec) ----------------
TotEng   =     -3356.8676 KinEng   =       652.7503 Temp     =       301.3544 
PotEng   =     -4009.6180 E_bond   =         0.8709 E_angle  =         5.3351 
E_dihed  =         1.1422 E_impro  =         0.0000 E_vdwl   =       765.9653 
E_coul   =     14684.9581 E_long   =    -19467.8896 Press    =       169.0484 
Volume   =     10977.2599 
SHAKE stats (type/ave/delta) on step 480000
  2 1.08993 1.10879e-05
  4 0.944937 0
  5 0.999935 9.45567e-06
  6 109.47 0.000776292
---------------- Step   480000 ----- CPU =   1296.1357 (sec) ----------------
TotEng   =     -3362.3691 KinEng   =       649.9252 Temp     =       300.0501 
PotEng   =     -4012.2943 E_bond   =         0.0533 E_angle  =         8.0225 
E_dihed  =         0.3254 E_impro  =         0.0000 E_vdwl   =       790.3673 
E_coul   =     14655.6262 E_long   =    -19466.6890 Press    =       378.6665 
Volume   =     10932.5670 
SHAKE stats (type/ave/delta) on step 481000
  2 1.09003 5.30896e-07
  4 0.945025 0
  5 1.00003 3.89466e-06
  6 109.47 0.000400751
---------------- Step   481000 ----- CPU =   1298.7135 (sec) ----------------
TotEng   =     -3406.5408 KinEng   =       636.9290 Temp     =       294.0502 
PotEng   =     -4043.4698 E_bond   =         0.2278 E_angle  =         5.9197 
E_dihed  =         1.0196 E_impro  =         0.0000 E_vdwl   =       761.2233 
E_coul   =     14656.0329 E_long   =    -19467.8931 Press    =      -627.3314 
Volume   =     10895.6982 
SHAKE stats (type/ave/delta) on step 482000
  2 1.09 2.30189e-07
  4 0.945003 0
  5 1 4.40949e-06
  6 109.47 0.00039626
---------------- Step   482000 ----- CPU =   1301.3342 (sec) ----------------
TotEng   =     -3328.2765 KinEng   =       663.1841 Temp     =       306.1714 
PotEng   =     -3991.4606 E_bond   =         0.5038 E_angle  =         6.4889 
E_dihed  =         1.5250 E_impro  =         0.0000 E_vdwl   =       810.5681 
E_coul   =     14657.5608 E_long   =    -19468.1072 Press    =      1001.5778 
Volume   =     10846.9119 
SHAKE stats (type/ave/delta) on step 483000
  2 1.09 1.65104e-06
  4 0.945003 0
  5 1 7.13623e-06
  6 109.47 0.000795704
---------------- Step   483000 ----- CPU =   1303.9048 (sec) ----------------
TotEng   =     -3358.3631 KinEng   =       663.2735 Temp     =       306.2127 
PotEng   =     -4021.6366 E_bond   =         0.3285 E_angle  =         7.3496 
E_dihed  =         0.7963 E_impro  =         0.0000 E_vdwl   =       771.2280 
E_coul   =     14668.5867 E_long   =    -19469.9257 Press    =      -249.7850 
Volume   =     10943.6187 
SHAKE stats (type/ave/delta) on step 484000
  2 1.09011 2.07297e-06
  4 0.945099 0
  5 1.00011 5.83592e-06
  6 109.47 0.000446327
---------------- Step   484000 ----- CPU =   1306.4499 (sec) ----------------
TotEng   =     -3415.2574 KinEng   =       657.6067 Temp     =       303.5964 
PotEng   =     -4072.8641 E_bond   =         1.2613 E_angle  =         5.8607 
E_dihed  =         1.0205 E_impro  =         0.0000 E_vdwl   =       836.3788 
E_coul   =     14551.5167 E_long   =    -19468.9020 Press    =       822.6496 
Volume   =     10965.1890 
SHAKE stats (type/ave/delta) on step 485000
  2 1.08989 2.41604e-06
  4 0.94491 0
  5 0.999904 6.08119e-06
  6 109.47 0.000641156
---------------- Step   485000 ----- CPU =   1309.0316 (sec) ----------------
TotEng   =     -3299.6454 KinEng   =       661.3803 Temp     =       305.3386 
PotEng   =     -3961.0257 E_bond   =         0.5000 E_angle  =         4.3762 
E_dihed  =         0.3947 E_impro  =         0.0000 E_vdwl   =       766.3602 
E_coul   =     14733.9368 E_long   =    -19466.5936 Press    =      -101.7526 
Volume   =     11157.4083 
SHAKE stats (type/ave/delta) on step 486000
  2 1.08985 2.81085e-07
  4 0.944872 0
  5 0.999866 4.28759e-06
  6 109.47 0.000356112
---------------- Step   486000 ----- CPU =   1311.6477 (sec) ----------------
TotEng   =     -3328.2517 KinEng   =       650.2640 Temp     =       300.2066 
PotEng   =     -3978.5157 E_bond   =         0.0009 E_angle  =         5.2911 
E_dihed  =         0.6022 E_impro  =         0.0000 E_vdwl   =       812.1149 
E_coul   =     14671.0535 E_long   =    -19467.5783 Press    =      1206.6929 
Volume   =     10858.9518 
SHAKE stats (type/ave/delta) on step 487000
  2 1.08993 8.95983e-07
  4 0.944939 0
  5 0.999936 3.99423e-06
  6 109.47 0.000366417
---------------- Step   487000 ----- CPU =   1314.4685 (sec) ----------------
TotEng   =     -3303.4974 KinEng   =       666.6719 Temp     =       307.7816 
PotEng   =     -3970.1693 E_bond   =         0.4258 E_angle  =         7.4373 
E_dihed  =         1.5720 E_impro  =         0.0000 E_vdwl   =       821.8159 
E_coul   =     14666.0049 E_long   =    -19467.4253 Press    =      1252.1819 
Volume   =     11066.1125 
SHAKE stats (type/ave/delta) on step 488000
  2 1.08991 3.5569e-06
  4 0.94492 0
  5 0.999917 5.72918e-06
  6 109.47 0.000716199
---------------- Step   488000 ----- CPU =   1317.2156 (sec) ----------------
TotEng   =     -3399.0349 KinEng   =       610.4586 Temp     =       281.8296 
PotEng   =     -4009.4935 E_bond   =         0.6457 E_angle  =         8.7645 
E_dihed  =         1.2898 E_impro  =         0.0000 E_vdwl   =       805.2802 
E_coul   =     14643.4437 E_long   =    -19468.9174 Press    =       287.0118 
Volume   =     11032.1757 
SHAKE stats (type/ave/delta) on step 489000
  2 1.09006 4.74145e-07
  4 0.94505 0
  5 1.00005 4.64767e-06
  6 109.47 0.000379773
---------------- Step   489000 ----- CPU =   1320.0311 (sec) ----------------
TotEng   =     -3351.9188 KinEng   =       672.2737 Temp     =       310.3678 
PotEng   =     -4024.1925 E_bond   =         0.3619 E_angle  =         5.9551 
E_dihed  =         0.2385 E_impro  =         0.0000 E_vdwl   =       783.8059 
E_coul   =     14650.6481 E_long   =    -19465.2021 Press    =       522.2406 
Volume   =     10741.9230 
SHAKE stats (type/ave/delta) on step 490000
  2 1.09005 4.01635e-06
  4 0.945043 0
  5 1.00005 6.82212e-06
  6 109.47 0.000616457
---------------- Step   490000 ----- CPU =   1322.7725 (sec) ----------------
TotEng   =     -3333.2386 KinEng   =       676.1339 Temp     =       312.1499 
PotEng   =     -4009.3725 E_bond   =         0.9566 E_angle  =         7.0540 
E_dihed  =         1.1702 E_impro  =         0.0000 E_vdwl   =       794.3384 
E_coul   =     14657.2045 E_long   =    -19470.0962 Press    =       381.8691 
Volume   =     10969.9841 
SHAKE stats (type/ave/delta) on step 491000
  2 1.09006 2.24938e-07
  4 0.945055 0
  5 1.00006 5.81242e-06
  6 109.47 0.000634616
---------------- Step   491000 ----- CPU =   1325.5058 (sec) ----------------
TotEng   =     -3402.6360 KinEng   =       628.0644 Temp     =       289.9577 
PotEng   =     -4030.7005 E_bond   =         0.1170 E_angle  =         8.0709 
E_dihed  =         0.3513 E_impro  =         0.0000 E_vdwl   =       790.4669 
E_coul   =     14638.8602 E_long   =    -19468.5668 Press    =       317.4831 
Volume   =     10918.9032 
SHAKE stats (type/ave/delta) on step 492000
  2 1.09008 5.94327e-06
  4 0.945073 0
  5 1.00008 9.86988e-06
  6 109.47 0.000839516
---------------- Step   492000 ----- CPU =   1328.2147 (sec) ----------------
TotEng   =     -3348.4831 KinEng   =       649.7102 Temp     =       299.9509 
PotEng   =     -3998.1932 E_bond   =         0.5851 E_angle  =         8.1569 
E_dihed  =         1.6250 E_impro  =         0.0000 E_vdwl   =       769.1682 
E_coul   =     14689.5144 E_long   =    -19467.2429 Press    =       334.5475 
Volume   =     10704.1742 
SHAKE stats (type/ave/delta) on step 493000
  2 1.09 3.65294e-06
  4 0.944997 0
  5 0.999998 1.29867e-05
  6 109.47 0.00106877
---------------- Step   493000 ----- CPU =   1330.9196 (sec) ----------------
TotEng   =     -3395.2685 KinEng   =       640.6747 Temp     =       295.7795 
PotEng   =     -4035.9432 E_bond   =         0.1570 E_angle  =         6.5839 
E_dihed  =         0.5507 E_impro  =         0.0000 E_vdwl   =       752.9747 
E_coul   =     14673.6670 E_long   =    -19469.8764 Press    =      -726.4643 
Volume   =     10938.1999 
SHAKE stats (type/ave/delta) on step 494000
  2 1.08991 1.31556e-05
  4 0.944924 0
  5 0.999918 9.33406e-06
  6 109.47 0.000877392
---------------- Step   494000 ----- CPU =   1333.6591 (sec) ----------------
TotEng   =     -3365.9718 KinEng   =       639.6167 Temp     =       295.2910 
PotEng   =     -4005.5885 E_bond   =         1.4420 E_angle  =         5.8077 
E_dihed  =         1.7430 E_impro  =         0.0000 E_vdwl   =       759.0194 
E_coul   =     14690.2773 E_long   =    -19463.8779 Press    =      -442.5672 
Volume   =     11060.5666 
SHAKE stats (type/ave/delta) on step 495000
  2 1.08994 1.16998e-06
  4 0.944952 0
  5 0.99995 7.37022e-06
  6 109.47 0.000571396
---------------- Step   495000 ----- CPU =   1336.3984 (sec) ----------------
TotEng   =     -3335.0892 KinEng   =       677.0327 Temp     =       312.5648 
PotEng   =     -4012.1219 E_bond   =         3.1718 E_angle  =         7.6625 
E_dihed  =         0.2930 E_impro  =         0.0000 E_vdwl   =       852.2374 
E_coul   =     14594.5814 E_long   =    -19470.0678 Press    =      1735.0266 
Volume   =     10708.3651 
SHAKE stats (type/ave/delta) on step 496000
  2 1.08997 1.63468e-06
  4 0.94497 0
  5 0.99997 8.5352e-06
  6 109.47 0.000732409
---------------- Step   496000 ----- CPU =   1339.0835 (sec) ----------------
TotEng   =     -3315.5874 KinEng   =       684.0168 Temp     =       315.7891 
PotEng   =     -3999.6042 E_bond   =         1.2805 E_angle  =         6.2996 
E_dihed  =         2.1640 E_impro  =         0.0000 E_vdwl   =       782.2912 
E_coul   =     14677.4740 E_long   =    -19469.1136 Press    =       954.1167 
Volume   =     10722.6780 
SHAKE stats (type/ave/delta) on step 497000
  2 1.08998 9.8098e-07
  4 0.944977 0
  5 0.999978 6.39855e-06
  6 109.47 0.000613386
---------------- Step   497000 ----- CPU =   1341.7736 (sec) ----------------
TotEng   =     -3308.4699 KinEng   =       674.6713 Temp     =       311.4747 
PotEng   =     -3983.1413 E_bond   =         0.6520 E_angle  =         4.2565 
E_dihed  =         0.4553 E_impro  =         0.0000 E_vdwl   =       745.9303 
E_coul   =     14736.6469 E_long   =    -19471.0822 Press    =        38.3195 
Volume   =     10828.4373 
SHAKE stats (type/ave/delta) on step 498000
  2 1.08997 4.41143e-07
  4 0.944973 0
  5 0.999972 4.93963e-06
  6 109.47 0.000386632
---------------- Step   498000 ----- CPU =   1344.6330 (sec) ----------------
TotEng   =     -3394.7912 KinEng   =       629.6455 Temp     =       290.6877 
PotEng   =     -4024.4367 E_bond   =         1.1545 E_angle  =         8.1298 
E_dihed  =         1.1057 E_impro  =         0.0000 E_vdwl   =       816.2350 
E_coul   =     14614.6815 E_long   =    -19465.7433 Press    =       613.6710 
Volume   =     10945.8587 
SHAKE stats (type/ave/delta) on step 499000
  2 1.09002 2.20651e-07
  4 0.945014 0
  5 1.00002 4.40852e-06
  6 109.47 0.00037939
---------------- Step   499000 ----- CPU =   1347.2388 (sec) ----------------
TotEng   =     -3411.3922 KinEng   =       652.3167 Temp     =       301.1542 
PotEng   =     -4063.7089 E_bond   =         0.7696 E_angle  =         8.2586 
E_dihed  =         0.4352 E_impro  =         0.0000 E_vdwl   =       744.5267 
E_coul   =     14650.5006 E_long   =    -19468.1994 Press    =     -1217.7466 
Volume   =     11035.6920 
SHAKE stats (type/ave/delta) on step 500000
  2 1.08996 8.00553e-06
  4 0.944962 0
  5 0.999961 8.97479e-06
  6 109.47 0.00112418
---------------- Step   500000 ----- CPU =   1349.8561 (sec) ----------------
TotEng   =     -3327.7593 KinEng   =       651.3332 Temp     =       300.7002 
PotEng   =     -3979.0925 E_bond   =         0.7296 E_angle  =         6.6801 
E_dihed  =         0.4886 E_impro  =         0.0000 E_vdwl   =       731.9529 
E_coul   =     14748.7008 E_long   =    -19467.6445 Press    =      -719.7057 
Volume   =     11038.5394 
Loop time of 1349.86 on 8 procs for 500000 steps with 1090 atoms

Pair  time (%) = 679.473 (50.3367)
Bond  time (%) = 1.86707 (0.138316)
Kspce time (%) = 261.02 (19.3369)
Neigh time (%) = 96.8519 (7.17498)
Comm  time (%) = 135.06 (10.0055)
Outpt time (%) = 0.260919 (0.0193294)
Other time (%) = 175.324 (12.9883)

FFT time (% of Kspce) = 33.6965 (12.9096)
FFT Gflps 3d (1d only) = 3.82287 52.8159

Nlocal:    136.25 ave 151 max 121 min
Histogram: 2 0 1 0 0 1 0 3 0 1
Nghost:    4178.38 ave 4222 max 4147 min
Histogram: 2 0 2 0 2 0 0 0 0 2
Neighs:    48626.9 ave 54888 max 40261 min
Histogram: 2 0 0 0 2 0 0 1 1 2

Total # of neighbors = 389015
Ave neighs/atom = 356.894
Ave special neighs/atom = 2.05872
Neighbor list builds = 41260
Dangerous builds = 6647

write_restart restart.*.lmp
PPPM initialization ...
  G vector (1/distance) = 0.267323
  grid = 12 12 12
  stencil order = 5
  estimated absolute RMS force accuracy = 0.0262023
  estimated relative force accuracy = 7.89074e-05
  using double precision FFTs
  3d grid and FFT values/proc = 2197 288
write_data data.*.lmp
PPPM initialization ...
  G vector (1/distance) = 0.267323
  grid = 12 12 12
  stencil order = 5
  estimated absolute RMS force accuracy = 0.0262023
  estimated relative force accuracy = 7.89074e-05
  using double precision FFTs
  3d grid and FFT values/proc = 2197 288
