LAMMPS (26 Sep 2016)
# 3d Lennard-Jones melt

units		lj
atom_style	atomic
processors      * 1 1

lattice		fcc 0.8442
Lattice spacing in x,y,z = 1.6796 1.6796 1.6796
region		box block 0 10 0 10 0 10
create_box	3 box
Created orthogonal box = (0 0 0) to (16.796 16.796 16.796)
  4 by 1 by 1 MPI processor grid
create_atoms	1 box
Created 4000 atoms
mass		* 1.0

region		long block 3 6 0 10 0 10
set             region long type 2
  1400 settings made for type

velocity	all create 1.0 87287

pair_style	lj/cut 2.5
pair_coeff	* * 1.0 1.0 2.5
pair_coeff      * 2 1.0 1.0 5.0

comm_style	tiled

neighbor	0.3 bin
neigh_modify	every 2 delay 4 check yes
fix		p all property/atom d_WEIGHT
fix		0 all balance 50 1.0 rcb weight neigh 0.8 weight store WEIGHT
compute		p all property/atom d_WEIGHT
variable	maximb equal f_0[1]
variable	iter   equal f_0[2]
variable 	prev   equal f_0[3]
variable	final  equal f_0

#fix		3 all print 50 "${iter} ${prev} ${final} ${maximb}"

fix		1 all nve

#dump		id all atom 50 dump.melt
#dump		id all custom 50 dump.lammpstrj id type x y z c_p

#dump		2 all image 25 image.*.jpg type type #		axes yes 0.8 0.02 view 60 -30
#dump_modify	2 pad 3

#dump		3 all movie 25 movie.mpg type type #		axes yes 0.8 0.02 view 60 -30
#dump_modify	3 pad 3

thermo		50

run		250
Neighbor list info ...
  1 neighbor list requests
  update every 2 steps, delay 4 steps, check yes
  max neighbors/atom: 2000, page size: 100000
  master list distance cutoff = 5.3
  ghost atom cutoff = 5.3
  binsize = 2.65 -> bins = 7 7 7
WARNING: No suitable neighbor list found. Neighbor weighted balancing skipped (../imbalance_neigh.cpp:65)
Memory usage per processor = 2.90262 Mbytes
Step Temp E_pair E_mol TotEng Press Volume 
       0            1   -6.9453205            0   -5.4456955   -5.6812358    4738.2137 
      50   0.48653399   -6.1788509            0   -5.4492324   -1.6017778    4738.2137 
     100   0.53411175    -6.249885            0   -5.4489177   -1.9317606    4738.2137 
     150   0.53646658   -6.2527206            0   -5.4482219   -1.9689568    4738.2137 
     200   0.54551611   -6.2656326            0   -5.4475631   -2.0042104    4738.2137 
     250   0.54677719   -6.2671162            0   -5.4471555   -2.0015995    4738.2137 
Loop time of 0.943947 on 4 procs for 250 steps with 4000 atoms

Performance: 114413.252 tau/day, 264.845 timesteps/s
99.4% CPU use with 4 MPI tasks x no OpenMP threads

MPI task timing breakdown:
Section |  min time  |  avg time  |  max time  |%varavg| %total
---------------------------------------------------------------
Pair    | 0.64601    | 0.66027    | 0.67403    |   1.2 | 69.95
Neigh   | 0.18111    | 0.18828    | 0.1953     |   1.2 | 19.95
Comm    | 0.072217   | 0.084395   | 0.096822   |   3.4 |  8.94
Output  | 0.00016904 | 0.00018668 | 0.00020409 |   0.1 |  0.02
Modify  | 0.005301   | 0.0055165  | 0.0056343  |   0.2 |  0.58
Other   |            | 0.005294   |            |       |  0.56

Nlocal:    1000 ave 1004 max 996 min
Histogram: 1 0 0 1 0 0 1 0 0 1
Nghost:    7674 ave 7678 max 7668 min
Histogram: 1 0 0 0 0 0 1 0 1 1
Neighs:    149349 ave 150214 max 148735 min
Histogram: 1 0 1 0 1 0 0 0 0 1

Total # of neighbors = 597396
Ave neighs/atom = 149.349
Neighbor list builds = 25
Dangerous builds = 0
run             250
Memory usage per processor = 2.9031 Mbytes
Step Temp E_pair E_mol TotEng Press Volume 
     250   0.54677719   -6.2671162            0   -5.4471555   -2.0015995    4738.2137 
     300    0.5477618   -6.2678071            0   -5.4463698    -1.997842    4738.2137 
     350   0.55600296   -6.2801497            0   -5.4463538   -2.0394056    4738.2137 
     400   0.53241503   -6.2453665            0   -5.4469436    -1.878594    4738.2137 
     450    0.5439158      -6.2623            0   -5.4466302   -1.9744161    4738.2137 
     500   0.55526241   -6.2793396            0   -5.4466542   -2.0595015    4738.2137 
Loop time of 0.886707 on 4 procs for 250 steps with 4000 atoms

Performance: 121798.994 tau/day, 281.942 timesteps/s
99.7% CPU use with 4 MPI tasks x no OpenMP threads

MPI task timing breakdown:
Section |  min time  |  avg time  |  max time  |%varavg| %total
---------------------------------------------------------------
Pair    | 0.6277     | 0.63292    | 0.64433    |   0.8 | 71.38
Neigh   | 0.1778     | 0.17937    | 0.18309    |   0.5 | 20.23
Comm    | 0.05461    | 0.06445    | 0.070518   |   2.3 |  7.27
Output  | 0.00015926 | 0.00017142 | 0.00018311 |   0.1 |  0.02
Modify  | 0.0050013  | 0.0050754  | 0.0051844  |   0.1 |  0.57
Other   |            | 0.004719   |            |       |  0.53

Nlocal:    1000 ave 1008 max 990 min
Histogram: 1 0 0 1 0 0 0 0 1 1
Nghost:    7665.5 ave 7675 max 7650 min
Histogram: 1 0 0 0 0 1 0 0 0 2
Neighs:    149308 ave 149883 max 148467 min
Histogram: 1 0 0 0 1 0 0 0 1 1

Total # of neighbors = 597231
Ave neighs/atom = 149.308
Neighbor list builds = 25
Dangerous builds = 0

Total wall time: 0:00:01
