created by fftool

1085 atoms
724 bonds
366 angles

4 atom types
2 bond types
2 angle types

-13.443762 13.443762 xlo xhi
-13.443762 13.443762 ylo yhi
-13.443762 13.443762 zlo zhi

Masses

   1   12.011  # C4H
   2    4.008  # H
   3   15.999  # Ow
   4    1.008  # Hw

Bond Coeffs

   1   340.0  1.090  # HC-CT
   2   517.6  0.957  # Ow-Hw

Angle Coeffs

   1   33.00  107.80  # HC-CT-HC
   2   37.95  104.52  # Hw-Ow-Hw

Atoms

      1       1    1 -0.240 -1.060882e+01  8.228678e+00  8.457417e+00  # C4H    methane
      2       1    2  0.060 -1.024259e+01  7.868538e+00  7.496025e+00  # H      methane
      3       1    2  0.060 -1.141460e+01  8.944494e+00  8.294843e+00  # H      methane
      4       1    2  0.060 -1.098260e+01  7.388302e+00  9.042361e+00  # H      methane
      5       1    2  0.060 -9.796015e+00  8.713889e+00  8.997805e+00  # H      methane
      6       2    3 -1.048 -5.606254e+00  9.382264e+00  1.111673e+01  # Ow     TIP4P-Ew
      7       2    4  0.524 -5.142705e+00  1.016858e+01  1.140495e+01  # Hw     TIP4P-Ew
      8       2    4  0.524 -4.970560e+00  8.675111e+00  1.122654e+01  # Hw     TIP4P-Ew
      9       3    3 -1.048  1.099844e+01  8.006606e+00  9.992435e+00  # Ow     TIP4P-Ew
     10       3    4  0.524  1.139370e+01  8.729209e+00  9.504741e+00  # Hw     TIP4P-Ew
     11       3    4  0.524  1.140073e+01  8.053981e+00  1.085970e+01  # Hw     TIP4P-Ew
     12       4    3 -1.048 -2.782280e-01  2.095571e+00  4.513174e+00  # Ow     TIP4P-Ew
     13       4    4  0.524  4.141930e-01  2.046387e+00  3.854109e+00  # Hw     TIP4P-Ew
     14       4    4  0.524  1.695620e-01  2.376349e+00  5.311221e+00  # Hw     TIP4P-Ew
     15       5    3 -1.048  9.548743e+00  5.735635e+00  1.132315e+01  # Ow     TIP4P-Ew
     16       5    4  0.524  8.895667e+00  5.036074e+00  1.134156e+01  # Hw     TIP4P-Ew
     17       5    4  0.524  1.038824e+01  5.282328e+00  1.140053e+01  # Hw     TIP4P-Ew
     18       6    3 -1.048  6.885202e+00 -5.092654e+00  8.452548e+00  # Ow     TIP4P-Ew
     19       6    4  0.524  7.640143e+00 -5.657762e+00  8.616705e+00  # Hw     TIP4P-Ew
     20       6    4  0.524  7.257668e+00 -4.215944e+00  8.358312e+00  # Hw     TIP4P-Ew
     21       7    3 -1.048  1.092258e+01  1.629393e+00  1.139997e+01  # Ow     TIP4P-Ew
     22       7    4  0.524  1.000005e+01  1.884666e+00  1.140063e+01  # Hw     TIP4P-Ew
     23       7    4  0.524  1.140099e+01  2.458458e+00  1.139808e+01  # Hw     TIP4P-Ew
     24       8    3 -1.048 -8.123060e+00 -1.077066e+01  1.140242e+01  # Ow     TIP4P-Ew
     25       8    4  0.524 -7.694802e+00 -9.914733e+00  1.138772e+01  # Hw     TIP4P-Ew
     26       8    4  0.524 -7.401813e+00 -1.139996e+01  1.139945e+01  # Hw     TIP4P-Ew
     27       9    3 -1.048  8.218172e+00  1.089710e+01 -4.883086e+00  # Ow     TIP4P-Ew
     28       9    4  0.524  7.890870e+00  1.139970e+01 -5.629071e+00  # Hw     TIP4P-Ew
     29       9    4  0.524  8.515564e+00  1.007025e+01 -5.262715e+00  # Hw     TIP4P-Ew
     30      10    3 -1.048 -8.393776e+00  6.858655e+00  1.089244e+01  # Ow     TIP4P-Ew
     31      10    4  0.524 -7.672623e+00  7.226428e+00  1.140324e+01  # Hw     TIP4P-Ew
     32      10    4  0.524 -9.175592e+00  7.045053e+00  1.141230e+01  # Hw     TIP4P-Ew
     33      11    3 -1.048 -9.130101e+00 -1.140000e+01 -3.157456e+00  # Ow     TIP4P-Ew
     34      11    4  0.524 -8.887116e+00 -1.047418e+01 -3.163778e+00  # Hw     TIP4P-Ew
     35      11    4  0.524 -1.008713e+01 -1.139682e+01 -3.139678e+00  # Hw     TIP4P-Ew
     36      12    3 -1.048 -1.140002e+01 -4.806628e+00  1.100452e+00  # Ow     TIP4P-Ew
     37      12    4  0.524 -1.080739e+01 -4.085727e+00  8.875430e-01  # Hw     TIP4P-Ew
     38      12    4  0.524 -1.082908e+01 -5.570596e+00  1.181805e+00  # Hw     TIP4P-Ew
     39      13    3 -1.048 -7.927746e+00  9.712411e+00  1.008892e+00  # Ow     TIP4P-Ew
     40      13    4  0.524 -8.811742e+00  9.355170e+00  1.093513e+00  # Hw     TIP4P-Ew
     41      13    4  0.524 -8.058298e+00  1.065583e+01  9.132090e-01  # Hw     TIP4P-Ew
     42      14    3 -1.048 -7.629060e+00 -3.961863e+00  1.093605e+01  # Ow     TIP4P-Ew
     43      14    4  0.524 -7.961851e+00 -3.171332e+00  1.136095e+01  # Hw     TIP4P-Ew
     44      14    4  0.524 -8.052627e+00 -4.681914e+00  1.140333e+01  # Hw     TIP4P-Ew
     45      15    3 -1.048 -1.140009e+01  3.751689e+00  3.254760e+00  # Ow     TIP4P-Ew
     46      15    4  0.524 -1.140478e+01  4.644206e+00  2.908895e+00  # Hw     TIP4P-Ew
     47      15    4  0.524 -1.133076e+01  3.862146e+00  4.203034e+00  # Hw     TIP4P-Ew
     48      16    3 -1.048 -1.223536e+00 -9.205511e+00  1.063519e+01  # Ow     TIP4P-Ew
     49      16    4  0.524 -4.533070e-01 -8.719099e+00  1.034128e+01  # Hw     TIP4P-Ew
     50      16    4  0.524 -1.535483e+00 -8.721714e+00  1.139995e+01  # Hw     TIP4P-Ew
     51      17    3 -1.048 -8.702730e+00 -1.096575e+01  7.741733e+00  # Ow     TIP4P-Ew
     52      17    4  0.524 -9.163390e+00 -1.022856e+01  8.142452e+00  # Hw     TIP4P-Ew
     53      17    4  0.524 -8.267611e+00 -1.140324e+01  8.473516e+00  # Hw     TIP4P-Ew
     54      18    3 -1.048 -1.105571e+01  4.810227e+00 -3.617883e+00  # Ow     TIP4P-Ew
     55      18    4  0.524 -1.140003e+01  5.385374e+00 -4.301167e+00  # Hw     TIP4P-Ew
     56      18    4  0.524 -1.140020e+01  5.173699e+00 -2.802138e+00  # Hw     TIP4P-Ew
     57      19    3 -1.048 -2.785712e+00 -7.817817e+00 -7.640849e+00  # Ow     TIP4P-Ew
     58      19    4  0.524 -2.523640e+00 -8.329581e+00 -8.406125e+00  # Hw     TIP4P-Ew
     59      19    4  0.524 -3.273870e+00 -8.434591e+00 -7.095392e+00  # Hw     TIP4P-Ew
     60      20    3 -1.048 -8.214138e+00  9.840937e+00  4.226611e+00  # Ow     TIP4P-Ew
     61      20    4  0.524 -7.324714e+00  9.487632e+00  4.208425e+00  # Hw     TIP4P-Ew
     62      20    4  0.524 -8.094705e+00  1.079006e+01  4.260208e+00  # Hw     TIP4P-Ew
     63      21    3 -1.048 -1.359153e+00  9.517000e-01  8.631044e+00  # Ow     TIP4P-Ew
     64      21    4  0.524 -7.599350e-01  1.556188e+00  8.193134e+00  # Hw     TIP4P-Ew
     65      21    4  0.524 -1.022578e+00  8.192600e-02  8.415542e+00  # Hw     TIP4P-Ew
     66      22    3 -1.048  9.221907e+00 -8.640180e-01 -8.052564e+00  # Ow     TIP4P-Ew
     67      22    4  0.524  8.358663e+00 -6.865950e-01 -8.426145e+00  # Hw     TIP4P-Ew
     68      22    4  0.524  9.708733e+00 -4.909200e-02 -8.175556e+00  # Hw     TIP4P-Ew
     69      23    3 -1.048 -5.825642e+00 -9.681113e+00  8.739220e+00  # Ow     TIP4P-Ew
     70      23    4  0.524 -4.883877e+00 -9.523150e+00  8.805236e+00  # Hw     TIP4P-Ew
     71      23    4  0.524 -6.217171e+00 -8.807799e+00  8.755285e+00  # Hw     TIP4P-Ew
     72      24    3 -1.048  7.754134e+00  6.798557e+00 -7.459783e+00  # Ow     TIP4P-Ew
     73      24    4  0.524  6.940555e+00  6.299227e+00 -7.530429e+00  # Hw     TIP4P-Ew
     74      24    4  0.524  7.487988e+00  7.639719e+00 -7.088509e+00  # Hw     TIP4P-Ew
     75      25    3 -1.048  1.054455e+01 -5.184331e+00  1.140051e+01  # Ow     TIP4P-Ew
     76      25    4  0.524  1.124322e+01 -4.554539e+00  1.122316e+01  # Hw     TIP4P-Ew
     77      25    4  0.524  9.741231e+00 -4.728801e+00  1.114871e+01  # Hw     TIP4P-Ew
     78      26    3 -1.048  1.140318e+01 -1.098218e+01 -2.696518e+00  # Ow     TIP4P-Ew
     79      26    4  0.524  1.082386e+01 -1.140420e+01 -3.330962e+00  # Hw     TIP4P-Ew
     80      26    4  0.524  1.117352e+01 -1.138296e+01 -1.858148e+00  # Hw     TIP4P-Ew
     81      27    3 -1.048  6.272408e+00  1.880995e+00  1.134119e+01  # Ow     TIP4P-Ew
     82      27    4  0.524  6.979734e+00  2.525238e+00  1.131164e+01  # Hw     TIP4P-Ew
     83      27    4  0.524  5.473053e+00  2.404606e+00  1.139682e+01  # Hw     TIP4P-Ew
     84      28    3 -1.048 -2.541073e+00 -2.142152e+00  5.642847e+00  # Ow     TIP4P-Ew
     85      28    4  0.524 -1.692314e+00 -1.856580e+00  5.980915e+00  # Hw     TIP4P-Ew
     86      28    4  0.524 -3.070008e+00 -2.300208e+00  6.424817e+00  # Hw     TIP4P-Ew
     87      29    3 -1.048 -3.414070e-01  8.107127e+00  7.213107e+00  # Ow     TIP4P-Ew
     88      29    4  0.524 -1.049638e+00  8.048109e+00  7.854324e+00  # Hw     TIP4P-Ew
     89      29    4  0.524 -7.739120e-01  8.372936e+00  6.401617e+00  # Hw     TIP4P-Ew
     90      30    3 -1.048 -5.843009e+00  9.032748e+00 -4.340522e+00  # Ow     TIP4P-Ew
     91      30    4  0.524 -4.913120e+00  8.814666e+00 -4.403596e+00  # Hw     TIP4P-Ew
     92      30    4  0.524 -6.235842e+00  8.635934e+00 -5.117988e+00  # Hw     TIP4P-Ew
     93      31    3 -1.048  8.764308e+00 -8.499706e+00  3.705764e+00  # Ow     TIP4P-Ew
     94      31    4  0.524  7.915646e+00 -8.245436e+00  4.068188e+00  # Hw     TIP4P-Ew
     95      31    4  0.524  8.563028e+00 -8.823473e+00  2.827759e+00  # Hw     TIP4P-Ew
     96      32    3 -1.048  3.650385e+00 -9.358536e+00 -1.096352e+01  # Ow     TIP4P-Ew
     97      32    4  0.524  4.150048e+00 -1.004848e+01 -1.140004e+01  # Hw     TIP4P-Ew
     98      32    4  0.524  2.794242e+00 -9.374978e+00 -1.139128e+01  # Hw     TIP4P-Ew
     99      33    3 -1.048 -5.724007e+00  8.223350e+00 -3.788900e-01  # Ow     TIP4P-Ew
    100      33    4  0.524 -5.692448e+00  7.715571e+00  4.319100e-01  # Hw     TIP4P-Ew
    101      33    4  0.524 -6.207795e+00  7.668602e+00 -9.908010e-01  # Hw     TIP4P-Ew
    102      34    3 -1.048 -1.136166e+01 -9.664780e-01  8.431830e-01  # Ow     TIP4P-Ew
    103      34    4  0.524 -1.129979e+01 -1.161163e+00 -9.196600e-02  # Hw     TIP4P-Ew
    104      34    4  0.524 -1.140042e+01 -1.108400e-02  8.873650e-01  # Hw     TIP4P-Ew
    105      35    3 -1.048 -4.806978e+00  5.400015e+00  1.135481e+01  # Ow     TIP4P-Ew
    106      35    4  0.524 -5.399495e+00  5.439458e+00  1.060408e+01  # Hw     TIP4P-Ew
    107      35    4  0.524 -4.538164e+00  4.482469e+00  1.140043e+01  # Hw     TIP4P-Ew
    108      36    3 -1.048  5.799605e+00  2.782083e+00 -3.295072e+00  # Ow     TIP4P-Ew
    109      36    4  0.524  6.755138e+00  2.815840e+00 -3.249800e+00  # Hw     TIP4P-Ew
    110      36    4  0.524  5.596798e+00  1.851979e+00 -3.395103e+00  # Hw     TIP4P-Ew
    111      37    3 -1.048  2.152050e+00 -7.067585e+00 -5.100045e+00  # Ow     TIP4P-Ew
    112      37    4  0.524  3.002384e+00 -7.095139e+00 -5.538684e+00  # Hw     TIP4P-Ew
    113      37    4  0.524  2.064645e+00 -7.928880e+00 -4.691680e+00  # Hw     TIP4P-Ew
    114      38    3 -1.048  6.193551e+00 -3.916220e-01  6.873249e+00  # Ow     TIP4P-Ew
    115      38    4  0.524  5.978402e+00 -1.078112e+00  7.504656e+00  # Hw     TIP4P-Ew
    116      38    4  0.524  5.359011e+00 -1.803790e-01  6.454740e+00  # Hw     TIP4P-Ew
    117      39    3 -1.048 -3.846830e+00  3.802046e+00  4.086190e+00  # Ow     TIP4P-Ew
    118      39    4  0.524 -3.596696e+00  4.719913e+00  4.191943e+00  # Hw     TIP4P-Ew
    119      39    4  0.524 -3.075183e+00  3.385734e+00  3.702163e+00  # Hw     TIP4P-Ew
    120      40    3 -1.048 -1.942520e-01  1.140820e+01  8.263594e+00  # Ow     TIP4P-Ew
    121      40    4  0.524  1.922740e-01  1.065321e+01  8.707227e+00  # Hw     TIP4P-Ew
    122      40    4  0.524 -9.219500e-01  1.104382e+01  7.759694e+00  # Hw     TIP4P-Ew
    123      41    3 -1.048 -1.137135e+01  1.085539e+01  1.061422e+01  # Ow     TIP4P-Ew
    124      41    4  0.524 -1.137613e+01  1.139664e+01  1.140369e+01  # Hw     TIP4P-Ew
    125      41    4  0.524 -1.095883e+01  1.140570e+01  9.948469e+00  # Hw     TIP4P-Ew
    126      42    3 -1.048 -1.085600e+01  1.087498e+01 -7.497628e+00  # Ow     TIP4P-Ew
    127      42    4  0.524 -1.140000e+01  1.140000e+01 -8.084693e+00  # Hw     TIP4P-Ew
    128      42    4  0.524 -1.139994e+01  1.074188e+01 -6.721326e+00  # Hw     TIP4P-Ew
    129      43    3 -1.048 -2.446841e+00  7.709842e+00  6.772030e-01  # Ow     TIP4P-Ew
    130      43    4  0.524 -2.610839e+00  8.222745e+00 -1.141670e-01  # Hw     TIP4P-Ew
    131      43    4  0.524 -2.706251e+00  8.287075e+00  1.395354e+00  # Hw     TIP4P-Ew
    132      44    3 -1.048  9.706230e-01  7.784460e-01 -1.340543e+00  # Ow     TIP4P-Ew
    133      44    4  0.524  7.670000e-02  6.212600e-01 -1.036529e+00  # Hw     TIP4P-Ew
    134      44    4  0.524  9.527190e-01  1.670304e+00 -1.687674e+00  # Hw     TIP4P-Ew
    135      45    3 -1.048 -2.335701e+00 -1.575026e+00 -1.461198e+00  # Ow     TIP4P-Ew
    136      45    4  0.524 -2.503749e+00 -2.482502e+00 -1.715125e+00  # Hw     TIP4P-Ew
    137      45    4  0.524 -2.174899e+00 -1.615458e+00 -5.184680e-01  # Hw     TIP4P-Ew
    138      46    3 -1.048  8.603875e+00 -8.484732e+00  7.821533e+00  # Ow     TIP4P-Ew
    139      46    4  0.524  8.997401e+00 -8.443158e+00  6.949959e+00  # Hw     TIP4P-Ew
    140      46    4  0.524  8.895660e+00 -9.324305e+00  8.176794e+00  # Hw     TIP4P-Ew
    141      47    3 -1.048  1.140118e+01  1.522060e+00 -3.928950e-01  # Ow     TIP4P-Ew
    142      47    4  0.524  1.064208e+01  2.104719e+00 -4.152930e-01  # Hw     TIP4P-Ew
    143      47    4  0.524  1.102707e+01  6.412980e-01 -3.697940e-01  # Hw     TIP4P-Ew
    144      48    3 -1.048 -1.727335e+00  1.280207e+00 -8.945665e+00  # Ow     TIP4P-Ew
    145      48    4  0.524 -2.621001e+00  1.002856e+00 -8.743999e+00  # Hw     TIP4P-Ew
    146      48    4  0.524 -1.794373e+00  2.225259e+00 -9.082101e+00  # Hw     TIP4P-Ew
    147      49    3 -1.048  1.078122e+01  7.041540e+00 -1.140348e+01  # Ow     TIP4P-Ew
    148      49    4  0.524  9.920621e+00  6.622769e+00 -1.138842e+01  # Hw     TIP4P-Ew
    149      49    4  0.524  1.140203e+01  6.317053e+00 -1.132639e+01  # Hw     TIP4P-Ew
    150      50    3 -1.048  8.078834e+00 -2.224523e+00 -5.118377e+00  # Ow     TIP4P-Ew
    151      50    4  0.524  7.699242e+00 -2.801432e+00 -5.781187e+00  # Hw     TIP4P-Ew
    152      50    4  0.524  8.338905e+00 -2.812340e+00 -4.409106e+00  # Hw     TIP4P-Ew
    153      51    3 -1.048 -1.878895e+00  1.134532e+01  4.098012e+00  # Ow     TIP4P-Ew
    154      51    4  0.524 -1.661919e+00  1.078588e+01  4.843782e+00  # Hw     TIP4P-Ew
    155      51    4  0.524 -1.066240e+00  1.140097e+01  3.595292e+00  # Hw     TIP4P-Ew
    156      52    3 -1.048 -2.913718e+00 -1.008699e+01  3.673745e+00  # Ow     TIP4P-Ew
    157      52    4  0.524 -2.528291e+00 -9.235056e+00  3.878384e+00  # Hw     TIP4P-Ew
    158      52    4  0.524 -3.119543e+00 -1.003926e+01  2.740155e+00  # Hw     TIP4P-Ew
    159      53    3 -1.048  8.435829e+00 -4.699529e+00 -8.496663e+00  # Ow     TIP4P-Ew
    160      53    4  0.524  9.389580e+00 -4.628765e+00 -8.456885e+00  # Hw     TIP4P-Ew
    161      53    4  0.524  8.131323e+00 -3.795738e+00 -8.578336e+00  # Hw     TIP4P-Ew
    162      54    3 -1.048  4.787259e+00 -6.778331e+00  3.575224e+00  # Ow     TIP4P-Ew
    163      54    4  0.524  4.144801e+00 -6.327894e+00  4.123481e+00  # Hw     TIP4P-Ew
    164      54    4  0.524  5.559475e+00 -6.213132e+00  3.596774e+00  # Hw     TIP4P-Ew
    165      55    3 -1.048  9.675881e+00  8.026072e+00 -2.368855e+00  # Ow     TIP4P-Ew
    166      55    4  0.524  9.011791e+00  8.089548e+00 -1.682424e+00  # Hw     TIP4P-Ew
    167      55    4  0.524  1.016068e+01  8.849364e+00 -2.310620e+00  # Hw     TIP4P-Ew
    168      56    3 -1.048 -3.599449e+00  1.018791e+01  8.807709e+00  # Ow     TIP4P-Ew
    169      56    4  0.524 -4.167204e+00  9.501869e+00  8.456663e+00  # Hw     TIP4P-Ew
    170      56    4  0.524 -4.108558e+00  1.099286e+01  8.712374e+00  # Hw     TIP4P-Ew
    171      57    3 -1.048 -1.105025e+01 -5.633051e+00 -2.546182e+00  # Ow     TIP4P-Ew
    172      57    4  0.524 -1.139997e+01 -4.792595e+00 -2.250275e+00  # Hw     TIP4P-Ew
    173      57    4  0.524 -1.140001e+01 -6.270937e+00 -1.924083e+00  # Hw     TIP4P-Ew
    174      58    3 -1.048 -5.019125e+00 -1.140046e+01  5.631912e+00  # Ow     TIP4P-Ew
    175      58    4  0.524 -5.745879e+00 -1.135870e+01  6.253456e+00  # Hw     TIP4P-Ew
    176      58    4  0.524 -5.430393e+00 -1.129327e+01  4.774239e+00  # Hw     TIP4P-Ew
    177      59    3 -1.048  8.576444e+00  3.884860e+00 -9.050338e+00  # Ow     TIP4P-Ew
    178      59    4  0.524  8.602503e+00  2.950269e+00 -9.255499e+00  # Hw     TIP4P-Ew
    179      59    4  0.524  8.714526e+00  4.319271e+00 -9.892034e+00  # Hw     TIP4P-Ew
    180      60    3 -1.048  1.200239e+00  7.262760e-01 -1.131821e+01  # Ow     TIP4P-Ew
    181      60    4  0.524  4.583120e-01  1.330579e+00 -1.129383e+01  # Hw     TIP4P-Ew
    182      60    4  0.524  1.967993e+00  1.292045e+00 -1.140000e+01  # Hw     TIP4P-Ew
    183      61    3 -1.048 -2.082578e+00  1.059198e+01  1.140058e+01  # Ow     TIP4P-Ew
    184      61    4  0.524 -1.379395e+00  9.983635e+00  1.117325e+01  # Hw     TIP4P-Ew
    185      61    4  0.524 -1.859484e+00  1.140009e+01  1.093860e+01  # Hw     TIP4P-Ew
    186      62    3 -1.048  4.724755e+00  1.098631e+01  8.277398e+00  # Ow     TIP4P-Ew
    187      62    4  0.524  5.207780e+00  1.092896e+01  7.453001e+00  # Hw     TIP4P-Ew
    188      62    4  0.524  4.277767e+00  1.014325e+01  8.352798e+00  # Hw     TIP4P-Ew
    189      63    3 -1.048  6.718199e+00 -2.184577e+00  1.091096e+01  # Ow     TIP4P-Ew
    190      63    4  0.524  6.305159e+00 -1.472501e+00  1.139941e+01  # Hw     TIP4P-Ew
    191      63    4  0.524  7.517786e+00 -2.378829e+00  1.140000e+01  # Hw     TIP4P-Ew
    192      64    3 -1.048  9.767831e+00 -2.704396e+00  1.875740e-01  # Ow     TIP4P-Ew
    193      64    4  0.524  9.238105e+00 -2.299824e+00 -4.994080e-01  # Hw     TIP4P-Ew
    194      64    4  0.524  1.062848e+01 -2.294814e+00  9.952300e-02  # Hw     TIP4P-Ew
    195      65    3 -1.048  3.390023e+00  4.939826e+00 -3.474587e+00  # Ow     TIP4P-Ew
    196      65    4  0.524  2.733188e+00  5.625271e+00 -3.596916e+00  # Hw     TIP4P-Ew
    197      65    4  0.524  2.950601e+00  4.279166e+00 -2.939171e+00  # Hw     TIP4P-Ew
    198      66    3 -1.048 -7.787170e-01  5.371997e+00  6.060812e+00  # Ow     TIP4P-Ew
    199      66    4  0.524  1.778630e-01  5.372141e+00  6.095257e+00  # Hw     TIP4P-Ew
    200      66    4  0.524 -1.046847e+00  4.885100e+00  6.840087e+00  # Hw     TIP4P-Ew
    201      67    3 -1.048 -7.917479e+00 -6.902443e+00 -1.163301e+00  # Ow     TIP4P-Ew
    202      67    4  0.524 -8.281228e+00 -6.075701e+00 -1.480189e+00  # Hw     TIP4P-Ew
    203      67    4  0.524 -8.540457e+00 -7.567066e+00 -1.457252e+00  # Hw     TIP4P-Ew
    204      68    3 -1.048  6.898139e+00  6.697508e+00 -1.112290e+01  # Ow     TIP4P-Ew
    205      68    4  0.524  7.094420e+00  7.622250e+00 -1.127309e+01  # Hw     TIP4P-Ew
    206      68    4  0.524  5.987526e+00  6.597318e+00 -1.140035e+01  # Hw     TIP4P-Ew
    207      69    3 -1.048 -8.792072e+00 -7.281357e+00  8.561963e+00  # Ow     TIP4P-Ew
    208      69    4  0.524 -8.407647e+00 -7.038933e+00  7.719538e+00  # Hw     TIP4P-Ew
    209      69    4  0.524 -8.695370e+00 -6.498420e+00  9.104079e+00  # Hw     TIP4P-Ew
    210      70    3 -1.048  9.194716e+00  5.825750e-01  2.561522e+00  # Ow     TIP4P-Ew
    211      70    4  0.524  9.907816e+00 -1.446300e-02  2.335103e+00  # Hw     TIP4P-Ew
    212      70    4  0.524  8.895030e+00  9.282500e-01  1.720731e+00  # Hw     TIP4P-Ew
    213      71    3 -1.048  3.799145e+00  3.885820e+00  5.429369e+00  # Ow     TIP4P-Ew
    214      71    4  0.524  3.178495e+00  4.591567e+00  5.247858e+00  # Hw     TIP4P-Ew
    215      71    4  0.524  3.285288e+00  3.229427e+00  5.899827e+00  # Hw     TIP4P-Ew
    216      72    3 -1.048  1.455339e+00  4.994762e+00  1.140085e+01  # Ow     TIP4P-Ew
    217      72    4  0.524  8.211090e-01  5.691271e+00  1.123097e+01  # Hw     TIP4P-Ew
    218      72    4  0.524  2.305678e+00  5.433655e+00  1.137788e+01  # Hw     TIP4P-Ew
    219      73    3 -1.048  6.174922e+00 -3.949727e+00 -2.551565e+00  # Ow     TIP4P-Ew
    220      73    4  0.524  6.189066e+00 -4.650265e+00 -3.203699e+00  # Hw     TIP4P-Ew
    221      73    4  0.524  5.866883e+00 -4.373687e+00 -1.750565e+00  # Hw     TIP4P-Ew
    222      74    3 -1.048 -6.953218e+00  6.573249e+00  3.374514e+00  # Ow     TIP4P-Ew
    223      74    4  0.524 -6.259687e+00  6.041072e+00  2.984596e+00  # Hw     TIP4P-Ew
    224      74    4  0.524 -7.514752e+00  6.813186e+00  2.637397e+00  # Hw     TIP4P-Ew
    225      75    3 -1.048  4.730141e+00 -1.081604e+01 -1.389503e+00  # Ow     TIP4P-Ew
    226      75    4  0.524  3.974467e+00 -1.140139e+01 -1.439991e+00  # Hw     TIP4P-Ew
    227      75    4  0.524  5.487591e+00 -1.140127e+01 -1.391507e+00  # Hw     TIP4P-Ew
    228      76    3 -1.048  4.571741e+00 -3.865489e+00  1.320914e+00  # Ow     TIP4P-Ew
    229      76    4  0.524  4.259335e+00 -3.223207e+00  6.836480e-01  # Hw     TIP4P-Ew
    230      76    4  0.524  4.141680e+00 -3.619668e+00  2.139969e+00  # Hw     TIP4P-Ew
    231      77    3 -1.048 -4.542073e+00  1.118611e+01  5.621054e+00  # Ow     TIP4P-Ew
    232      77    4  0.524 -5.472623e+00  1.140692e+01  5.581703e+00  # Hw     TIP4P-Ew
    233      77    4  0.524 -4.519697e+00  1.023064e+01  5.567972e+00  # Hw     TIP4P-Ew
    234      78    3 -1.048  1.191394e+00 -3.164767e+00 -4.908880e-01  # Ow     TIP4P-Ew
    235      78    4  0.524  3.837270e-01 -3.656601e+00 -6.392270e-01  # Hw     TIP4P-Ew
    236      78    4  0.524  9.324930e-01 -2.446776e+00  8.677100e-02  # Hw     TIP4P-Ew
    237      79    3 -1.048  1.140000e+01  3.434078e+00 -8.142534e+00  # Ow     TIP4P-Ew
    238      79    4  0.524  1.128711e+01  2.495518e+00 -7.992230e+00  # Hw     TIP4P-Ew
    239      79    4  0.524  1.123170e+01  3.835593e+00 -7.290073e+00  # Hw     TIP4P-Ew
    240      80    3 -1.048 -1.140061e+01  7.063028e+00  6.406410e-01  # Ow     TIP4P-Ew
    241      80    4  0.524 -1.123782e+01  7.784200e+00  3.265800e-02  # Hw     TIP4P-Ew
    242      80    4  0.524 -1.102759e+01  7.360021e+00  1.470633e+00  # Hw     TIP4P-Ew
    243      81    3 -1.048  1.629057e+00  1.139359e+01  5.775870e+00  # Ow     TIP4P-Ew
    244      81    4  0.524  2.440486e+00  1.129277e+01  6.273515e+00  # Hw     TIP4P-Ew
    245      81    4  0.524  1.248381e+00  1.051554e+01  5.757080e+00  # Hw     TIP4P-Ew
    246      82    3 -1.048 -9.983541e+00  3.330080e-01  1.139892e+01  # Ow     TIP4P-Ew
    247      82    4  0.524 -9.455279e+00 -4.652210e-01  1.140040e+01  # Hw     TIP4P-Ew
    248      82    4  0.524 -1.088872e+01  2.174800e-02  1.139816e+01  # Hw     TIP4P-Ew
    249      83    3 -1.048 -4.547212e+00  1.115882e+01 -6.448839e+00  # Ow     TIP4P-Ew
    250      83    4  0.524 -3.824913e+00  1.055940e+01 -6.636489e+00  # Hw     TIP4P-Ew
    251      83    4  0.524 -4.888796e+00  1.140000e+01 -7.309878e+00  # Hw     TIP4P-Ew
    252      84    3 -1.048  6.540387e+00 -8.314850e+00 -5.173693e+00  # Ow     TIP4P-Ew
    253      84    4  0.524  6.231620e+00 -7.908707e+00 -4.363790e+00  # Hw     TIP4P-Ew
    254      84    4  0.524  5.752939e+00 -8.686651e+00 -5.571085e+00  # Hw     TIP4P-Ew
    255      85    3 -1.048  7.462810e+00 -2.084145e+00  2.198869e+00  # Ow     TIP4P-Ew
    256      85    4  0.524  7.002435e+00 -1.605931e+00  1.509233e+00  # Hw     TIP4P-Ew
    257      85    4  0.524  7.101150e+00 -1.736839e+00  3.014229e+00  # Hw     TIP4P-Ew
    258      86    3 -1.048 -1.065531e+01  1.049614e+01  5.842343e+00  # Ow     TIP4P-Ew
    259      86    4  0.524 -1.141783e+01  1.003072e+01  5.498564e+00  # Hw     TIP4P-Ew
    260      86    4  0.524 -1.093015e+01  1.141226e+01  5.879862e+00  # Hw     TIP4P-Ew
    261      87    3 -1.048 -7.580867e+00  1.118892e+01 -9.080083e+00  # Ow     TIP4P-Ew
    262      87    4  0.524 -7.722940e+00  1.072047e+01 -8.257525e+00  # Hw     TIP4P-Ew
    263      87    4  0.524 -8.461146e+00  1.140000e+01 -9.391185e+00  # Hw     TIP4P-Ew
    264      88    3 -1.048  7.932663e+00  1.088239e+01 -1.494622e+00  # Ow     TIP4P-Ew
    265      88    4  0.524  8.720381e+00  1.139979e+01 -1.662058e+00  # Hw     TIP4P-Ew
    266      88    4  0.524  7.221028e+00  1.139991e+01 -1.871424e+00  # Hw     TIP4P-Ew
    267      89    3 -1.048 -2.659859e+00 -7.659373e+00  8.048426e+00  # Ow     TIP4P-Ew
    268      89    4  0.524 -2.746262e+00 -7.270793e+00  8.918927e+00  # Hw     TIP4P-Ew
    269      89    4  0.524 -1.722928e+00 -7.614785e+00  7.857630e+00  # Hw     TIP4P-Ew
    270      90    3 -1.048 -2.753600e-01 -1.140000e+01 -5.254637e+00  # Ow     TIP4P-Ew
    271      90    4  0.524  6.598720e-01 -1.126569e+01 -5.408034e+00  # Hw     TIP4P-Ew
    272      90    4  0.524 -6.748810e-01 -1.131735e+01 -6.120537e+00  # Hw     TIP4P-Ew
    273      91    3 -1.048 -4.163696e+00  5.439843e+00 -7.861290e-01  # Ow     TIP4P-Ew
    274      91    4  0.524 -4.557239e+00  4.583252e+00 -6.199740e-01  # Hw     TIP4P-Ew
    275      91    4  0.524 -3.360894e+00  5.245370e+00 -1.269783e+00  # Hw     TIP4P-Ew
    276      92    3 -1.048 -1.544956e+00 -8.091145e+00  6.067980e-01  # Ow     TIP4P-Ew
    277      92    4  0.524 -8.995090e-01 -7.542560e+00  1.052537e+00  # Hw     TIP4P-Ew
    278      92    4  0.524 -1.069904e+00 -8.893712e+00  3.912900e-01  # Hw     TIP4P-Ew
    279      93    3 -1.048 -1.140232e+01 -8.359516e+00  6.397781e+00  # Ow     TIP4P-Ew
    280      93    4  0.524 -1.049828e+01 -8.452106e+00  6.097162e+00  # Hw     TIP4P-Ew
    281      93    4  0.524 -1.133475e+01 -8.315531e+00  7.351579e+00  # Hw     TIP4P-Ew
    282      94    3 -1.048  4.234547e+00  1.139686e+01  3.465618e+00  # Ow     TIP4P-Ew
    283      94    4  0.524  5.009468e+00  1.083496e+01  3.465867e+00  # Hw     TIP4P-Ew
    284      94    4  0.524  3.512072e+00  1.080921e+01  3.244425e+00  # Hw     TIP4P-Ew
    285      95    3 -1.048 -1.274440e-01 -1.140014e+01 -1.080711e+01  # Ow     TIP4P-Ew
    286      95    4  0.524 -6.747490e-01 -1.134242e+01 -1.002394e+01  # Hw     TIP4P-Ew
    287      95    4  0.524  7.699030e-01 -1.138955e+01 -1.047411e+01  # Hw     TIP4P-Ew
    288      96    3 -1.048  1.054172e+01  1.132814e+01 -7.879490e+00  # Ow     TIP4P-Ew
    289      96    4  0.524  1.057333e+01  1.049866e+01 -7.402842e+00  # Hw     TIP4P-Ew
    290      96    4  0.524  1.140243e+01  1.140086e+01 -8.291950e+00  # Hw     TIP4P-Ew
    291      97    3 -1.048 -1.080986e+01  4.380122e+00  7.110869e+00  # Ow     TIP4P-Ew
    292      97    4  0.524 -1.140575e+01  5.129186e+00  7.117987e+00  # Hw     TIP4P-Ew
    293      97    4  0.524 -9.941831e+00  4.765128e+00  6.990368e+00  # Hw     TIP4P-Ew
    294      98    3 -1.048 -1.821764e+00 -4.671763e+00  2.163630e+00  # Ow     TIP4P-Ew
    295      98    4  0.524 -2.118469e+00 -4.596045e+00  1.256732e+00  # Hw     TIP4P-Ew
    296      98    4  0.524 -1.345649e+00 -3.858028e+00  2.329100e+00  # Hw     TIP4P-Ew
    297      99    3 -1.048  8.404298e+00 -1.140052e+01  5.069061e+00  # Ow     TIP4P-Ew
    298      99    4  0.524  8.044535e+00 -1.108590e+01  5.898409e+00  # Hw     TIP4P-Ew
    299      99    4  0.524  7.719388e+00 -1.121806e+01  4.425756e+00  # Hw     TIP4P-Ew
    300     100    3 -1.048  8.594516e+00  2.436712e+00  5.140506e+00  # Ow     TIP4P-Ew
    301     100    4  0.524  8.228147e+00  3.270693e+00  4.846429e+00  # Hw     TIP4P-Ew
    302     100    4  0.524  8.767563e+00  2.566101e+00  6.073000e+00  # Hw     TIP4P-Ew
    303     101    3 -1.048  5.208696e+00  1.051560e+01  1.702060e-01  # Ow     TIP4P-Ew
    304     101    4  0.524  4.440575e+00  9.944638e+00  1.552090e-01  # Hw     TIP4P-Ew
    305     101    4  0.524  4.848865e+00  1.140036e+01  2.330230e-01  # Hw     TIP4P-Ew
    306     102    3 -1.048  7.940049e+00  7.139620e-01 -1.136488e+01  # Ow     TIP4P-Ew
    307     102    4  0.524  8.778050e+00  2.527100e-01 -1.140000e+01  # Hw     TIP4P-Ew
    308     102    4  0.524  7.282958e+00  1.793600e-02 -1.136158e+01  # Hw     TIP4P-Ew
    309     103    3 -1.048 -1.411227e+00 -8.715330e+00 -4.546220e+00  # Ow     TIP4P-Ew
    310     103    4  0.524 -1.211375e+00 -7.868098e+00 -4.944327e+00  # Hw     TIP4P-Ew
    311     103    4  0.524 -2.264245e+00 -8.589888e+00 -4.130461e+00  # Hw     TIP4P-Ew
    312     104    3 -1.048 -1.140862e+01  1.111294e+01  2.520864e+00  # Ow     TIP4P-Ew
    313     104    4  0.524 -1.135299e+01  1.015755e+01  2.502138e+00  # Hw     TIP4P-Ew
    314     104    4  0.524 -1.049831e+01  1.140703e+01  2.488173e+00  # Hw     TIP4P-Ew
    315     105    3 -1.048 -4.140363e+00  1.140735e+01 -2.072611e+00  # Ow     TIP4P-Ew
    316     105    4  0.524 -4.654679e+00  1.138574e+01 -2.879608e+00  # Hw     TIP4P-Ew
    317     105    4  0.524 -4.372155e+00  1.059721e+01 -1.618541e+00  # Hw     TIP4P-Ew
    318     106    3 -1.048 -6.590890e-01  1.116308e+01 -6.926465e+00  # Ow     TIP4P-Ew
    319     106    4  0.524 -9.851320e-01  1.140005e+01 -7.794666e+00  # Hw     TIP4P-Ew
    320     106    4  0.524  2.692240e-01  1.139555e+01 -6.947042e+00  # Hw     TIP4P-Ew
    321     107    3 -1.048  1.084213e+01  2.543518e+00 -1.139997e+01  # Ow     TIP4P-Ew
    322     107    4  0.524  1.140002e+01  3.317326e+00 -1.132118e+01  # Hw     TIP4P-Ew
    323     107    4  0.524  1.139634e+01  1.817843e+00 -1.111278e+01  # Hw     TIP4P-Ew
    324     108    3 -1.048 -1.012496e+00  1.081993e+01 -3.772042e+00  # Ow     TIP4P-Ew
    325     108    4  0.524 -3.146410e-01  1.139761e+01 -3.462986e+00  # Hw     TIP4P-Ew
    326     108    4  0.524 -1.763469e+00  1.139904e+01 -3.902066e+00  # Hw     TIP4P-Ew
    327     109    3 -1.048 -5.623806e+00 -8.225673e+00 -9.216866e+00  # Ow     TIP4P-Ew
    328     109    4  0.524 -5.809678e+00 -7.327279e+00 -8.943788e+00  # Hw     TIP4P-Ew
    329     109    4  0.524 -5.913776e+00 -8.764993e+00 -8.481147e+00  # Hw     TIP4P-Ew
    330     110    3 -1.048  2.331842e+00  6.570500e-02  8.337401e+00  # Ow     TIP4P-Ew
    331     110    4  0.524  2.468159e+00  9.903010e-01  8.130586e+00  # Hw     TIP4P-Ew
    332     110    4  0.524  3.197364e+00 -2.531270e-01  8.593232e+00  # Hw     TIP4P-Ew