Generated by RARs stupid code

6000 atoms
5980 bonds
0 angles
0 dihedrals
0 impropers

2 atom types
1 bond types
0 angle types
0 dihedral types
0 improper types

-5.000000   5.000000 xlo xhi
-5.000000   5.000000 ylo yhi
-5.000000   5.000000 zlo zhi

Masses

1  1.000000
2 1.000000
Atoms

1 1 1     -5.000000  -5.000000  -5.000000
2 1 1     -4.000000  -5.000000  -5.000000
3 1 1     -3.000000  -5.000000  -5.000000
4 1 1     -2.000000  -5.000000  -5.000000
5 1 1     -1.000000  -5.000000  -5.000000
6 1 1     0.000000  -5.000000  -5.000000
7 1 1     1.000000  -5.000000  -5.000000
8 1 1     2.000000  -5.000000  -5.000000
9 1 1     3.000000  -5.000000  -5.000000
10 1 1     4.000000  -5.000000  -5.000000
11 1 1     4.000000  -4.000000  -5.000000
12 1 1     3.000000  -4.000000  -5.000000
13 1 1     2.000000  -4.000000  -5.000000
14 1 1     1.000000  -4.000000  -5.000000
15 1 1     0.000000  -4.000000  -5.000000
16 1 1     -1.000000  -4.000000  -5.000000
17 1 1     -2.000000  -4.000000  -5.000000
18 1 1     -3.000000  -4.000000  -5.000000
19 1 1     -4.000000  -4.000000  -5.000000
20 1 1     -4.000000  -3.000000  -5.000000
21 1 1     -3.000000  -3.000000  -5.000000
22 1 1     -2.000000  -3.000000  -5.000000
23 1 1     -1.000000  -3.000000  -5.000000
24 1 1     0.000000  -3.000000  -5.000000
25 1 1     1.000000  -3.000000  -5.000000
26 1 1     2.000000  -3.000000  -5.000000
27 1 1     3.000000  -3.000000  -5.000000
28 1 1     4.000000  -3.000000  -5.000000
29 1 1     4.000000  -2.000000  -5.000000
30 1 1     3.000000  -2.000000  -5.000000
31 1 1     2.000000  -2.000000  -5.000000
32 1 1     1.000000  -2.000000  -5.000000
33 1 1     0.000000  -2.000000  -5.000000
34 1 1     -1.000000  -2.000000  -5.000000
35 1 1     -2.000000  -2.000000  -5.000000
36 1 1     -3.000000  -2.000000  -5.000000
37 1 1     -4.000000  -2.000000  -5.000000
38 1 1     -4.000000  -1.000000  -5.000000
39 1 1     -3.000000  -1.000000  -5.000000
40 1 1     -2.000000  -1.000000  -5.000000
41 1 1     -1.000000  -1.000000  -5.000000
42 1 1     0.000000  -1.000000  -5.000000
43 1 1     1.000000  -1.000000  -5.000000
44 1 1     2.000000  -1.000000  -5.000000
45 1 1     3.000000  -1.000000  -5.000000
46 1 1     4.000000  -1.000000  -5.000000
47 1 1     4.000000  0.000000  -5.000000
48 1 1     3.000000  0.000000  -5.000000
49 1 1     2.000000  0.000000  -5.000000
50 1 1     1.000000  0.000000  -5.000000
51 1 1     0.000000  0.000000  -5.000000
52 1 1     -1.000000  0.000000  -5.000000
53 1 1     -2.000000  0.000000  -5.000000
54 1 1     -3.000000  0.000000  -5.000000
55 1 1     -4.000000  0.000000  -5.000000
56 1 1     -4.000000  1.000000  -5.000000
57 1 1     -3.000000  1.000000  -5.000000
58 1 1     -2.000000  1.000000  -5.000000
59 1 1     -1.000000  1.000000  -5.000000
60 1 1     0.000000  1.000000  -5.000000
61 1 1     1.000000  1.000000  -5.000000
62 1 1     2.000000  1.000000  -5.000000
63 1 1     3.000000  1.000000  -5.000000
64 1 1     4.000000  1.000000  -5.000000
65 1 1     4.000000  2.000000  -5.000000
66 1 1     3.000000  2.000000  -5.000000
67 1 1     2.000000  2.000000  -5.000000
68 1 1     1.000000  2.000000  -5.000000
69 1 1     0.000000  2.000000  -5.000000
70 1 1     -1.000000  2.000000  -5.000000
71 1 1     -2.000000  2.000000  -5.000000
72 1 1     -3.000000  2.000000  -5.000000
73 1 1     -4.000000  2.000000  -5.000000
74 1 1     -4.000000  3.000000  -5.000000
75 1 1     -3.000000  3.000000  -5.000000
76 1 1     -2.000000  3.000000  -5.000000
77 1 1     -1.000000  3.000000  -5.000000
78 1 1     0.000000  3.000000  -5.000000
79 1 1     1.000000  3.000000  -5.000000
80 1 1     2.000000  3.000000  -5.000000
81 1 1     3.000000  3.000000  -5.000000
82 1 1     4.000000  3.000000  -5.000000
83 1 1     4.000000  4.000000  -5.000000
84 1 1     3.000000  4.000000  -5.000000
85 1 1     2.000000  4.000000  -5.000000
86 1 1     1.000000  4.000000  -5.000000
87 1 1     0.000000  4.000000  -5.000000
88 1 1     -1.000000  4.000000  -5.000000
89 1 1     -2.000000  4.000000  -5.000000
90 1 1     -3.000000  4.000000  -5.000000
91 1 1     -4.000000  4.000000  -5.000000
92 1 1     -4.000000  4.000000  -4.000000
93 1 1     -3.000000  4.000000  -4.000000
94 1 1     -2.000000  4.000000  -4.000000
95 1 1     -1.000000  4.000000  -4.000000
96 1 1     0.000000  4.000000  -4.000000
97 1 1     1.000000  4.000000  -4.000000
98 1 1     2.000000  4.000000  -4.000000
99 1 1     3.000000  4.000000  -4.000000
100 1 1     4.000000  4.000000  -4.000000
101 1 1     4.000000  3.000000  -4.000000
102 1 1     3.000000  3.000000  -4.000000
103 1 1     2.000000  3.000000  -4.000000
104 1 1     1.000000  3.000000  -4.000000
105 1 1     0.000000  3.000000  -4.000000
106 1 1     -1.000000  3.000000  -4.000000
107 1 1     -2.000000  3.000000  -4.000000
108 1 1     -3.000000  3.000000  -4.000000
109 1 1     -4.000000  3.000000  -4.000000
110 1 1     -4.000000  2.000000  -4.000000
111 1 1     -3.000000  2.000000  -4.000000
112 1 1     -2.000000  2.000000  -4.000000
113 1 1     -1.000000  2.000000  -4.000000
114 1 1     0.000000  2.000000  -4.000000
115 1 1     1.000000  2.000000  -4.000000
116 1 1     2.000000  2.000000  -4.000000
117 1 1     3.000000  2.000000  -4.000000
118 1 1     4.000000  2.000000  -4.000000
119 1 1     4.000000  1.000000  -4.000000
120 1 1     3.000000  1.000000  -4.000000
121 1 1     2.000000  1.000000  -4.000000
122 1 1     1.000000  1.000000  -4.000000
123 1 1     0.000000  1.000000  -4.000000
124 1 1     -1.000000  1.000000  -4.000000
125 1 1     -2.000000  1.000000  -4.000000
126 1 1     -3.000000  1.000000  -4.000000
127 1 1     -4.000000  1.000000  -4.000000
128 1 1     -4.000000  0.000000  -4.000000
129 1 1     -3.000000  0.000000  -4.000000
130 1 1     -2.000000  0.000000  -4.000000
131 1 1     -1.000000  0.000000  -4.000000
132 1 1     0.000000  0.000000  -4.000000
133 1 1     1.000000  0.000000  -4.000000
134 1 1     2.000000  0.000000  -4.000000
135 1 1     3.000000  0.000000  -4.000000
136 1 1     4.000000  0.000000  -4.000000
137 1 1     4.000000  -1.000000  -4.000000
138 1 1     3.000000  -1.000000  -4.000000
139 1 1     2.000000  -1.000000  -4.000000
140 1 1     1.000000  -1.000000  -4.000000
141 1 1     0.000000  -1.000000  -4.000000
142 1 1     -1.000000  -1.000000  -4.000000
143 1 1     -2.000000  -1.000000  -4.000000
144 1 1     -3.000000  -1.000000  -4.000000
145 1 1     -4.000000  -1.000000  -4.000000
146 1 1     -4.000000  -2.000000  -4.000000
147 1 1     -3.000000  -2.000000  -4.000000
148 1 1     -2.000000  -2.000000  -4.000000
149 1 1     -1.000000  -2.000000  -4.000000
150 1 1     0.000000  -2.000000  -4.000000
151 1 2     1.000000  -2.000000  -4.000000
152 1 2     2.000000  -2.000000  -4.000000
153 1 2     3.000000  -2.000000  -4.000000
154 1 2     4.000000  -2.000000  -4.000000
155 1 2     4.000000  -3.000000  -4.000000
156 1 2     3.000000  -3.000000  -4.000000
157 1 2     2.000000  -3.000000  -4.000000
158 1 2     1.000000  -3.000000  -4.000000
159 1 2     0.000000  -3.000000  -4.000000
160 1 2     -1.000000  -3.000000  -4.000000
161 1 2     -2.000000  -3.000000  -4.000000
162 1 2     -3.000000  -3.000000  -4.000000
163 1 2     -4.000000  -3.000000  -4.000000
164 1 2     -4.000000  -4.000000  -4.000000
165 1 2     -3.000000  -4.000000  -4.000000
166 1 2     -2.000000  -4.000000  -4.000000
167 1 2     -1.000000  -4.000000  -4.000000
168 1 2     0.000000  -4.000000  -4.000000
169 1 2     1.000000  -4.000000  -4.000000
170 1 2     2.000000  -4.000000  -4.000000
171 1 2     3.000000  -4.000000  -4.000000
172 1 2     4.000000  -4.000000  -4.000000
173 1 2     4.000000  -4.000000  -3.000000
174 1 2     3.000000  -4.000000  -3.000000
175 1 2     2.000000  -4.000000  -3.000000
176 1 2     1.000000  -4.000000  -3.000000
177 1 2     0.000000  -4.000000  -3.000000
178 1 2     -1.000000  -4.000000  -3.000000
179 1 2     -2.000000  -4.000000  -3.000000
180 1 2     -3.000000  -4.000000  -3.000000
181 1 2     -4.000000  -4.000000  -3.000000
182 1 2     -4.000000  -3.000000  -3.000000
183 1 2     -3.000000  -3.000000  -3.000000
184 1 2     -2.000000  -3.000000  -3.000000
185 1 2     -1.000000  -3.000000  -3.000000
186 1 2     0.000000  -3.000000  -3.000000
187 1 2     1.000000  -3.000000  -3.000000
188 1 2     2.000000  -3.000000  -3.000000
189 1 2     3.000000  -3.000000  -3.000000
190 1 2     4.000000  -3.000000  -3.000000
191 1 2     4.000000  -2.000000  -3.000000
192 1 2     3.000000  -2.000000  -3.000000
193 1 2     2.000000  -2.000000  -3.000000
194 1 2     1.000000  -2.000000  -3.000000
195 1 2     0.000000  -2.000000  -3.000000
196 1 2     -1.000000  -2.000000  -3.000000
197 1 2     -2.000000  -2.000000  -3.000000
198 1 2     -3.000000  -2.000000  -3.000000
199 1 2     -4.000000  -2.000000  -3.000000
200 1 2     -4.000000  -1.000000  -3.000000
201 1 2     -3.000000  -1.000000  -3.000000
202 1 2     -2.000000  -1.000000  -3.000000
203 1 2     -1.000000  -1.000000  -3.000000
204 1 2     0.000000  -1.000000  -3.000000
205 1 2     1.000000  -1.000000  -3.000000
206 1 2     2.000000  -1.000000  -3.000000
207 1 2     3.000000  -1.000000  -3.000000
208 1 2     4.000000  -1.000000  -3.000000
209 1 2     4.000000  0.000000  -3.000000
210 1 2     3.000000  0.000000  -3.000000
211 1 2     2.000000  0.000000  -3.000000
212 1 2     1.000000  0.000000  -3.000000
213 1 2     0.000000  0.000000  -3.000000
214 1 2     -1.000000  0.000000  -3.000000
215 1 2     -2.000000  0.000000  -3.000000
216 1 2     -3.000000  0.000000  -3.000000
217 1 2     -4.000000  0.000000  -3.000000
218 1 2     -4.000000  1.000000  -3.000000
219 1 2     -3.000000  1.000000  -3.000000
220 1 2     -2.000000  1.000000  -3.000000
221 1 2     -1.000000  1.000000  -3.000000
222 1 2     0.000000  1.000000  -3.000000
223 1 2     1.000000  1.000000  -3.000000
224 1 2     2.000000  1.000000  -3.000000
225 1 2     3.000000  1.000000  -3.000000
226 1 2     4.000000  1.000000  -3.000000
227 1 2     4.000000  2.000000  -3.000000
228 1 2     3.000000  2.000000  -3.000000
229 1 2     2.000000  2.000000  -3.000000
230 1 2     1.000000  2.000000  -3.000000
231 1 2     0.000000  2.000000  -3.000000
232 1 2     -1.000000  2.000000  -3.000000
233 1 2     -2.000000  2.000000  -3.000000
234 1 2     -3.000000  2.000000  -3.000000
235 1 2     -4.000000  2.000000  -3.000000
236 1 2     -4.000000  3.000000  -3.000000
237 1 2     -3.000000  3.000000  -3.000000
238 1 2     -2.000000  3.000000  -3.000000
239 1 2     -1.000000  3.000000  -3.000000
240 1 2     0.000000  3.000000  -3.000000
241 1 2     1.000000  3.000000  -3.000000
242 1 2     2.000000  3.000000  -3.000000
243 1 2     3.000000  3.000000  -3.000000
244 1 2     4.000000  3.000000  -3.000000
245 1 2     4.000000  4.000000  -3.000000
246 1 2     3.000000  4.000000  -3.000000
247 1 2     2.000000  4.000000  -3.000000
248 1 2     1.000000  4.000000  -3.000000
249 1 2     0.000000  4.000000  -3.000000
250 1 2     -1.000000  4.000000  -3.000000
251 1 2     -2.000000  4.000000  -3.000000
252 1 2     -3.000000  4.000000  -3.000000
253 1 2     -4.000000  4.000000  -3.000000
254 1 2     -4.000000  4.000000  -2.000000
255 1 2     -3.000000  4.000000  -2.000000
256 1 2     -2.000000  4.000000  -2.000000
257 1 2     -1.000000  4.000000  -2.000000
258 1 2     0.000000  4.000000  -2.000000
259 1 2     1.000000  4.000000  -2.000000
260 1 2     2.000000  4.000000  -2.000000
261 1 2     3.000000  4.000000  -2.000000
262 1 2     4.000000  4.000000  -2.000000
263 1 2     4.000000  3.000000  -2.000000
264 1 2     3.000000  3.000000  -2.000000
265 1 2     2.000000  3.000000  -2.000000
266 1 2     1.000000  3.000000  -2.000000
267 1 2     0.000000  3.000000  -2.000000
268 1 2     -1.000000  3.000000  -2.000000
269 1 2     -2.000000  3.000000  -2.000000
270 1 2     -3.000000  3.000000  -2.000000
271 1 2     -4.000000  3.000000  -2.000000
272 1 2     -4.000000  2.000000  -2.000000
273 1 2     -3.000000  2.000000  -2.000000
274 1 2     -2.000000  2.000000  -2.000000
275 1 2     -1.000000  2.000000  -2.000000
276 1 2     0.000000  2.000000  -2.000000
277 1 2     1.000000  2.000000  -2.000000
278 1 2     2.000000  2.000000  -2.000000
279 1 2     3.000000  2.000000  -2.000000
280 1 2     4.000000  2.000000  -2.000000
281 1 2     4.000000  1.000000  -2.000000
282 1 2     3.000000  1.000000  -2.000000
283 1 2     2.000000  1.000000  -2.000000
284 1 2     1.000000  1.000000  -2.000000
285 1 2     0.000000  1.000000  -2.000000
286 1 2     -1.000000  1.000000  -2.000000
287 1 2     -2.000000  1.000000  -2.000000
288 1 2     -3.000000  1.000000  -2.000000
289 1 2     -4.000000  1.000000  -2.000000
290 1 2     -4.000000  0.000000  -2.000000
291 1 2     -3.000000  0.000000  -2.000000
292 1 2     -2.000000  0.000000  -2.000000
293 1 2     -1.000000  0.000000  -2.000000
294 1 2     0.000000  0.000000  -2.000000
295 1 2     1.000000  0.000000  -2.000000
296 1 2     2.000000  0.000000  -2.000000
297 1 2     3.000000  0.000000  -2.000000
298 1 2     4.000000  0.000000  -2.000000
299 1 2     4.000000  -1.000000  -2.000000
300 1 2     3.000000  -1.000000  -2.000000
301 2 1     2.000000  -1.000000  -2.000000
302 2 1     1.000000  -1.000000  -2.000000
303 2 1     0.000000  -1.000000  -2.000000
304 2 1     -1.000000  -1.000000  -2.000000
305 2 1     -2.000000  -1.000000  -2.000000
306 2 1     -3.000000  -1.000000  -2.000000
307 2 1     -4.000000  -1.000000  -2.000000
308 2 1     -4.000000  -2.000000  -2.000000
309 2 1     -3.000000  -2.000000  -2.000000
310 2 1     -2.000000  -2.000000  -2.000000
311 2 1     -1.000000  -2.000000  -2.000000
312 2 1     0.000000  -2.000000  -2.000000
313 2 1     1.000000  -2.000000  -2.000000
314 2 1     2.000000  -2.000000  -2.000000
315 2 1     3.000000  -2.000000  -2.000000
316 2 1     4.000000  -2.000000  -2.000000
317 2 1     4.000000  -3.000000  -2.000000
318 2 1     3.000000  -3.000000  -2.000000
319 2 1     2.000000  -3.000000  -2.000000
320 2 1     1.000000  -3.000000  -2.000000
321 2 1     0.000000  -3.000000  -2.000000
322 2 1     -1.000000  -3.000000  -2.000000
323 2 1     -2.000000  -3.000000  -2.000000
324 2 1     -3.000000  -3.000000  -2.000000
325 2 1     -4.000000  -3.000000  -2.000000
326 2 1     -4.000000  -4.000000  -2.000000
327 2 1     -3.000000  -4.000000  -2.000000
328 2 1     -2.000000  -4.000000  -2.000000
329 2 1     -1.000000  -4.000000  -2.000000
330 2 1     0.000000  -4.000000  -2.000000
331 2 1     1.000000  -4.000000  -2.000000
332 2 1     2.000000  -4.000000  -2.000000
333 2 1     3.000000  -4.000000  -2.000000
334 2 1     4.000000  -4.000000  -2.000000
335 2 1     4.000000  -4.000000  -1.000000
336 2 1     3.000000  -4.000000  -1.000000
337 2 1     2.000000  -4.000000  -1.000000
338 2 1     1.000000  -4.000000  -1.000000
339 2 1     0.000000  -4.000000  -1.000000
340 2 1     -1.000000  -4.000000  -1.000000
341 2 1     -2.000000  -4.000000  -1.000000
342 2 1     -3.000000  -4.000000  -1.000000
343 2 1     -4.000000  -4.000000  -1.000000
344 2 1     -4.000000  -3.000000  -1.000000
345 2 1     -3.000000  -3.000000  -1.000000
346 2 1     -2.000000  -3.000000  -1.000000
347 2 1     -1.000000  -3.000000  -1.000000
348 2 1     0.000000  -3.000000  -1.000000
349 2 1     1.000000  -3.000000  -1.000000
350 2 1     2.000000  -3.000000  -1.000000
351 2 1     3.000000  -3.000000  -1.000000
352 2 1     4.000000  -3.000000  -1.000000
353 2 1     4.000000  -2.000000  -1.000000
354 2 1     3.000000  -2.000000  -1.000000
355 2 1     2.000000  -2.000000  -1.000000
356 2 1     1.000000  -2.000000  -1.000000
357 2 1     0.000000  -2.000000  -1.000000
358 2 1     -1.000000  -2.000000  -1.000000
359 2 1     -2.000000  -2.000000  -1.000000
360 2 1     -3.000000  -2.000000  -1.000000
361 2 1     -4.000000  -2.000000  -1.000000
362 2 1     -4.000000  -1.000000  -1.000000
363 2 1     -3.000000  -1.000000  -1.000000
364 2 1     -2.000000  -1.000000  -1.000000
365 2 1     -1.000000  -1.000000  -1.000000
366 2 1     0.000000  -1.000000  -1.000000
367 2 1     1.000000  -1.000000  -1.000000
368 2 1     2.000000  -1.000000  -1.000000
369 2 1     3.000000  -1.000000  -1.000000
370 2 1     4.000000  -1.000000  -1.000000
371 2 1     4.000000  0.000000  -1.000000
372 2 1     3.000000  0.000000  -1.000000
373 2 1     2.000000  0.000000  -1.000000
374 2 1     1.000000  0.000000  -1.000000
375 2 1     0.000000  0.000000  -1.000000
376 2 1     -1.000000  0.000000  -1.000000
377 2 1     -2.000000  0.000000  -1.000000
378 2 1     -3.000000  0.000000  -1.000000
379 2 1     -4.000000  0.000000  -1.000000
380 2 1     -4.000000  1.000000  -1.000000
381 2 1     -3.000000  1.000000  -1.000000
382 2 1     -2.000000  1.000000  -1.000000
383 2 1     -1.000000  1.000000  -1.000000
384 2 1     0.000000  1.000000  -1.000000
385 2 1     1.000000  1.000000  -1.000000
386 2 1     2.000000  1.000000  -1.000000
387 2 1     3.000000  1.000000  -1.000000
388 2 1     4.000000  1.000000  -1.000000
389 2 1     4.000000  2.000000  -1.000000
390 2 1     3.000000  2.000000  -1.000000
391 2 1     2.000000  2.000000  -1.000000
392 2 1     1.000000  2.000000  -1.000000
393 2 1     0.000000  2.000000  -1.000000
394 2 1     -1.000000  2.000000  -1.000000
395 2 1     -2.000000  2.000000  -1.000000
396 2 1     -3.000000  2.000000  -1.000000
397 2 1     -4.000000  2.000000  -1.000000
398 2 1     -4.000000  3.000000  -1.000000
399 2 1     -3.000000  3.000000  -1.000000
400 2 1     -2.000000  3.000000  -1.000000
401 2 1     -1.000000  3.000000  -1.000000
402 2 1     0.000000  3.000000  -1.000000
403 2 1     1.000000  3.000000  -1.000000
404 2 1     2.000000  3.000000  -1.000000
405 2 1     3.000000  3.000000  -1.000000
406 2 1     4.000000  3.000000  -1.000000
407 2 1     4.000000  4.000000  -1.000000
408 2 1     3.000000  4.000000  -1.000000
409 2 1     2.000000  4.000000  -1.000000
410 2 1     1.000000  4.000000  -1.000000
411 2 1     0.000000  4.000000  -1.000000
412 2 1     -1.000000  4.000000  -1.000000
413 2 1     -2.000000  4.000000  -1.000000
414 2 1     -3.000000  4.000000  -1.000000
415 2 1     -4.000000  4.000000  -1.000000
416 2 1     -4.000000  4.000000  0.000000
417 2 1     -3.000000  4.000000  0.000000
418 2 1     -2.000000  4.000000  0.000000
419 2 1     -1.000000  4.000000  0.000000
420 2 1     0.000000  4.000000  0.000000
421 2 1     1.000000  4.000000  0.000000
422 2 1     2.000000  4.000000  0.000000
423 2 1     3.000000  4.000000  0.000000
424 2 1     4.000000  4.000000  0.000000
425 2 1     4.000000  3.000000  0.000000
426 2 1     3.000000  3.000000  0.000000
427 2 1     2.000000  3.000000  0.000000
428 2 1     1.000000  3.000000  0.000000
429 2 1     0.000000  3.000000  0.000000
430 2 1     -1.000000  3.000000  0.000000
431 2 1     -2.000000  3.000000  0.000000
432 2 1     -3.000000  3.000000  0.000000
433 2 1     -4.000000  3.000000  0.000000
434 2 1     -4.000000  2.000000  0.000000
435 2 1     -3.000000  2.000000  0.000000
436 2 1     -2.000000  2.000000  0.000000
437 2 1     -1.000000  2.000000  0.000000
438 2 1     0.000000  2.000000  0.000000
439 2 1     1.000000  2.000000  0.000000
440 2 1     2.000000  2.000000  0.000000
441 2 1     3.000000  2.000000  0.000000
442 2 1     4.000000  2.000000  0.000000
443 2 1     4.000000  1.000000  0.000000
444 2 1     3.000000  1.000000  0.000000
445 2 1     2.000000  1.000000  0.000000
446 2 1     1.000000  1.000000  0.000000
447 2 1     0.000000  1.000000  0.000000
448 2 1     -1.000000  1.000000  0.000000
449 2 1     -2.000000  1.000000  0.000000
450 2 1     -3.000000  1.000000  0.000000
451 2 2     -4.000000  1.000000  0.000000
452 2 2     -4.000000  0.000000  0.000000
453 2 2     -3.000000  0.000000  0.000000
454 2 2     -2.000000  0.000000  0.000000
455 2 2     -1.000000  0.000000  0.000000
456 2 2     0.000000  0.000000  0.000000
457 2 2     1.000000  0.000000  0.000000
458 2 2     2.000000  0.000000  0.000000
459 2 2     3.000000  0.000000  0.000000
460 2 2     4.000000  0.000000  0.000000
461 2 2     4.000000  -1.000000  0.000000
462 2 2     3.000000  -1.000000  0.000000
463 2 2     2.000000  -1.000000  0.000000
464 2 2     1.000000  -1.000000  0.000000
465 2 2     0.000000  -1.000000  0.000000
466 2 2     -1.000000  -1.000000  0.000000
467 2 2     -2.000000  -1.000000  0.000000
468 2 2     -3.000000  -1.000000  0.000000
469 2 2     -4.000000  -1.000000  0.000000
470 2 2     -4.000000  -2.000000  0.000000
471 2 2     -3.000000  -2.000000  0.000000
472 2 2     -2.000000  -2.000000  0.000000
473 2 2     -1.000000  -2.000000  0.000000
474 2 2     0.000000  -2.000000  0.000000
475 2 2     1.000000  -2.000000  0.000000
476 2 2     2.000000  -2.000000  0.000000
477 2 2     3.000000  -2.000000  0.000000
478 2 2     4.000000  -2.000000  0.000000
479 2 2     4.000000  -3.000000  0.000000
480 2 2     3.000000  -3.000000  0.000000
481 2 2     2.000000  -3.000000  0.000000
482 2 2     1.000000  -3.000000  0.000000
483 2 2     0.000000  -3.000000  0.000000
484 2 2     -1.000000  -3.000000  0.000000
485 2 2     -2.000000  -3.000000  0.000000
486 2 2     -3.000000  -3.000000  0.000000
487 2 2     -4.000000  -3.000000  0.000000
488 2 2     -4.000000  -4.000000  0.000000
489 2 2     -3.000000  -4.000000  0.000000
490 2 2     -2.000000  -4.000000  0.000000
491 2 2     -1.000000  -4.000000  0.000000
492 2 2     0.000000  -4.000000  0.000000
493 2 2     1.000000  -4.000000  0.000000
494 2 2     2.000000  -4.000000  0.000000
495 2 2     3.000000  -4.000000  0.000000
496 2 2     4.000000  -4.000000  0.000000
497 2 2     4.000000  -4.000000  1.000000
498 2 2     3.000000  -4.000000  1.000000
499 2 2     2.000000  -4.000000  1.000000
500 2 2     1.000000  -4.000000  1.000000
501 2 2     0.000000  -4.000000  1.000000
502 2 2     -1.000000  -4.000000  1.000000
503 2 2     -2.000000  -4.000000  1.000000
504 2 2     -3.000000  -4.000000  1.000000
505 2 2     -4.000000  -4.000000  1.000000
506 2 2     -4.000000  -3.000000  1.000000
507 2 2     -3.000000  -3.000000  1.000000
508 2 2     -2.000000  -3.000000  1.000000
509 2 2     -1.000000  -3.000000  1.000000
510 2 2     0.000000  -3.000000  1.000000
511 2 2     1.000000  -3.000000  1.000000
512 2 2     2.000000  -3.000000  1.000000
513 2 2     3.000000  -3.000000  1.000000
514 2 2     4.000000  -3.000000  1.000000
515 2 2     4.000000  -2.000000  1.000000
516 2 2     3.000000  -2.000000  1.000000
517 2 2     2.000000  -2.000000  1.000000
518 2 2     1.000000  -2.000000  1.000000
519 2 2     0.000000  -2.000000  1.000000
520 2 2     -1.000000  -2.000000  1.000000
521 2 2     -2.000000  -2.000000  1.000000
522 2 2     -3.000000  -2.000000  1.000000
523 2 2     -4.000000  -2.000000  1.000000
524 2 2     -4.000000  -1.000000  1.000000
525 2 2     -3.000000  -1.000000  1.000000
526 2 2     -2.000000  -1.000000  1.000000
527 2 2     -1.000000  -1.000000  1.000000
528 2 2     0.000000  -1.000000  1.000000
529 2 2     1.000000  -1.000000  1.000000
530 2 2     2.000000  -1.000000  1.000000
531 2 2     3.000000  -1.000000  1.000000
532 2 2     4.000000  -1.000000  1.000000
533 2 2     4.000000  0.000000  1.000000
534 2 2     3.000000  0.000000  1.000000
535 2 2     2.000000  0.000000  1.000000
536 2 2     1.000000  0.000000  1.000000
537 2 2     0.000000  0.000000  1.000000
538 2 2     -1.000000  0.000000  1.000000
539 2 2     -2.000000  0.000000  1.000000
540 2 2     -3.000000  0.000000  1.000000
541 2 2     -4.000000  0.000000  1.000000
542 2 2     -4.000000  1.000000  1.000000
543 2 2     -3.000000  1.000000  1.000000
544 2 2     -2.000000  1.000000  1.000000
545 2 2     -1.000000  1.000000  1.000000
546 2 2     0.000000  1.000000  1.000000
547 2 2     1.000000  1.000000  1.000000
548 2 2     2.000000  1.000000  1.000000
549 2 2     3.000000  1.000000  1.000000
550 2 2     4.000000  1.000000  1.000000
551 2 2     4.000000  2.000000  1.000000
552 2 2     3.000000  2.000000  1.000000
553 2 2     2.000000  2.000000  1.000000
554 2 2     1.000000  2.000000  1.000000
555 2 2     0.000000  2.000000  1.000000
556 2 2     -1.000000  2.000000  1.000000
557 2 2     -2.000000  2.000000  1.000000
558 2 2     -3.000000  2.000000  1.000000
559 2 2     -4.000000  2.000000  1.000000
560 2 2     -4.000000  3.000000  1.000000
561 2 2     -3.000000  3.000000  1.000000
562 2 2     -2.000000  3.000000  1.000000
563 2 2     -1.000000  3.000000  1.000000
564 2 2     0.000000  3.000000  1.000000
565 2 2     1.000000  3.000000  1.000000
566 2 2     2.000000  3.000000  1.000000
567 2 2     3.000000  3.000000  1.000000
568 2 2     4.000000  3.000000  1.000000
569 2 2     4.000000  4.000000  1.000000
570 2 2     3.000000  4.000000  1.000000
571 2 2     2.000000  4.000000  1.000000
572 2 2     1.000000  4.000000  1.000000
573 2 2     0.000000  4.000000  1.000000
574 2 2     -1.000000  4.000000  1.000000
575 2 2     -2.000000  4.000000  1.000000
576 2 2     -3.000000  4.000000  1.000000
577 2 2     -4.000000  4.000000  1.000000
578 2 2     -4.000000  4.000000  2.000000
579 2 2     -3.000000  4.000000  2.000000
580 2 2     -2.000000  4.000000  2.000000
581 2 2     -1.000000  4.000000  2.000000
582 2 2     0.000000  4.000000  2.000000
583 2 2     1.000000  4.000000  2.000000
584 2 2     2.000000  4.000000  2.000000
585 2 2     3.000000  4.000000  2.000000
586 2 2     4.000000  4.000000  2.000000
587 2 2     4.000000  3.000000  2.000000
588 2 2     3.000000  3.000000  2.000000
589 2 2     2.000000  3.000000  2.000000
590 2 2     1.000000  3.000000  2.000000
591 2 2     0.000000  3.000000  2.000000
592 2 2     -1.000000  3.000000  2.000000
593 2 2     -2.000000  3.000000  2.000000
594 2 2     -3.000000  3.000000  2.000000
595 2 2     -4.000000  3.000000  2.000000
596 2 2     -4.000000  2.000000  2.000000
597 2 2     -3.000000  2.000000  2.000000
598 2 2     -2.000000  2.000000  2.000000
599 2 2     -1.000000  2.000000  2.000000
600 2 2     0.000000  2.000000  2.000000
601 3 1     1.000000  2.000000  2.000000
602 3 1     2.000000  2.000000  2.000000
603 3 1     3.000000  2.000000  2.000000
604 3 1     4.000000  2.000000  2.000000
605 3 1     4.000000  1.000000  2.000000
606 3 1     3.000000  1.000000  2.000000
607 3 1     2.000000  1.000000  2.000000
608 3 1     1.000000  1.000000  2.000000
609 3 1     0.000000  1.000000  2.000000
610 3 1     -1.000000  1.000000  2.000000
611 3 1     -2.000000  1.000000  2.000000
612 3 1     -3.000000  1.000000  2.000000
613 3 1     -4.000000  1.000000  2.000000
614 3 1     -4.000000  0.000000  2.000000
615 3 1     -3.000000  0.000000  2.000000
616 3 1     -2.000000  0.000000  2.000000
617 3 1     -1.000000  0.000000  2.000000
618 3 1     0.000000  0.000000  2.000000
619 3 1     1.000000  0.000000  2.000000
620 3 1     2.000000  0.000000  2.000000
621 3 1     3.000000  0.000000  2.000000
622 3 1     4.000000  0.000000  2.000000
623 3 1     4.000000  -1.000000  2.000000
624 3 1     3.000000  -1.000000  2.000000
625 3 1     2.000000  -1.000000  2.000000
626 3 1     1.000000  -1.000000  2.000000
627 3 1     0.000000  -1.000000  2.000000
628 3 1     -1.000000  -1.000000  2.000000
629 3 1     -2.000000  -1.000000  2.000000
630 3 1     -3.000000  -1.000000  2.000000
631 3 1     -4.000000  -1.000000  2.000000
632 3 1     -4.000000  -2.000000  2.000000
633 3 1     -3.000000  -2.000000  2.000000
634 3 1     -2.000000  -2.000000  2.000000
635 3 1     -1.000000  -2.000000  2.000000
636 3 1     0.000000  -2.000000  2.000000
637 3 1     1.000000  -2.000000  2.000000
638 3 1     2.000000  -2.000000  2.000000
639 3 1     3.000000  -2.000000  2.000000
640 3 1     4.000000  -2.000000  2.000000
641 3 1     4.000000  -3.000000  2.000000
642 3 1     3.000000  -3.000000  2.000000
643 3 1     2.000000  -3.000000  2.000000
644 3 1     1.000000  -3.000000  2.000000
645 3 1     0.000000  -3.000000  2.000000
646 3 1     -1.000000  -3.000000  2.000000
647 3 1     -2.000000  -3.000000  2.000000
648 3 1     -3.000000  -3.000000  2.000000
649 3 1     -4.000000  -3.000000  2.000000
650 3 1     -4.000000  -4.000000  2.000000
651 3 1     -3.000000  -4.000000  2.000000
652 3 1     -2.000000  -4.000000  2.000000
653 3 1     -1.000000  -4.000000  2.000000
654 3 1     0.000000  -4.000000  2.000000
655 3 1     1.000000  -4.000000  2.000000
656 3 1     2.000000  -4.000000  2.000000
657 3 1     3.000000  -4.000000  2.000000
658 3 1     4.000000  -4.000000  2.000000
659 3 1     4.000000  -4.000000  3.000000
660 3 1     3.000000  -4.000000  3.000000
661 3 1     2.000000  -4.000000  3.000000
662 3 1     1.000000  -4.000000  3.000000
663 3 1     0.000000  -4.000000  3.000000
664 3 1     -1.000000  -4.000000  3.000000
665 3 1     -2.000000  -4.000000  3.000000
666 3 1     -3.000000  -4.000000  3.000000
667 3 1     -4.000000  -4.000000  3.000000
668 3 1     -4.000000  -3.000000  3.000000
669 3 1     -3.000000  -3.000000  3.000000
670 3 1     -2.000000  -3.000000  3.000000
671 3 1     -1.000000  -3.000000  3.000000
672 3 1     0.000000  -3.000000  3.000000
673 3 1     1.000000  -3.000000  3.000000
674 3 1     2.000000  -3.000000  3.000000
675 3 1     3.000000  -3.000000  3.000000
676 3 1     4.000000  -3.000000  3.000000
677 3 1     4.000000  -2.000000  3.000000
678 3 1     3.000000  -2.000000  3.000000
679 3 1     2.000000  -2.000000  3.000000
680 3 1     1.000000  -2.000000  3.000000
681 3 1     0.000000  -2.000000  3.000000
682 3 1     -1.000000  -2.000000  3.000000
683 3 1     -2.000000  -2.000000  3.000000
684 3 1     -3.000000  -2.000000  3.000000
685 3 1     -4.000000  -2.000000  3.000000
686 3 1     -4.000000  -1.000000  3.000000
687 3 1     -3.000000  -1.000000  3.000000
688 3 1     -2.000000  -1.000000  3.000000
689 3 1     -1.000000  -1.000000  3.000000
690 3 1     0.000000  -1.000000  3.000000
691 3 1     1.000000  -1.000000  3.000000
692 3 1     2.000000  -1.000000  3.000000
693 3 1     3.000000  -1.000000  3.000000
694 3 1     4.000000  -1.000000  3.000000
695 3 1     4.000000  0.000000  3.000000
696 3 1     3.000000  0.000000  3.000000
697 3 1     2.000000  0.000000  3.000000
698 3 1     1.000000  0.000000  3.000000
699 3 1     0.000000  0.000000  3.000000
700 3 1     -1.000000  0.000000  3.000000
701 3 1     -2.000000  0.000000  3.000000