Generated by RARs stupid code

16880 atoms
16036 bonds
0 angles
0 dihedrals
0 impropers

2 atom types
1 bond types
0 angle types
0 dihedral types
0 improper types

-7.500000   7.500000 xlo xhi
-7.500000   7.500000 ylo yhi
-7.500000   7.500000 zlo zhi

Masses

1  1.000000
2  1.000000
Atoms

1 1 2     0.744842  -3.188973  -4.766356
2 1 2     0.441593  -3.173708  -3.813567
3 1 2     -0.500874  -2.861643  -3.933449
4 1 2     -0.467079  -2.596686  -2.969781
5 1 2     0.038786  -2.370650  -2.137310
6 1 2     -0.821154  -2.085629  -2.560708
7 1 2     -0.223125  -2.059560  -1.759658
8 1 2     -0.166491  -2.126448  -0.763506
9 1 2     -0.197054  -1.818647  0.187454
10 1 2     -1.118995  -2.140219  0.403364
11 1 2     -1.205146  -2.168784  -0.592508
12 1 2     -0.942111  -2.961266  -0.042249
13 1 2     -1.818116  -2.869655  -0.515772
14 1 2     -2.617574  -2.626397  0.033492
15 1 2     -2.930770  -2.266530  0.912358
16 1 2     -3.295950  -2.313386  1.842115
17 1 2     -3.275303  -2.696715  0.918734
18 1 2     -4.008823  -3.334210  1.154423
19 1 2     -4.194849  -3.314001  2.136760
20 1 2     -4.527823  -3.405247  3.075271
21 2 2     1.808072  1.887965  -5.262260
22 2 2     1.338399  2.214938  -6.082318
23 2 2     2.304087  2.435457  -5.945141
24 2 2     2.278783  1.469843  -6.203887
25 2 2     2.893960  0.712216  -5.985810
26 2 2     2.650062  0.903259  -6.936608
27 2 2     3.551732  0.490382  -6.808063
28 2 2     3.114482  0.756017  -5.948848
29 2 2     2.564278  0.803680  -6.782517
30 2 2     2.420830  -0.141649  -6.489642
31 2 2     2.407942  -0.138808  -5.489729
32 2 2     3.303634  -0.496324  -5.754148
33 2 2     2.687676  -0.675706  -4.987064
34 2 2     2.896617  0.298755  -4.904783
35 2 2     2.377565  0.029035  -5.715854
36 2 2     2.221405  -0.087093  -6.696736
37 2 2     2.460911  0.434741  -5.878001
38 2 2     2.147575  -0.434079  -6.261371
39 2 2     2.540957  -0.983037  -5.523878
40 2 2     2.934868  -1.559598  -4.808049
41 3 2     2.967739  6.132920  -6.409743
42 3 2     2.811284  6.478269  -5.484402
43 3 2     3.359984  7.104555  -6.038202
44 3 2     4.027287  6.582940  -6.569825
45 3 2     4.355729  7.024670  -5.734959
46 3 2     4.350565  7.044721  -6.734745
47 3 2     3.549322  6.453705  -6.641416
48 3 2     3.776992  5.483626  -6.725751
49 3 2     3.695377  6.479737  -6.758955
50 3 2     2.766240  6.658812  -6.435481
51 3 2     2.189150  7.469318  -6.535717
52 3 2     1.516671  6.764825  -6.308866
53 3 2     2.177396  6.419767  -5.642250
54 3 2     1.829106  6.988742  -6.387207
55 3 2     2.657381  7.404493  -6.011559
56 3 2     2.721545  -6.729057  -6.506682
57 3 2     3.137354  -6.909464  -7.398061
58 3 2     3.410042  7.454731  -6.675986
59 3 2     3.417111  -6.886937  -7.428680
60 3 2     3.841513  -6.231645  -6.803800
61 4 2     -4.820804  4.982056  -7.327544
62 4 2     -5.756392  4.679039  -7.146279
63 4 2     -5.738178  4.699373  -6.146652
64 4 2     -5.837558  4.595416  -5.157048
65 4 2     -5.185861  3.916506  -4.818858
66 4 2     -4.632022  3.623302  -4.039567
67 4 2     -4.382054  4.561899  -4.277371
68 4 2     -3.797561  4.476752  -5.084291
69 4 2     -4.126501  4.025897  -4.254515
70 4 2     -5.066998  3.946403  -3.924143
71 4 2     -4.721172  3.679326  -3.024658
72 4 2     -4.125958  2.918723  -3.283893
73 4 2     -5.003871  2.450223  -3.382772
74 4 2     -5.065171  1.596484  -2.865693
75 4 2     -4.467279  1.508041  -2.069011
76 4 2     -3.794436  2.245828  -2.014668
77 4 2     -4.092165  1.982432  -1.097073
78 4 2     -3.183729  1.919782  -1.510376
79 4 2     -2.420409  2.133214  -2.120121
80 4 2     -2.740972  2.331044  -1.193782
81 5 2     6.140565  -2.041114  -6.838337
82 5 2     7.078439  -2.040573  -6.491361
83 5 2     6.210858  -2.174897  -6.970173
84 5 2     5.932793  -2.519483  -6.073546
85 5 2     6.771892  -2.269767  -6.556819
86 5 2     6.803064  -1.337968  -6.195185
87 5 2     7.102475  -2.070921  -6.806031
88 5 2     -7.426942  -1.192283  -6.886938
89 5 2     -7.484402  -1.122741  -5.891015
90 5 2     7.305801  -1.294408  -6.853572
91 5 2     7.392677  -1.476368  -5.874111
92 5 2     7.240410  -0.807697  -6.601911
93 5 2     -7.495498  -0.739741  -5.639811
94 5 2     7.103007  -0.581530  -4.737719
95 5 2     6.109577  -0.518771  -4.642019
96 5 2     5.478700  -1.038076  -4.065550
97 5 2     5.124894  -1.853362  -4.523949
98 5 2     4.967047  -1.564751  -3.579603
99 5 2     5.738576  -2.199620  -3.620648
100 5 2     5.961494  -1.330900  -3.178343
101 6 2     -7.144395  -3.135008  -1.791339
102 6 2     -6.382604  -2.599974  -1.426081
103 6 2     -6.000952  -2.266408  -0.564063
104 6 2     -6.990340  -2.411710  -0.564479
105 6 2     -7.423320  -2.721902  0.281872
106 6 2     7.371579  -2.582876  -0.686945
107 6 2     6.920217  -3.328446  -0.196643
108 6 2     7.428248  -4.005950  -0.728519
109 6 2     6.436250  -4.014356  -0.602551
110 6 2     6.750302  -4.680950  0.073485
111 6 2     7.065379  -4.026207  -0.613565
112 6 2     -7.178148  -3.982271  0.038981
113 6 2     -6.291188  -3.521093  0.014135
114 6 2     -6.289884  -2.536714  -0.161923
115 6 2     -6.228850  -3.258644  0.527346
116 6 2     -7.220431  -3.163456  0.439562
117 6 2     -7.188425  -2.568837  1.242932
118 6 2     -6.484771  -2.219752  0.624053
119 6 2     -6.679099  -1.254203  0.450982
120 6 2     -6.938094  -2.220082  0.450796
121 7 2     0.418946  -3.327567  -2.281877
122 7 2     0.142566  -4.234700  -2.599247
123 7 2     0.533266  -4.210798  -1.679039
124 7 2     0.498359  -4.572133  -0.747257
125 7 2     0.797860  -3.682646  -0.402132
126 7 2     1.151988  -3.426103  -1.301454
127 7 2     1.788134  -3.569087  -0.543249
128 7 2     2.104575  -2.809358  0.024798
129 7 2     1.669755  -2.958458  0.912886
130 7 2     1.957077  -2.995732  -0.044223
131 7 2     1.240897  -2.465951  0.410111
132 7 2     1.451783  -2.961355  -0.432565
133 7 2     1.607987  -3.286869  0.499981
134 7 2     1.928417  -3.338034  1.445870
135 7 2     2.912873  -3.349044  1.270586
136 7 2     2.445162  -3.402342  0.388313
137 7 2     2.165652  -3.000317  1.260236
138 7 2     3.068930  -3.184931  0.872928
139 7 2     2.705188  -2.274019  1.067688
140 7 2     2.593010  -2.787282  0.216820
141 8 2     -4.506041  -1.399490  -3.268696
142 8 2     -4.028089  -1.976689  -3.930817
143 8 2     -4.804072  -2.371540  -3.438939
144 8 2     -5.004986  -2.220993  -4.406910
145 8 2     -5.446275  -2.404259  -5.285362
146 8 2     -5.560113  -2.295528  -4.297830
147 8 2     -5.650735  -1.716441  -3.487617
148 8 2     -5.909977  -1.434606  -2.563840
149 8 2     -6.033179  -1.512581  -1.574527
150 8 2     -6.834794  -0.916427  -1.529646
151 8 2     -6.441822  -1.277633  -0.684008
152 8 2     -6.441391  -1.305145  0.315613
153 8 2     -6.468370  -0.959731  1.253676
154 8 2     -6.219033  -1.882602  1.547173
155 8 2     -7.029738  -2.179504  2.051759
156 8 2     -6.263932  -1.541685  2.133788
157 8 2     -7.017809  -1.642160  2.783075
158 8 2     -7.235693  -1.881121  1.836807
159 8 2     -7.061674  -1.838751  0.852976
160 8 2     -6.066359  -1.766664  0.917406
161 9 2     0.758734  -7.351196  5.439102
162 9 2     1.474334  -7.014347  4.827179
163 9 2     1.331429  -6.931716  5.813460
164 9 2     1.330451  -6.912391  6.813273
165 9 2     1.633433  -6.242227  6.135717
166 9 2     0.861992  -6.726557  6.548396
167 9 2     -0.110576  -6.953722  6.498314
168 9 2     -0.046000  -6.912991  7.495395
169 9 2     0.339661  7.361722  6.925111
170 9 2     1.023877  7.197244  6.214622
171 9 2     1.033500  -7.220522  7.027586
172 9 2     0.507702  -6.799161  6.288675
173 9 2     0.513650  -6.850074  5.289989
174 9 2     1.197796  7.421387  5.255710
175 9 2     1.912011  -7.229651  5.862441
176 9 2     1.701168  7.086253  5.164187
177 9 2     1.721137  6.999009  6.160174
178 9 2     2.230367  6.338858  5.608009
179 9 2     2.137037  5.780827  6.432564
180 9 2     2.098847  5.825684  5.434301
181 10 2     -5.776382  5.977545  -3.978685
182 10 2     -6.312119  6.743263  -3.622789
183 10 2     -6.313613  6.698659  -4.621793
184 10 2     -6.241842  6.204540  -3.755366
185 10 2     -6.395130  6.470134  -2.803545
186 10 2     -5.831319  6.064040  -3.522715
187 10 2     -6.574289  6.499006  -4.031441
188 10 2     -6.908236  6.946248  -3.201709
189 10 2     -7.231994  7.071733  -2.263928
190 10 2     7.005824  7.344114  -2.851199
191 10 2     6.360322  -6.998231  -2.462846
192 10 2     6.285793  -6.090539  -2.875810
193 10 2     6.429595  -5.898577  -3.846620
194 10 2     7.293515  -5.840561  -3.346344
195 10 2     7.091647  -4.968473  -3.792116
196 10 2     6.201217  -5.408909  -3.677434
197 10 2     7.159840  -5.331692  -3.951441
198 10 2     6.822003  -4.412823  -3.747610
199 10 2     7.259857  -5.311870  -3.747821
200 10 2     6.601839  -5.391997  -2.999094
201 11 2     1.164365  6.351645  3.191799
202 11 2     1.324633  5.848331  4.040910
203 11 2     1.423772  5.877587  5.035553
204 11 2     0.984632  5.717140  4.151578
205 11 2     0.610324  4.793541  4.068760
206 11 2     0.792271  5.011299  3.109866
207 11 2     0.988942  4.959829  2.130748
208 11 2     0.950671  4.215112  1.464466
209 11 2     1.237742  3.993213  2.396320
210 11 2     1.244414  4.858866  2.896919
211 11 2     0.329872  5.192221  2.667819
212 11 2     0.351094  5.218122  3.667259
213 11 2     -0.315582  5.334681  2.931082
214 11 2     0.396322  4.672016  3.163605
215 11 2     0.743695  5.161854  2.363986
216 11 2     -0.007800  5.728856  2.701274
217 11 2     0.953956  6.002297  2.717249
218 11 2     0.426466  6.733045  3.150565
219 11 2     0.463274  6.233112  4.015846
220 11 2     0.131715  5.381647  4.422142
221 12 2     -0.536944  -3.028290  -3.591421
222 12 2     -0.664200  -2.626068  -2.684765
223 12 2     -1.385736  -3.302302  -2.536128
224 12 2     -1.118460  -2.478461  -2.036279
225 12 2     -1.137875  -2.650130  -3.021243
226 12 2     -0.948611  -1.715186  -3.321342
227 12 2     -1.427611  -1.609000  -2.449973
228 12 2     -1.631935  -1.855540  -1.502624
229 12 2     -2.524941  -1.411187  -1.573971
230 12 2     -2.009051  -1.511954  -0.723264
231 12 2     -1.204343  -2.102458  -0.662035
232 12 2     -2.201731  -2.124718  -0.593322
233 12 2     -2.103649  -1.540406  0.212258
234 12 2     -2.777805  -0.863693  0.508186
235 12 2     -2.804929  -0.831315  -0.490922
236 12 2     -2.805601  -0.773034  -1.489222
237 12 2     -3.239347  -1.084289  -2.334790
238 12 2     -3.349412  -1.029062  -3.327179
239 12 2     -2.380072  -0.832374  -3.474464
240 12 2     -2.529688  -1.490239  -4.212589
241 13 2     -1.469529  -2.838503  -0.480061
242 13 2     -1.743757  -2.696819  -1.431231
243 13 2     -1.809488  -2.713157  -0.433527
244 13 2     -1.176270  -3.484371  -0.368230
245 13 2     -1.091935  -3.953475  -1.247337
246 13 2     -1.722659  -3.961216  -0.471368
247 13 2     -2.057744  -4.902978  -0.499680
248 13 2     -1.685182  -4.992736  0.423976
249 13 2     -1.784714  -4.973556  -0.570873
250 13 2     -2.550903  -5.302348  -0.018739
251 13 2     -3.140086  -5.785477  -0.666389
252 13 2     -3.156490  -5.779436  -1.666236
253 13 2     -3.458414  -5.799733  -0.713120
254 13 2     -3.275386  -4.924635  -0.265120
255 13 2     -3.192838  -4.803701  -1.254342
256 13 2     -3.097623  -5.622438  -0.688124
257 13 2     -3.210553  -4.679398  -1.001049
258 13 2     -2.689193  -4.931826  -1.816195
259 13 2     -3.665133  -4.930178  -2.034232
260 13 2     -4.155905  -5.300410  -1.245517
261 14 2     2.864321  6.084743  6.813139
262 14 2     3.329321  6.738325  7.410305
263 14 2     3.708585  6.534394  6.507769
264 14 2     2.889479  7.062262  6.732313
265 14 2     3.723825  7.480548  7.091344
266 14 2     3.896644  7.196005  6.148387
267 14 2     4.270088  6.536036  6.800292
268 14 2     4.841976  5.832136  7.221562
269 14 2     5.048500  4.889293  7.483087
270 14 2     5.088120  5.104684  6.507363
271 14 2     5.338823  4.925852  5.555960
272 14 2     5.065590  4.358454  4.779170
273 14 2     5.845955  4.785903  5.235588
274 14 2     6.585608  5.144689  4.666213
275 14 2     6.284425  5.242841  3.717712
276 14 2     6.259413  5.276964  4.716816
277 14 2     6.574417  5.136177  3.778226
278 14 2     6.738232  5.341635  2.813368
279 14 2     -7.331946  4.978591  2.873616
280 14 2     -7.301746  4.960781  1.874231
281 15 2     3.129005  2.816538  -0.141553
282 15 2     2.360083  2.278786  0.204252
283 15 2     2.367121  2.280843  -0.795721
284 15 2     2.310770  2.945612  -1.540641
285 15 2     2.171328  1.998543  -1.251478
286 15 2     2.259475  1.983607  -0.255483
287 15 2     1.642670  2.062507  -1.038634
288 15 2     2.172110  2.023933  -1.886104
289 15 2     1.533074  2.640474  -2.346006
290 15 2     1.526425  2.661441  -1.346248
291 15 2     1.663631  2.678109  -0.355846
292 15 2     2.133523  1.865240  -0.011689
293 15 2     2.270959  1.828758  0.978150
294 15 2     1.344879  1.777224  1.351943
295 15 2     1.433434  1.739409  2.347296
296 15 2     1.515410  2.573967  2.892083
297 15 2     1.135169  1.875187  3.497991
298 15 2     1.825400  2.160053  4.163147
299 15 2     1.741563  2.320331  3.179642
300 15 2     2.000766  1.823391  4.007811
301 16 2     -6.537003  -7.116593  -2.974359
302 16 2     -6.526761  -7.104816  -1.974481
303 16 2     -5.715293  -7.496306  -2.408366
304 16 2     -5.014462  6.793804  -2.478308
305 16 2     -5.015746  5.983228  -1.892676
306 16 2     -5.861897  5.998511  -2.425400
307 16 2     -4.947290  6.322166  -2.183032
308 16 2     -5.023670  6.553480  -1.213155
309 16 2     -5.677591  6.680919  -0.467403
310 16 2     -5.798001  6.463123  -1.435942
311 16 2     -6.694578  6.307026  -1.021474
312 16 2     -6.027173  6.785809  -0.451090
313 16 2     -5.730095  7.277074  0.367692
314 16 2     -5.670019  7.333758  1.364275
315 16 2     -5.104184  7.175308  0.555125
316 16 2     -5.884383  -7.199478  0.535187
317 16 2     -5.118155  7.352244  0.995558
318 16 2     -4.938475  -7.254689  0.093775
319 16 2     -4.773112  -7.439082  -0.875067
320 16 2     -4.994507  7.465915  0.095478
321 17 2     5.326383  0.296860  0.236179
322 17 2     4.789098  0.749945  0.947543
323 17 2     4.092609  0.577888  0.250909
324 17 2     4.021060  1.290497  0.948813
325 17 2     3.789292  1.211137  1.918341
326 17 2     3.584894  0.695934  2.750680
327 17 2     3.179949  0.977187  1.880671
328 17 2     3.458025  1.937158  1.847078
329 17 2     3.465614  1.876482  2.845206
330 17 2     3.610007  1.817708  1.857433
331 17 2     3.288183  1.651977  0.925252
332 17 2     2.680304  2.321374  1.352324
333 17 2     2.714121  1.881862  0.454724
334 17 2     2.731616  1.936131  1.453097
335 17 2     2.061809  1.231738  1.688022
336 17 2     2.141602  1.434636  2.663966
337 17 2     2.688279  1.738453  3.444248
338 17 2     2.580232  2.040925  4.391262
339 17 2     2.684550  1.046794  4.362579
340 17 2     2.540734  1.481779  5.251457
341 18 2     -5.717756  5.396908  -0.856597
342 18 2     -6.434618  5.664213  -0.212659
343 18 2     -6.653991  4.697079  -0.341223
344 18 2     -5.875222  5.287435  -0.553353
345 18 2     -6.384863  5.453862  0.290784
346 18 2     -6.814784  5.545684  -0.607402
347 18 2     -6.177380  5.108945  0.027401
348 18 2     -6.526993  4.533441  0.766702
349 18 2     -7.445912  4.230263  0.514372
350 18 2     7.310250  3.985182  1.452710
351 18 2     6.333496  4.058330  1.654210
352 18 2     6.830834  4.412603  0.862285
353 18 2     -7.454285  4.662629  1.515303
354 18 2     -6.804053  4.718618  0.757634
355 18 2     -6.727757  4.852985  -0.230356
356 18 2     -6.534630  5.238460  -1.132637
357 18 2     -6.958316  5.461587  -0.254739
358 18 2     -7.235141  4.968673  0.570127
359 18 2     -6.805615  5.258080  1.425551
360 18 2     -6.402355  5.885448  2.091728
361 19 2     3.968228  -6.550022  -7.451768
362 19 2     3.543106  -7.451389  -7.369254
363 19 2     2.691458  -6.976846  -7.146759
364 19 2     2.533864  -6.597949  -6.234837
365 19 2     3.108344  -6.360462  -5.451528
366 19 2     2.302319  -6.525564  -4.883140
367 19 2     2.693466  -7.248087  -4.313083
368 19 2     3.140096  -7.313877  -5.205380
369 19 2     2.970094  7.457585  -6.163957
370 19 2     3.671472  7.134587  -5.528550
371 19 2     3.825068  7.097426  -4.541115
372 19 2     3.479784  7.242837  -5.468280
373 19 2     4.201458  -7.409996  -6.067163
374 19 2     3.812157  -7.146159  -5.184647
375 19 2     3.164469  -6.384923  -5.152696
376 19 2     3.353778  -5.816361  -5.953259
377 19 2     2.743566  -6.585263  -5.762387
378 19 2     2.756748  -6.468130  -4.769358
379 19 2     2.725794  -6.394696  -5.766177
380 19 2     3.408782  -7.123531  -5.814413
381 20 2     4.899115  -1.946993  6.110970
382 20 2     3.906191  -2.065709  6.108093
383 20 2     3.802262  -2.497795  7.003916
384 20 2     4.122082  -3.444071  6.956204
385 20 2     3.496685  -2.673358  6.834223
386 20 2     3.452990  -2.547059  5.843193
387 20 2     3.901472  -1.666139  5.692054
388 20 2     3.887201  -1.674026  4.692187
389 20 2     4.138662  -2.260119  5.462422
390 20 2     3.438618  -1.863965  6.056560
391 20 2     3.839405  -1.617254  6.938888
392 20 2     4.628653  -1.720773  6.333602
393 20 2     3.686071  -1.575225  6.634192
394 20 2     2.914016  -2.192325  6.786244
395 20 2     2.490244  -1.287110  6.754574
396 20 2     3.243874  -1.894680  6.503775
397 20 2     3.724396  -2.726867  6.227072
398 20 2     3.286137  -3.583754  6.498499
399 20 2     4.200804  -3.777344  6.853333
400 20 2     4.331390  -3.803526  5.862242
401 21 2     5.250096  5.178686  3.146884
402 21 2     5.140009  5.368344  4.122543
403 21 2     4.877483  4.656048  4.773477
404 21 2     5.037051  5.039514  5.683142
405 21 2     5.665974  5.033580  4.905697
406 21 2     5.765191  4.125117  5.311717
407 21 2     6.063792  3.925017  6.244883
408 21 2     6.068942  3.914736  7.244816
409 21 2     6.061737  3.959290  6.245835
410 21 2     6.015323  2.969721  6.109462
411 21 2     6.081446  2.299465  5.370283
412 21 2     6.798477  2.995846  5.400630
413 21 2     6.633305  3.233272  4.443370
414 21 2     5.962108  2.675652  3.954950
415 21 2     5.317282  3.439796  3.971745
416 21 2     5.417316  2.445568  4.010519
417 21 2     4.635964  1.848024  3.830437
418 21 2     4.556469  2.092386  4.796857
419 21 2     4.187234  2.996062  4.579983
420 21 2     4.345820  3.226093  3.619808
421 22 2     -3.234504  -2.826418  -1.609214
422 22 2     -2.842043  -3.304885  -2.394735
423 22 2     -3.457727  -2.518909  -2.451077
424 22 2     -4.115580  -2.101251  -1.824346
425 22 2     -4.455045  -2.035151  -0.886053
426 22 2     -3.731701  -2.305129  -0.250532
427 22 2     -3.384163  -3.047996  -0.822690
428 22 2     -4.125970  -3.716109  -0.764828
429 22 2     -4.398622  -4.007979  0.151945
430 22 2     -3.900962  -3.210154  0.492253
431 22 2     -3.687337  -3.346971  1.459541
432 22 2     -3.483854  -2.591052  0.837302
433 22 2     -4.019346  -3.199452  0.251556
434 22 2     -3.869986  -4.081532  -0.195238
435 22 2     -3.816959  -4.308680  -1.167654
436 22 2     -3.963715  -4.967351  -0.429673
437 22 2     -3.916017  -5.206819  -1.399405
438 22 2     -4.158517  -4.346813  -1.848384
439 22 2     -3.984193  -4.479958  -2.824029
440 22 2     -3.221451  -4.737176  -3.417379
441 23 2     4.574478  5.634477  2.718251
442 23 2     3.673838  5.752602  2.300047
443 23 2     4.368567  5.262188  2.826208
444 23 2     3.989729  5.088174  1.917252
445 23 2     4.316877  4.312281  2.456663
446 23 2     4.768782  4.178136  3.338586
447 23 2     4.562684  3.537991  2.598493
448 23 2     4.070811  3.502192  1.728563
449 23 2     4.886676  2.946695  1.567977
450 23 2     4.038400  3.227023  2.017248
451 23 2     3.168756  3.563737  2.378278
452 23 2     3.312454  4.492937  2.718775
453 23 2     3.225377  4.533578  3.714147
454 23 2     2.716064  3.684830  3.571926
455 23 2     2.250558  3.418142  4.415834
456 23 2     2.569119  4.099365  3.756703
457 23 2     3.322711  3.459764  3.605018
458 23 2     3.334128  4.295006  4.154781
459 23 2     2.359475  4.102581  4.040655
460 23 2     2.892958  4.898329  4.327328
461 24 2     0.606336  5.700975  -4.795826
462 24 2     0.581455  6.699637  -4.750486
463 24 2     0.381727  6.847058  -5.719184
464 24 2     0.500102  6.702735  -4.736759
465 24 2     -0.001546  -7.442751  -4.602020
466 24 2     -0.459074  6.959391  -3.943814
467 24 2     -0.322223  6.205148  -4.585990
468 24 2     -0.880395  5.917052  -3.807887
469 24 2     -1.036471  5.763130  -4.783565
470 24 2     -0.833479  6.334381  -3.988287
471 24 2     -0.787609  6.317570  -4.987093
472 24 2     0.155179  6.650901  -4.993462
473 24 2     0.832932  5.955595  -4.754295
474 24 2     1.793030  6.111705  -4.522255
475 24 2     1.845079  5.122398  -4.386005
476 24 2     2.499851  5.215581  -3.635944
477 24 2     3.350147  5.640334  -3.325168
478 24 2     3.367012  6.637979  -3.391645
479 24 2     2.547994  6.085945  -3.235221
480 24 2     3.331279  6.654889  -2.984686
481 25 2     -3.519850  -0.454297  -1.551493
482 25 2     -2.827902  -0.369673  -0.834523
483 25 2     -3.462833  -1.100649  -0.584453
484 25 2     -3.253162  -0.702286  0.308489
485 25 2     -2.485433  -0.563701  -0.317119
486 25 2     -2.418904  -1.537287  -0.098705
487 25 2     -2.267026  -2.234666  -0.799130
488 25 2     -3.101354  -2.771507  -0.924425
489 25 2     -2.483885  -2.180381  -0.405482
490 25 2     -2.815221  -2.947482  0.143856
491 25 2     -2.782342  -2.003980  -0.185875
492 25 2     -2.048777  -2.050925  0.492121
493 25 2     -2.324594  -3.010365  0.550432
494 25 2     -2.670102  -2.893687  1.481566
495 25 2     -2.872367  -2.593660  2.413807
496 25 2     -3.456321  -3.400077  2.320589
497 25 2     -2.561798  -3.751460  2.596921
498 25 2     -2.790519  -4.589358  2.101327
499 25 2     -2.019750  -4.651042  2.735449
500 25 2     -1.677586  -4.849991  3.653786
501 26 2     -2.241647  -2.060319  -2.456875
502 26 2     -2.568445  -1.130120  -2.624003
503 26 2     -3.566320  -1.065947  -2.635347
504 26 2     -3.625223  -0.881164  -1.654334
505 26 2     -3.624767  -0.865110  -0.654463
506 26 2     -3.479995  0.033955  -1.067651
507 26 2     -2.640926  -0.501913  -0.973791
508 26 2     -2.399606  -0.113826  -1.863259
509 26 2     -2.286232  0.125658  -2.827517
510 26 2     -2.845515  -0.070825  -3.632873
511 26 2     -2.932007  0.338219  -4.541279
512 26 2     -2.719167  1.315306  -4.541828
513 26 2     -2.085210  0.585198  -4.286798
514 26 2     -3.058080  0.567715  -4.517487
515 26 2     -2.987657  0.359213  -5.492971
516 26 2     -3.475776  1.226626  -5.589585
517 26 2     -4.008461  1.584291  -4.822563
518 26 2     -3.896376  1.209543  -3.902236
519 26 2     -4.836677  0.885215  -4.005410
520 26 2     -4.700044  1.078457  -3.033819
521 27 2     -2.661253  2.858652  4.082221
522 27 2     -2.202726  2.954813  4.965684
523 27 2     -2.523962  2.236014  4.349133
524 27 2     -2.489922  3.218134  4.163983
525 27 2     -3.323210  2.869081  3.735274
526 27 2     -3.518635  3.846665  3.813624
527 27 2     -3.642530  3.819054  4.805535
528 27 2     -4.071212  4.080650  5.670289
529 27 2     -3.781278  4.664052  6.428960
530 27 2     -3.962486  3.993505  5.709564
531 27 2     -3.793657  3.467993  6.543431
532 27 2     -4.116108  3.159804  7.438442
533 27 2     -3.907612  3.545070  6.539498
534 27 2     -4.621476  3.092020  7.073487
535 27 2     -3.999127  3.400272  6.353999
536 27 2     -3.864870  3.738992  7.285258
537 27 2     -3.209975  4.449233  7.027051
538 27 2     -3.009847  5.428159  7.067711
539 27 2     -3.017875  5.478361  6.069005
540 27 2     -2.268239  4.868891  5.810949
541 28 2     -3.975937  3.582808  -6.206705
542 28 2     -4.124143  4.286046  -6.902041
543 28 2     -4.282836  5.241166  -7.152165
544 28 2     -4.113745  5.012724  -6.193404
545 28 2     -3.150044  5.239050  -6.051781
546 28 2     -3.980846  5.038047  -5.532777
547 28 2     -3.212512  5.643202  -5.324332
548 28 2     -3.701093  5.549964  -4.456810
549 28 2     -3.642148  5.175643  -5.382234
550 28 2     -3.889493  4.907348  -4.451192
551 28 2     -4.319933  4.744645  -3.563359
552 28 2     -4.296535  4.760828  -2.563763
553 28 2     -4.728212  4.753342  -3.465760
554 28 2     -3.985840  4.795586  -2.797106
555 28 2     -3.531694  5.601468  -3.176982
556 28 2     -3.114756  6.252450  -2.542644
557 28 2     -2.306042  6.799377  -2.326190
558 28 2     -2.342492  5.901102  -1.888269
559 28 2     -2.593505  6.414219  -2.709064
560 28 2     -2.484265  5.810429  -1.919441
561 29 2     -2.378780  -2.316630  5.562381
562 29 2     -3.361274  -2.180322  5.435389
563 29 2     -3.356527  -2.105052  6.432541
564 29 2     -3.193930  -1.282500  5.887590
565 29 2     -3.202896  -1.285866  4.887636
566 29 2     -2.848787  -0.857713  5.719075
567 29 2     -3.639895  -1.274937  5.271779
568 29 2     -2.820484  -0.882596  4.853885
569 29 2     -2.739973  0.113649  4.822045
570 29 2     -2.995799  0.052504  3.857258
571 29 2     -2.891940  0.692723  3.096119
572 29 2     -3.272202  1.566209  3.400131
573 29 2     -3.564604  1.410195  2.456647
574 29 2     -3.477848  0.444389  2.212331
575 29 2     -4.354672  0.529643  2.685523
576 29 2     -3.614230  1.136329  2.396252
577 29 2     -3.749018  0.261683  1.930606
578 29 2     -4.140243  0.226087  1.010999
579 29 2     -4.142404  0.241568  0.011122
580 29 2     -3.626277  1.093393  -0.078357
581 30 2     4.269085  2.277986  -1.792261
582 30 2     3.788816  1.613917  -2.365282
583 30 2     4.627748  1.237131  -2.757999
584 30 2     3.754973  1.597825  -3.086881
585 30 2     4.072902  2.231925  -2.382014
586 30 2     3.353411  2.720148  -1.888079
587 30 2     3.827911  3.292381  -2.556958
588 30 2     3.838623  4.197170  -2.131233
589 30 2     3.561873  3.312316  -2.505991
590 30 2     2.752461  2.833908  -2.846546
591 30 2     2.345389  3.643019  -2.422718
592 30 2     2.060808  4.600823  -2.463034
593 30 2     2.502119  5.211734  -1.805741
594 30 2     3.476522  5.400580  -1.683773
595 30 2     3.836151  5.092036  -0.803167
596 30 2     3.623608  5.178799  -1.776459
597 30 2     4.460746  5.707061  -1.918371
598 30 2     3.469469  5.788938  -2.021645
599 30 2     3.584024  6.008767  -1.052856
600 30 2     2.694349  5.555818  -1.110430
601 31 2     3.791951  -4.725907  -5.351602
602 31 2     3.051049  -4.228139  -4.900723
603 31 2     3.056743  -4.531627  -5.853541
604 31 2     3.151173  -3.782499  -5.197882
605 31 2     2.159768  -3.659571  -5.153110
606 31 2     2.608787  -4.551212  -5.211063
607 31 2     2.984989  -4.188002  -4.358684
608 31 2     3.406017  -4.182637  -3.451652
609 31 2     2.594136  -3.599318  -3.427405
610 31 2     2.265011  -3.202874  -4.284440
611 31 2     2.322797  -4.096667  -3.839698
612 31 2     2.351307  -3.610983  -4.713368
613 31 2     2.370572  -3.886789  -3.752348
614 31 2     2.547288  -3.446009  -4.632396
615 31 2     2.936296  -4.367218  -4.639322
616 31 2     2.592968  -4.158501  -3.723591
617 31 2     2.372154  -3.338177  -3.196041
618 31 2     2.379096  -2.825833  -4.054794
619 31 2     2.491838  -3.639180  -3.484043
620 31 2     3.133166  -3.743658  -2.723923
621 32 2     5.860027  -2.548937  -0.171347
622 32 2     5.575044  -2.319670  -1.102057
623 32 2     5.941124  -2.121092  -0.192908
624 32 2     5.836378  -2.196153  -1.184570
625 32 2     6.401677  -1.375543  -1.100689
626 32 2     6.348810  -1.876115  -0.236609
627 32 2     6.449575  -2.144549  0.721404
628 32 2     5.511459  -1.854744  0.531791
629 32 2     5.445351  -0.868368  0.381151
630 32 2     4.789804  -0.123416  0.504857
631 32 2     5.103742  0.529361  1.194296
632 32 2     5.089461  0.546065  2.194054
633 32 2     5.092990  0.548392  1.194063
634 32 2     5.151064  0.521923  0.196102
635 32 2     5.890587  0.385840  -0.463130
636 32 2     5.671548  1.359751  -0.403809
637 32 2     6.123370  1.645118  0.441426
638 32 2     6.488308  0.748573  0.190372
639 32 2     6.683882  0.808999  1.169198
640 32 2     6.827833  0.340545  2.040879
641 33 2     1.032983  6.624817  -1.027367
642 33 2     0.396651  7.065689  -1.660386
643 33 2     0.778349  6.231575  -1.262190
644 33 2     0.803471  6.300003  -2.259529
645 33 2     0.523034  6.048640  -3.185905
646 33 2     -0.118665  6.693009  -3.601852
647 33 2     -0.419464  -7.361079  -3.480321
648 33 2     -0.722700  -7.175995  -2.545553
649 33 2     -0.658911  7.345223  -1.669939
650 33 2     -0.057643  7.468991  -0.880535
651 33 2     -0.767417  7.182986  -1.524291
652 33 2     -1.314982  6.429443  -1.160497
653 33 2     -1.370994  7.115029  -1.886330
654 33 2     -0.766854  6.700615  -1.205686
655 33 2     -0.768666  6.243259  -0.316405
656 33 2     -0.983245  7.168562  -0.003721
657 33 2     -0.616521  7.226049  0.924831
658 33 2     -0.184877  -7.468991  1.773761
659 33 2     -0.281994  -7.004998  2.654260
660 33 2     -0.350378  7.001384  2.564562
661 34 2     6.871215  5.577682  1.848139
662 34 2     6.915042  5.227624  0.912437
663 34 2     7.245667  4.291001  1.028298
664 34 2     6.285205  4.365886  1.296447
665 34 2     6.400791  4.353447  2.289666
666 34 2     6.651971  3.970266  3.178532
667 34 2     6.669035  3.899095  2.181213
668 34 2     6.386172  3.848814  3.139055
669 34 2     6.882865  4.225433  3.921010
670 34 2     6.353098  4.577591  4.692587
671 34 2     6.018083  4.959607  3.831293
672 34 2     5.588487  4.271949  4.416590
673 34 2     5.796821  3.402107  4.863773
674 34 2     6.256474  2.743714  4.267755
675 34 2     6.346697  2.068281  3.535874
676 34 2     7.073365  2.710476  3.779880
677 34 2     6.192808  2.489453  3.360632
678 34 2     6.842275  2.425289  4.118310
679 34 2     6.720384  2.572736  5.099840
680 34 2     7.136045  2.604807  4.190886
681 35 2     4.416077  3.049449  3.253760
682 35 2     4.073842  3.446681  2.402242
683 35 2     4.423319  2.969316  3.208461
684 35 2     4.250388  2.800017  4.178735
685 35 2     4.583464  2.832252  3.236387
686 35 2     4.097007  3.483068  2.653465
687 35 2     4.372089  2.666511  3.160972
688 35 2     4.667139  3.509132  3.611455
689 35 2     4.817831  3.814999  4.551528
690 35 2     5.266461  4.651767  4.865455