Generated by RARs stupid code

600 atoms
580 bonds
0 angles
0 dihedrals
0 impropers

2 atom types
1 bond types
0 angle types
0 dihedral types
0 improper types

-5.000000   5.000000 xlo xhi
-5.000000   5.000000 ylo yhi
-5.000000   5.000000 zlo zhi

Masses

1  1.000000
2 1.000000
Atoms

1 1 1     -5.000000  -5.000000  -5.000000
2 1 1     -4.000000  -5.000000  -5.000000
3 1 1     -3.000000  -5.000000  -5.000000
4 1 1     -2.000000  -5.000000  -5.000000
5 1 1     -1.000000  -5.000000  -5.000000
6 1 1     0.000000  -5.000000  -5.000000
7 1 1     1.000000  -5.000000  -5.000000
8 1 1     2.000000  -5.000000  -5.000000
9 1 1     3.000000  -5.000000  -5.000000
10 1 1     4.000000  -5.000000  -5.000000
11 1 1     4.000000  -4.000000  -5.000000
12 1 1     3.000000  -4.000000  -5.000000
13 1 1     2.000000  -4.000000  -5.000000
14 1 1     1.000000  -4.000000  -5.000000
15 1 1     0.000000  -4.000000  -5.000000
16 1 2     -1.000000  -4.000000  -5.000000
17 1 2     -2.000000  -4.000000  -5.000000
18 1 2     -3.000000  -4.000000  -5.000000
19 1 2     -4.000000  -4.000000  -5.000000
20 1 2     -4.000000  -3.000000  -5.000000
21 1 2     -3.000000  -3.000000  -5.000000
22 1 2     -2.000000  -3.000000  -5.000000
23 1 2     -1.000000  -3.000000  -5.000000
24 1 2     0.000000  -3.000000  -5.000000
25 1 2     1.000000  -3.000000  -5.000000
26 1 2     2.000000  -3.000000  -5.000000
27 1 2     3.000000  -3.000000  -5.000000
28 1 2     4.000000  -3.000000  -5.000000
29 1 2     4.000000  -2.000000  -5.000000
30 1 2     3.000000  -2.000000  -5.000000
31 2 1     2.000000  -2.000000  -5.000000
32 2 1     1.000000  -2.000000  -5.000000
33 2 1     0.000000  -2.000000  -5.000000
34 2 1     -1.000000  -2.000000  -5.000000
35 2 1     -2.000000  -2.000000  -5.000000
36 2 1     -3.000000  -2.000000  -5.000000
37 2 1     -4.000000  -2.000000  -5.000000
38 2 1     -4.000000  -1.000000  -5.000000
39 2 1     -3.000000  -1.000000  -5.000000
40 2 1     -2.000000  -1.000000  -5.000000
41 2 1     -1.000000  -1.000000  -5.000000
42 2 1     0.000000  -1.000000  -5.000000
43 2 1     1.000000  -1.000000  -5.000000
44 2 1     2.000000  -1.000000  -5.000000
45 2 1     3.000000  -1.000000  -5.000000
46 2 2     4.000000  -1.000000  -5.000000
47 2 2     4.000000  0.000000  -5.000000
48 2 2     3.000000  0.000000  -5.000000
49 2 2     2.000000  0.000000  -5.000000
50 2 2     1.000000  0.000000  -5.000000
51 2 2     0.000000  0.000000  -5.000000
52 2 2     -1.000000  0.000000  -5.000000
53 2 2     -2.000000  0.000000  -5.000000
54 2 2     -3.000000  0.000000  -5.000000
55 2 2     -4.000000  0.000000  -5.000000
56 2 2     -4.000000  1.000000  -5.000000
57 2 2     -3.000000  1.000000  -5.000000
58 2 2     -2.000000  1.000000  -5.000000
59 2 2     -1.000000  1.000000  -5.000000
60 2 2     0.000000  1.000000  -5.000000
61 3 1     1.000000  1.000000  -5.000000
62 3 1     2.000000  1.000000  -5.000000
63 3 1     3.000000  1.000000  -5.000000
64 3 1     4.000000  1.000000  -5.000000
65 3 1     4.000000  2.000000  -5.000000
66 3 1     3.000000  2.000000  -5.000000
67 3 1     2.000000  2.000000  -5.000000
68 3 1     1.000000  2.000000  -5.000000
69 3 1     0.000000  2.000000  -5.000000
70 3 1     -1.000000  2.000000  -5.000000
71 3 1     -2.000000  2.000000  -5.000000
72 3 1     -3.000000  2.000000  -5.000000
73 3 1     -4.000000  2.000000  -5.000000
74 3 1     -4.000000  3.000000  -5.000000
75 3 1     -3.000000  3.000000  -5.000000
76 3 2     -2.000000  3.000000  -5.000000
77 3 2     -1.000000  3.000000  -5.000000
78 3 2     0.000000  3.000000  -5.000000
79 3 2     1.000000  3.000000  -5.000000
80 3 2     2.000000  3.000000  -5.000000
81 3 2     3.000000  3.000000  -5.000000
82 3 2     4.000000  3.000000  -5.000000
83 3 2     4.000000  4.000000  -5.000000
84 3 2     3.000000  4.000000  -5.000000
85 3 2     2.000000  4.000000  -5.000000
86 3 2     1.000000  4.000000  -5.000000
87 3 2     0.000000  4.000000  -5.000000
88 3 2     -1.000000  4.000000  -5.000000
89 3 2     -2.000000  4.000000  -5.000000
90 3 2     -3.000000  4.000000  -5.000000
91 4 1     -4.000000  4.000000  -5.000000
92 4 1     -4.000000  4.000000  -4.000000
93 4 1     -3.000000  4.000000  -4.000000
94 4 1     -2.000000  4.000000  -4.000000
95 4 1     -1.000000  4.000000  -4.000000
96 4 1     0.000000  4.000000  -4.000000
97 4 1     1.000000  4.000000  -4.000000
98 4 1     2.000000  4.000000  -4.000000
99 4 1     3.000000  4.000000  -4.000000
100 4 1     4.000000  4.000000  -4.000000
101 4 1     4.000000  3.000000  -4.000000
102 4 1     3.000000  3.000000  -4.000000
103 4 1     2.000000  3.000000  -4.000000
104 4 1     1.000000  3.000000  -4.000000
105 4 1     0.000000  3.000000  -4.000000
106 4 2     -1.000000  3.000000  -4.000000
107 4 2     -2.000000  3.000000  -4.000000
108 4 2     -3.000000  3.000000  -4.000000
109 4 2     -4.000000  3.000000  -4.000000
110 4 2     -4.000000  2.000000  -4.000000
111 4 2     -3.000000  2.000000  -4.000000
112 4 2     -2.000000  2.000000  -4.000000
113 4 2     -1.000000  2.000000  -4.000000
114 4 2     0.000000  2.000000  -4.000000
115 4 2     1.000000  2.000000  -4.000000
116 4 2     2.000000  2.000000  -4.000000
117 4 2     3.000000  2.000000  -4.000000
118 4 2     4.000000  2.000000  -4.000000
119 4 2     4.000000  1.000000  -4.000000
120 4 2     3.000000  1.000000  -4.000000
121 5 1     2.000000  1.000000  -4.000000
122 5 1     1.000000  1.000000  -4.000000
123 5 1     0.000000  1.000000  -4.000000
124 5 1     -1.000000  1.000000  -4.000000
125 5 1     -2.000000  1.000000  -4.000000
126 5 1     -3.000000  1.000000  -4.000000
127 5 1     -4.000000  1.000000  -4.000000
128 5 1     -4.000000  0.000000  -4.000000
129 5 1     -3.000000  0.000000  -4.000000
130 5 1     -2.000000  0.000000  -4.000000
131 5 1     -1.000000  0.000000  -4.000000
132 5 1     0.000000  0.000000  -4.000000
133 5 1     1.000000  0.000000  -4.000000
134 5 1     2.000000  0.000000  -4.000000
135 5 1     3.000000  0.000000  -4.000000
136 5 2     4.000000  0.000000  -4.000000
137 5 2     4.000000  -1.000000  -4.000000
138 5 2     3.000000  -1.000000  -4.000000
139 5 2     2.000000  -1.000000  -4.000000
140 5 2     1.000000  -1.000000  -4.000000
141 5 2     0.000000  -1.000000  -4.000000
142 5 2     -1.000000  -1.000000  -4.000000
143 5 2     -2.000000  -1.000000  -4.000000
144 5 2     -3.000000  -1.000000  -4.000000
145 5 2     -4.000000  -1.000000  -4.000000
146 5 2     -4.000000  -2.000000  -4.000000
147 5 2     -3.000000  -2.000000  -4.000000
148 5 2     -2.000000  -2.000000  -4.000000
149 5 2     -1.000000  -2.000000  -4.000000
150 5 2     0.000000  -2.000000  -4.000000
151 6 1     1.000000  -2.000000  -4.000000
152 6 1     2.000000  -2.000000  -4.000000
153 6 1     3.000000  -2.000000  -4.000000
154 6 1     4.000000  -2.000000  -4.000000
155 6 1     4.000000  -3.000000  -4.000000
156 6 1     3.000000  -3.000000  -4.000000
157 6 1     2.000000  -3.000000  -4.000000
158 6 1     1.000000  -3.000000  -4.000000
159 6 1     0.000000  -3.000000  -4.000000
160 6 1     -1.000000  -3.000000  -4.000000
161 6 1     -2.000000  -3.000000  -4.000000
162 6 1     -3.000000  -3.000000  -4.000000
163 6 1     -4.000000  -3.000000  -4.000000
164 6 1     -4.000000  -4.000000  -4.000000
165 6 1     -3.000000  -4.000000  -4.000000
166 6 2     -2.000000  -4.000000  -4.000000
167 6 2     -1.000000  -4.000000  -4.000000
168 6 2     0.000000  -4.000000  -4.000000
169 6 2     1.000000  -4.000000  -4.000000
170 6 2     2.000000  -4.000000  -4.000000
171 6 2     3.000000  -4.000000  -4.000000
172 6 2     4.000000  -4.000000  -4.000000
173 6 2     4.000000  -4.000000  -3.000000
174 6 2     3.000000  -4.000000  -3.000000
175 6 2     2.000000  -4.000000  -3.000000
176 6 2     1.000000  -4.000000  -3.000000
177 6 2     0.000000  -4.000000  -3.000000
178 6 2     -1.000000  -4.000000  -3.000000
179 6 2     -2.000000  -4.000000  -3.000000
180 6 2     -3.000000  -4.000000  -3.000000
181 7 1     -4.000000  -4.000000  -3.000000
182 7 1     -4.000000  -3.000000  -3.000000
183 7 1     -3.000000  -3.000000  -3.000000
184 7 1     -2.000000  -3.000000  -3.000000
185 7 1     -1.000000  -3.000000  -3.000000
186 7 1     0.000000  -3.000000  -3.000000
187 7 1     1.000000  -3.000000  -3.000000
188 7 1     2.000000  -3.000000  -3.000000
189 7 1     3.000000  -3.000000  -3.000000
190 7 1     4.000000  -3.000000  -3.000000
191 7 1     4.000000  -2.000000  -3.000000
192 7 1     3.000000  -2.000000  -3.000000
193 7 1     2.000000  -2.000000  -3.000000
194 7 1     1.000000  -2.000000  -3.000000
195 7 1     0.000000  -2.000000  -3.000000
196 7 2     -1.000000  -2.000000  -3.000000
197 7 2     -2.000000  -2.000000  -3.000000
198 7 2     -3.000000  -2.000000  -3.000000
199 7 2     -4.000000  -2.000000  -3.000000
200 7 2     -4.000000  -1.000000  -3.000000
201 7 2     -3.000000  -1.000000  -3.000000
202 7 2     -2.000000  -1.000000  -3.000000
203 7 2     -1.000000  -1.000000  -3.000000
204 7 2     0.000000  -1.000000  -3.000000
205 7 2     1.000000  -1.000000  -3.000000
206 7 2     2.000000  -1.000000  -3.000000
207 7 2     3.000000  -1.000000  -3.000000
208 7 2     4.000000  -1.000000  -3.000000
209 7 2     4.000000  0.000000  -3.000000
210 7 2     3.000000  0.000000  -3.000000
211 8 1     2.000000  0.000000  -3.000000
212 8 1     1.000000  0.000000  -3.000000
213 8 1     0.000000  0.000000  -3.000000
214 8 1     -1.000000  0.000000  -3.000000
215 8 1     -2.000000  0.000000  -3.000000
216 8 1     -3.000000  0.000000  -3.000000
217 8 1     -4.000000  0.000000  -3.000000
218 8 1     -4.000000  1.000000  -3.000000
219 8 1     -3.000000  1.000000  -3.000000
220 8 1     -2.000000  1.000000  -3.000000
221 8 1     -1.000000  1.000000  -3.000000
222 8 1     0.000000  1.000000  -3.000000
223 8 1     1.000000  1.000000  -3.000000
224 8 1     2.000000  1.000000  -3.000000
225 8 1     3.000000  1.000000  -3.000000
226 8 2     4.000000  1.000000  -3.000000
227 8 2     4.000000  2.000000  -3.000000
228 8 2     3.000000  2.000000  -3.000000
229 8 2     2.000000  2.000000  -3.000000
230 8 2     1.000000  2.000000  -3.000000
231 8 2     0.000000  2.000000  -3.000000
232 8 2     -1.000000  2.000000  -3.000000
233 8 2     -2.000000  2.000000  -3.000000
234 8 2     -3.000000  2.000000  -3.000000
235 8 2     -4.000000  2.000000  -3.000000
236 8 2     -4.000000  3.000000  -3.000000
237 8 2     -3.000000  3.000000  -3.000000
238 8 2     -2.000000  3.000000  -3.000000
239 8 2     -1.000000  3.000000  -3.000000
240 8 2     0.000000  3.000000  -3.000000
241 9 1     1.000000  3.000000  -3.000000
242 9 1     2.000000  3.000000  -3.000000
243 9 1     3.000000  3.000000  -3.000000
244 9 1     4.000000  3.000000  -3.000000
245 9 1     4.000000  4.000000  -3.000000
246 9 1     3.000000  4.000000  -3.000000
247 9 1     2.000000  4.000000  -3.000000
248 9 1     1.000000  4.000000  -3.000000
249 9 1     0.000000  4.000000  -3.000000
250 9 1     -1.000000  4.000000  -3.000000
251 9 1     -2.000000  4.000000  -3.000000
252 9 1     -3.000000  4.000000  -3.000000
253 9 1     -4.000000  4.000000  -3.000000
254 9 1     -4.000000  4.000000  -2.000000
255 9 1     -3.000000  4.000000  -2.000000
256 9 2     -2.000000  4.000000  -2.000000
257 9 2     -1.000000  4.000000  -2.000000
258 9 2     0.000000  4.000000  -2.000000
259 9 2     1.000000  4.000000  -2.000000
260 9 2     2.000000  4.000000  -2.000000
261 9 2     3.000000  4.000000  -2.000000
262 9 2     4.000000  4.000000  -2.000000
263 9 2     4.000000  3.000000  -2.000000
264 9 2     3.000000  3.000000  -2.000000
265 9 2     2.000000  3.000000  -2.000000
266 9 2     1.000000  3.000000  -2.000000
267 9 2     0.000000  3.000000  -2.000000
268 9 2     -1.000000  3.000000  -2.000000
269 9 2     -2.000000  3.000000  -2.000000
270 9 2     -3.000000  3.000000  -2.000000
271 10 1     -4.000000  3.000000  -2.000000
272 10 1     -4.000000  2.000000  -2.000000
273 10 1     -3.000000  2.000000  -2.000000
274 10 1     -2.000000  2.000000  -2.000000
275 10 1     -1.000000  2.000000  -2.000000
276 10 1     0.000000  2.000000  -2.000000
277 10 1     1.000000  2.000000  -2.000000
278 10 1     2.000000  2.000000  -2.000000
279 10 1     3.000000  2.000000  -2.000000
280 10 1     4.000000  2.000000  -2.000000
281 10 1     4.000000  1.000000  -2.000000
282 10 1     3.000000  1.000000  -2.000000
283 10 1     2.000000  1.000000  -2.000000
284 10 1     1.000000  1.000000  -2.000000
285 10 1     0.000000  1.000000  -2.000000
286 10 2     -1.000000  1.000000  -2.000000
287 10 2     -2.000000  1.000000  -2.000000
288 10 2     -3.000000  1.000000  -2.000000
289 10 2     -4.000000  1.000000  -2.000000
290 10 2     -4.000000  0.000000  -2.000000
291 10 2     -3.000000  0.000000  -2.000000
292 10 2     -2.000000  0.000000  -2.000000
293 10 2     -1.000000  0.000000  -2.000000
294 10 2     0.000000  0.000000  -2.000000
295 10 2     1.000000  0.000000  -2.000000
296 10 2     2.000000  0.000000  -2.000000
297 10 2     3.000000  0.000000  -2.000000
298 10 2     4.000000  0.000000  -2.000000
299 10 2     4.000000  -1.000000  -2.000000
300 10 2     3.000000  -1.000000  -2.000000
301 11 1     2.000000  -1.000000  -2.000000
302 11 1     1.000000  -1.000000  -2.000000
303 11 1     0.000000  -1.000000  -2.000000
304 11 1     -1.000000  -1.000000  -2.000000
305 11 1     -2.000000  -1.000000  -2.000000
306 11 1     -3.000000  -1.000000  -2.000000
307 11 1     -4.000000  -1.000000  -2.000000
308 11 1     -4.000000  -2.000000  -2.000000
309 11 1     -3.000000  -2.000000  -2.000000
310 11 1     -2.000000  -2.000000  -2.000000
311 11 1     -1.000000  -2.000000  -2.000000
312 11 1     0.000000  -2.000000  -2.000000
313 11 1     1.000000  -2.000000  -2.000000
314 11 1     2.000000  -2.000000  -2.000000
315 11 1     3.000000  -2.000000  -2.000000
316 11 2     4.000000  -2.000000  -2.000000
317 11 2     4.000000  -3.000000  -2.000000
318 11 2     3.000000  -3.000000  -2.000000
319 11 2     2.000000  -3.000000  -2.000000
320 11 2     1.000000  -3.000000  -2.000000
321 11 2     0.000000  -3.000000  -2.000000
322 11 2     -1.000000  -3.000000  -2.000000
323 11 2     -2.000000  -3.000000  -2.000000
324 11 2     -3.000000  -3.000000  -2.000000
325 11 2     -4.000000  -3.000000  -2.000000
326 11 2     -4.000000  -4.000000  -2.000000
327 11 2     -3.000000  -4.000000  -2.000000
328 11 2     -2.000000  -4.000000  -2.000000
329 11 2     -1.000000  -4.000000  -2.000000
330 11 2     0.000000  -4.000000  -2.000000
331 12 1     1.000000  -4.000000  -2.000000
332 12 1     2.000000  -4.000000  -2.000000
333 12 1     3.000000  -4.000000  -2.000000
334 12 1     4.000000  -4.000000  -2.000000
335 12 1     4.000000  -4.000000  -1.000000
336 12 1     3.000000  -4.000000  -1.000000
337 12 1     2.000000  -4.000000  -1.000000
338 12 1     1.000000  -4.000000  -1.000000
339 12 1     0.000000  -4.000000  -1.000000
340 12 1     -1.000000  -4.000000  -1.000000
341 12 1     -2.000000  -4.000000  -1.000000
342 12 1     -3.000000  -4.000000  -1.000000
343 12 1     -4.000000  -4.000000  -1.000000
344 12 1     -4.000000  -3.000000  -1.000000
345 12 1     -3.000000  -3.000000  -1.000000
346 12 2     -2.000000  -3.000000  -1.000000
347 12 2     -1.000000  -3.000000  -1.000000
348 12 2     0.000000  -3.000000  -1.000000
349 12 2     1.000000  -3.000000  -1.000000
350 12 2     2.000000  -3.000000  -1.000000
351 12 2     3.000000  -3.000000  -1.000000
352 12 2     4.000000  -3.000000  -1.000000
353 12 2     4.000000  -2.000000  -1.000000
354 12 2     3.000000  -2.000000  -1.000000
355 12 2     2.000000  -2.000000  -1.000000
356 12 2     1.000000  -2.000000  -1.000000
357 12 2     0.000000  -2.000000  -1.000000
358 12 2     -1.000000  -2.000000  -1.000000
359 12 2     -2.000000  -2.000000  -1.000000
360 12 2     -3.000000  -2.000000  -1.000000
361 13 1     -4.000000  -2.000000  -1.000000
362 13 1     -4.000000  -1.000000  -1.000000
363 13 1     -3.000000  -1.000000  -1.000000
364 13 1     -2.000000  -1.000000  -1.000000
365 13 1     -1.000000  -1.000000  -1.000000
366 13 1     0.000000  -1.000000  -1.000000
367 13 1     1.000000  -1.000000  -1.000000
368 13 1     2.000000  -1.000000  -1.000000
369 13 1     3.000000  -1.000000  -1.000000
370 13 1     4.000000  -1.000000  -1.000000
371 13 1     4.000000  0.000000  -1.000000
372 13 1     3.000000  0.000000  -1.000000
373 13 1     2.000000  0.000000  -1.000000
374 13 1     1.000000  0.000000  -1.000000
375 13 1     0.000000  0.000000  -1.000000
376 13 2     -1.000000  0.000000  -1.000000
377 13 2     -2.000000  0.000000  -1.000000
378 13 2     -3.000000  0.000000  -1.000000
379 13 2     -4.000000  0.000000  -1.000000
380 13 2     -4.000000  1.000000  -1.000000
381 13 2     -3.000000  1.000000  -1.000000
382 13 2     -2.000000  1.000000  -1.000000
383 13 2     -1.000000  1.000000  -1.000000
384 13 2     0.000000  1.000000  -1.000000
385 13 2     1.000000  1.000000  -1.000000
386 13 2     2.000000  1.000000  -1.000000
387 13 2     3.000000  1.000000  -1.000000
388 13 2     4.000000  1.000000  -1.000000
389 13 2     4.000000  2.000000  -1.000000
390 13 2     3.000000  2.000000  -1.000000
391 14 1     2.000000  2.000000  -1.000000
392 14 1     1.000000  2.000000  -1.000000
393 14 1     0.000000  2.000000  -1.000000
394 14 1     -1.000000  2.000000  -1.000000
395 14 1     -2.000000  2.000000  -1.000000
396 14 1     -3.000000  2.000000  -1.000000
397 14 1     -4.000000  2.000000  -1.000000
398 14 1     -4.000000  3.000000  -1.000000
399 14 1     -3.000000  3.000000  -1.000000
400 14 1     -2.000000  3.000000  -1.000000
401 14 1     -1.000000  3.000000  -1.000000
402 14 1     0.000000  3.000000  -1.000000
403 14 1     1.000000  3.000000  -1.000000
404 14 1     2.000000  3.000000  -1.000000
405 14 1     3.000000  3.000000  -1.000000
406 14 2     4.000000  3.000000  -1.000000
407 14 2     4.000000  4.000000  -1.000000
408 14 2     3.000000  4.000000  -1.000000
409 14 2     2.000000  4.000000  -1.000000
410 14 2     1.000000  4.000000  -1.000000
411 14 2     0.000000  4.000000  -1.000000
412 14 2     -1.000000  4.000000  -1.000000
413 14 2     -2.000000  4.000000  -1.000000
414 14 2     -3.000000  4.000000  -1.000000
415 14 2     -4.000000  4.000000  -1.000000
416 14 2     -4.000000  4.000000  0.000000
417 14 2     -3.000000  4.000000  0.000000
418 14 2     -2.000000  4.000000  0.000000
419 14 2     -1.000000  4.000000  0.000000
420 14 2     0.000000  4.000000  0.000000
421 15 1     1.000000  4.000000  0.000000
422 15 1     2.000000  4.000000  0.000000
423 15 1     3.000000  4.000000  0.000000
424 15 1     4.000000  4.000000  0.000000
425 15 1     4.000000  3.000000  0.000000
426 15 1     3.000000  3.000000  0.000000
427 15 1     2.000000  3.000000  0.000000
428 15 1     1.000000  3.000000  0.000000
429 15 1     0.000000  3.000000  0.000000
430 15 1     -1.000000  3.000000  0.000000
431 15 1     -2.000000  3.000000  0.000000
432 15 1     -3.000000  3.000000  0.000000
433 15 1     -4.000000  3.000000  0.000000
434 15 1     -4.000000  2.000000  0.000000
435 15 1     -3.000000  2.000000  0.000000
436 15 2     -2.000000  2.000000  0.000000
437 15 2     -1.000000  2.000000  0.000000
438 15 2     0.000000  2.000000  0.000000
439 15 2     1.000000  2.000000  0.000000
440 15 2     2.000000  2.000000  0.000000
441 15 2     3.000000  2.000000  0.000000
442 15 2     4.000000  2.000000  0.000000
443 15 2     4.000000  1.000000  0.000000
444 15 2     3.000000  1.000000  0.000000
445 15 2     2.000000  1.000000  0.000000
446 15 2     1.000000  1.000000  0.000000
447 15 2     0.000000  1.000000  0.000000
448 15 2     -1.000000  1.000000  0.000000
449 15 2     -2.000000  1.000000  0.000000
450 15 2     -3.000000  1.000000  0.000000
451 16 1     -4.000000  1.000000  0.000000
452 16 1     -4.000000  0.000000  0.000000
453 16 1     -3.000000  0.000000  0.000000
454 16 1     -2.000000  0.000000  0.000000
455 16 1     -1.000000  0.000000  0.000000
456 16 1     0.000000  0.000000  0.000000
457 16 1     1.000000  0.000000  0.000000
458 16 1     2.000000  0.000000  0.000000
459 16 1     3.000000  0.000000  0.000000
460 16 1     4.000000  0.000000  0.000000
461 16 1     4.000000  -1.000000  0.000000
462 16 1     3.000000  -1.000000  0.000000
463 16 1     2.000000  -1.000000  0.000000
464 16 1     1.000000  -1.000000  0.000000
465 16 1     0.000000  -1.000000  0.000000
466 16 2     -1.000000  -1.000000  0.000000
467 16 2     -2.000000  -1.000000  0.000000
468 16 2     -3.000000  -1.000000  0.000000
469 16 2     -4.000000  -1.000000  0.000000
470 16 2     -4.000000  -2.000000  0.000000
471 16 2     -3.000000  -2.000000  0.000000
472 16 2     -2.000000  -2.000000  0.000000
473 16 2     -1.000000  -2.000000  0.000000
474 16 2     0.000000  -2.000000  0.000000
475 16 2     1.000000  -2.000000  0.000000
476 16 2     2.000000  -2.000000  0.000000
477 16 2     3.000000  -2.000000  0.000000
478 16 2     4.000000  -2.000000  0.000000
479 16 2     4.000000  -3.000000  0.000000
480 16 2     3.000000  -3.000000  0.000000
481 17 1     2.000000  -3.000000  0.000000
482 17 1     1.000000  -3.000000  0.000000
483 17 1     0.000000  -3.000000  0.000000
484 17 1     -1.000000  -3.000000  0.000000
485 17 1     -2.000000  -3.000000  0.000000
486 17 1     -3.000000  -3.000000  0.000000
487 17 1     -4.000000  -3.000000  0.000000
488 17 1     -4.000000  -4.000000  0.000000
489 17 1     -3.000000  -4.000000  0.000000
490 17 1     -2.000000  -4.000000  0.000000
491 17 1     -1.000000  -4.000000  0.000000
492 17 1     0.000000  -4.000000  0.000000
493 17 1     1.000000  -4.000000  0.000000
494 17 1     2.000000  -4.000000  0.000000
495 17 1     3.000000  -4.000000  0.000000
496 17 2     4.000000  -4.000000  0.000000
497 17 2     4.000000  -4.000000  1.000000
498 17 2     3.000000  -4.000000  1.000000
499 17 2     2.000000  -4.000000  1.000000
500 17 2     1.000000  -4.000000  1.000000
501 17 2     0.000000  -4.000000  1.000000
502 17 2     -1.000000  -4.000000  1.000000
503 17 2     -2.000000  -4.000000  1.000000
504 17 2     -3.000000  -4.000000  1.000000
505 17 2     -4.000000  -4.000000  1.000000
506 17 2     -4.000000  -3.000000  1.000000
507 17 2     -3.000000  -3.000000  1.000000
508 17 2     -2.000000  -3.000000  1.000000
509 17 2     -1.000000  -3.000000  1.000000
510 17 2     0.000000  -3.000000  1.000000
511 18 1     1.000000  -3.000000  1.000000
512 18 1     2.000000  -3.000000  1.000000
513 18 1     3.000000  -3.000000  1.000000
514 18 1     4.000000  -3.000000  1.000000
515 18 1     4.000000  -2.000000  1.000000
516 18 1     3.000000  -2.000000  1.000000
517 18 1     2.000000  -2.000000  1.000000
518 18 1     1.000000  -2.000000  1.000000
519 18 1     0.000000  -2.000000  1.000000
520 18 1     -1.000000  -2.000000  1.000000
521 18 1     -2.000000  -2.000000  1.000000
522 18 1     -3.000000  -2.000000  1.000000
523 18 1     -4.000000  -2.000000  1.000000
524 18 1     -4.000000  -1.000000  1.000000
525 18 1     -3.000000  -1.000000  1.000000
526 18 2     -2.000000  -1.000000  1.000000
527 18 2     -1.000000  -1.000000  1.000000
528 18 2     0.000000  -1.000000  1.000000
529 18 2     1.000000  -1.000000  1.000000
530 18 2     2.000000  -1.000000  1.000000
531 18 2     3.000000  -1.000000  1.000000
532 18 2     4.000000  -1.000000  1.000000
533 18 2     4.000000  0.000000  1.000000
534 18 2     3.000000  0.000000  1.000000
535 18 2     2.000000  0.000000  1.000000
536 18 2     1.000000  0.000000  1.000000
537 18 2     0.000000  0.000000  1.000000
538 18 2     -1.000000  0.000000  1.000000
539 18 2     -2.000000  0.000000  1.000000
540 18 2     -3.000000  0.000000  1.000000
541 19 1     -4.000000  0.000000  1.000000
542 19 1     -4.000000  1.000000  1.000000
543 19 1     -3.000000  1.000000  1.000000
544 19 1     -2.000000  1.000000  1.000000
545 19 1     -1.000000  1.000000  1.000000
546 19 1     0.000000  1.000000  1.000000
547 19 1     1.000000  1.000000  1.000000
548 19 1     2.000000  1.000000  1.000000
549 19 1     3.000000  1.000000  1.000000
550 19 1     4.000000  1.000000  1.000000
551 19 1     4.000000  2.000000  1.000000
552 19 1     3.000000  2.000000  1.000000
553 19 1     2.000000  2.000000  1.000000
554 19 1     1.000000  2.000000  1.000000
555 19 1     0.000000  2.000000  1.000000
556 19 2     -1.000000  2.000000  1.000000
557 19 2     -2.000000  2.000000  1.000000
558 19 2     -3.000000  2.000000  1.000000
559 19 2     -4.000000  2.000000  1.000000
560 19 2     -4.000000  3.000000  1.000000
561 19 2     -3.000000  3.000000  1.000000
562 19 2     -2.000000  3.000000  1.000000
563 19 2     -1.000000  3.000000  1.000000
564 19 2     0.000000  3.000000  1.000000
565 19 2     1.000000  3.000000  1.000000
566 19 2     2.000000  3.000000  1.000000
567 19 2     3.000000  3.000000  1.000000
568 19 2     4.000000  3.000000  1.000000
569 19 2     4.000000  4.000000  1.000000
570 19 2     3.000000  4.000000  1.000000
571 20 1     2.000000  4.000000  1.000000
572 20 1     1.000000  4.000000  1.000000
573 20 1     0.000000  4.000000  1.000000
574 20 1     -1.000000  4.000000  1.000000
575 20 1     -2.000000  4.000000  1.000000
576 20 1     -3.000000  4.000000  1.000000
577 20 1     -4.000000  4.000000  1.000000
578 20 1     -4.000000  4.000000  2.000000
579 20 1     -3.000000  4.000000  2.000000
580 20 1     -2.000000  4.000000  2.000000
581 20 1     -1.000000  4.000000  2.000000
582 20 1     0.000000  4.000000  2.000000
583 20 1     1.000000  4.000000  2.000000
584 20 1     2.000000  4.000000  2.000000
585 20 1     3.000000  4.000000  2.000000
586 20 2     4.000000  4.000000  2.000000
587 20 2     4.000000  3.000000  2.000000
588 20 2     3.000000  3.000000  2.000000
589 20 2     2.000000  3.000000  2.000000
590 20 2     1.000000  3.000000  2.000000
591 20 2     0.000000  3.000000  2.000000
592 20 2     -1.000000  3.000000  2.000000
593 20 2     -2.000000  3.000000  2.000000
594 20 2     -3.000000  3.000000  2.000000
595 20 2     -4.000000  3.000000  2.000000
596 20 2     -4.000000  2.000000  2.000000
597 20 2     -3.000000  2.000000  2.000000
598 20 2     -2.000000  2.000000  2.000000
599 20 2     -1.000000  2.000000  2.000000
600 20 2     0.000000  2.000000  2.000000

Bonds

1  1  1  2
2  1  2  3
3  1  3  4
4  1  4  5
5  1  5  6
6  1  6  7
7  1  7  8
8  1  8  9
9  1  9  10
10  1  10  11
11  1  11  12
12  1  12  13
13  1  13  14
14  1  14  15
15  1  15  16
16  1  16  17
17  1  17  18
18  1  18  19
19  1  19  20
20  1  20  21
21  1  21  22
22  1  22  23
23  1  23  24
24  1  24  25
25  1  25  26
26  1  26  27
27  1  27  28
28  1  28  29
29  1  29  30
30  1  31  32
31  1  32  33
32  1  33  34
33  1  34  35
34  1  35  36
35  1  36  37
36  1  37  38
37  1  38  39
38  1  39  40
39  1  40  41
40  1  41  42
41  1  42  43
42  1  43  44
43  1  44  45
44  1  45  46
45  1  46  47
46  1  47  48
47  1  48  49
48  1  49  50
49  1  50  51
50  1  51  52
51  1  52  53
52  1  53  54
53  1  54  55
54  1  55  56
55  1  56  57
56  1  57  58
57  1  58  59
58  1  59  60
59  1  61  62
60  1  62  63
61  1  63  64
62  1  64  65
63  1  65  66
64  1  66  67
65  1  67  68
66  1  68  69
67  1  69  70
68  1  70  71
69  1  71  72
70  1  72  73
71  1  73  74
72  1  74  75
73  1  75  76
74  1  76  77
75  1  77  78
76  1  78  79
77  1  79  80
78  1  80  81
79  1  81  82
80  1  82  83
81  1  83  84
82  1  84  85
83  1  85  86
84  1  86  87
85  1  87  88
86  1  88  89
87  1  89  90
88  1  91  92
89  1  92  93
90  1  93  94
91  1  94  95
92  1  95  96
93  1  96  97
94  1  97  98
95  1  98  99
96  1  99  100
97  1  100  101
98  1  101  102
99  1  102  103
100  1  103  104
101  1  104  105
102  1  105  106
103  1  106  107
104  1  107  108
105  1  108  109
106  1  109  110
107  1  110  111
108  1  111  112
109  1  112  113
110  1  113  114
111  1  114  115
112  1  115  116
113  1  116  117
114  1  117  118
115  1  118  119
116  1  119  120
117  1  121  122
118  1  122  123
119  1  123  124
120  1  124  125
121  1  125  126
122  1  126  127
123  1  127  128
124  1  128  129
125  1  129  130
126  1  130  131
127  1  131  132
128  1  132  133
129  1  133  134
130  1  134  135
131  1  135  136
132  1  136  137
133  1  137  138
134  1  138  139
135  1  139  140
136  1  140  141
137  1  141  142
138  1  142  143
139  1  143  144
140  1  144  145
141  1  145  146
142  1  146  147
143  1  147  148
144  1  148  149
145  1  149  150
146  1  151  152
147  1  152  153
148  1  153  154
149  1  154  155
150  1  155  156
151  1  156  157
152  1  157  158
153  1  158  159
154  1  159  160
155  1  160  161
156  1  161  162
157  1  162  163
158  1  163  164
159  1  164  165
160  1  165  166
161  1  166  167
162  1  167  168
163  1  168  169
164  1  169  170
165  1  170  171
166  1  171  172
167  1  172  173
168  1  173  174
169  1  174  175
170  1  175  176
171  1  176  177
172  1  177  178
173  1  178  179
174  1  179  180
175  1  181  182
176  1  182  183
177  1  183  184
178  1  184  185
179  1  185  186
180  1  186  187
181  1  187  188
182  1  188  189
183  1  189  190
184  1  190  191
185  1  191  192
186  1  192  193
187  1  193  194
188  1  194  195
189  1  195  196
190  1  196  197
191  1  197  198
192  1  198  199
193  1  199  200
194  1  200  201
195  1  201  202
196  1  202  203
197  1  203  204
198  1  204  205
199  1  205  206
200  1  206  207
201  1  207  208
202  1  208  209
203  1  209  210
204  1  211  212
205  1  212  213
206  1  213  214
207  1  214  215
208  1  215  216
209  1  216  217
210  1  217  218
211  1  218  219
212  1  219  220
213  1  220  221
214  1  221  222
215  1  222  223
216  1  223  224
217  1  224  225
218  1  225  226
219  1  226  227
220  1  227  228
221  1  228  229
222  1  229  230
223  1  230  231
224  1  231  232
225  1  232  233
226  1  233  234
227  1  234  235
228  1  235  236
229  1  236  237
230  1  237  238
231  1  238  239
232  1  239  240
233  1  241  242
234  1  242  243
235  1  243  244
236  1  244  245
237  1  245  246
238  1  246  247
239  1  247  248
240  1  248  249
241  1  249  250
242  1  250  251
243  1  251  252
244  1  252  253
245  1  253  254
246  1  254  255
247  1  255  256
248  1  256  257
249  1  257  258
250  1  258  259