Generated by RARs stupid code

6 atoms
5 bonds
0 angles
0 dihedrals
0 impropers

2 atom types
1 bond types
0 angle types
0 dihedral types
0 improper types

0.000000   7.000000 xlo xhi
0.000000   5.000000 ylo yhi
0.000000   5.000000 zlo zhi

Masses

1  1.000000
2  1.000000
Atoms

1 1 1     02.000000  01.000000  00.500000
2 1 1     01.000000  02.000000  00.500000
3 1 1     01.000000  02.000000  01.000000
4 1 2     03.578796  02.000000  01.150000
5 1 2     03.750000  02.000000  01.300000
6 1 2     4.000000  02.000000  01.450000

Bonds

1  1  1  2
2  1  2  3
3  1  3  4
4  1  4  5
5  1  5  6
