LAMMPS (5 Feb 2018)
OMP_NUM_THREADS environment is not set. Defaulting to 1 thread. (../comm.cpp:90)
  using 1 OpenMP thread(s) per MPI task
# Initialization
units           metal
boundary        p p p
atom_style      full
processors      * * 1     # domain decomposition over x and y

# System and atom definition
# we use 2 atom types so that inter- and intra-layer
# interactions can be specified separately
read_data       gr_hBN_Cstack_2L_noH.data
  orthogonal box = (0 0 0) to (44.583 42.9 100)
  2 by 2 by 1 MPI processor grid
  reading atoms ...
  1440 atoms
  0 = max # of 1-2 neighbors
  0 = max # of 1-3 neighbors
  0 = max # of 1-4 neighbors
  1 = max # of special neighbors
mass            1 10.8110   # boron    mass (g/mole) | membrane
mass            2 14.0067   # nitrogen mass (g/mole) | membrane
mass            3 12.0107   # carbon   mass (g/mole) | adsorbate
# Separate atom groups
group membrane  type 1 2
720 atoms in group membrane
group adsorbate type 3
720 atoms in group adsorbate

######################## Potential defition ########################
pair_style  hybrid/overlay rebo tersoff ILP/graphene/hBN 16.0 coul/shield 16.0
####################################################################
pair_coeff  * * rebo               CH.airebo     NULL NULL C    # chemical
Reading potential file CH.airebo with DATE: 2011-10-25
pair_coeff  * * tersoff            BNC.tersoff   B    N    NULL # chemical
Reading potential file BNC.tersoff with DATE: 2013-03-21
pair_coeff  * * ILP/graphene/hBN   BNCH-old.ILP  B    N    C    # long range
pair_coeff  1 1 coul/shield 0.70
pair_coeff  1 2 coul/shield 0.69498201415576216335
pair_coeff  2 2 coul/shield 0.69
####################################################################
# Neighbor update settings
neighbor        2.0 bin
neigh_modify    every 1
neigh_modify    delay 0
neigh_modify    check yes

# calculate the COM
variable        adsxcom equal xcm(adsorbate,x)
variable        adsycom equal xcm(adsorbate,y)
variable        adszcom equal xcm(adsorbate,z)
variable        adsvxcom equal vcm(adsorbate,x)
variable        adsvycom equal vcm(adsorbate,y)
variable        adsvzcom equal vcm(adsorbate,z)

#### Simulation settings ####
timestep  0.001
velocity  all create 300.0 12345
fix       thermostat all nve

compute   0 all pair rebo
compute   1 all pair tersoff
compute   2 all pair ILP/graphene/hBN
compute   3 all pair coul/shield
variable  REBO     equal  c_0
variable  Tersoff  equal  c_1
variable  EILP     equal  c_2
variable  Ecoul    equal  c_3

# Calculate the pair potential between the substrate and slider
compute         sldsub adsorbate group/group membrane
variable        Evdw equal c_sldsub

############################

# Output
thermo          100
thermo_style    custom step cpu etotal pe ke v_Evdw v_Tersoff v_REBO v_EILP v_Ecoul temp v_adsxcom v_adsycom v_adszcom v_adsvxcom v_adsvycom v_adsvzcom
thermo_modify   line one format float %.16f

dump            1 all custom 1000 traj.lammpstrj id mol type xu yu zu
dump_modify     1 format line "%7d %3d %3d %15.10g %15.10g %15.10g" flush yes

###### Run molecular dynamics ######
run 100000
Neighbor list info ...
  update every 1 steps, delay 0 steps, check yes
  max neighbors/atom: 2000, page size: 100000
  master list distance cutoff = 18
  ghost atom cutoff = 18
  binsize = 9, bins = 5 5 12
  7 neighbor lists, perpetual/occasional/extra = 6 1 0
  (1) pair rebo, perpetual, skip from (3)
      attributes: full, newton on, ghost
      pair build: skip/ghost
      stencil: none
      bin: none
  (2) pair tersoff, perpetual, skip from (6)
      attributes: full, newton on
      pair build: skip
      stencil: none
      bin: none
  (3) pair ILP/graphene/hBN, perpetual
      attributes: full, newton on, ghost
      pair build: full/bin/ghost
      stencil: full/ghost/bin/3d
      bin: standard
  (4) pair coul/shield, perpetual, half/full from (2)
      attributes: half, newton on
      pair build: halffull/newton/skip
      stencil: none
      bin: none
  (5) compute group/group, occasional, copy from (7)
      attributes: half, newton on
      pair build: copy
      stencil: none
      bin: none
  (6) neighbor class addition, perpetual, copy from (3)
      attributes: full, newton on
      pair build: copy
      stencil: none
      bin: none
  (7) neighbor class addition, perpetual, half/full from (6)
      attributes: half, newton on
      pair build: halffull/newton
      stencil: none
      bin: none
Per MPI rank memory allocation (min/avg/max) = 15.52 | 15.52 | 15.52 Mbytes
Step CPU TotEng PotEng KinEng v_Evdw v_Tersoff v_REBO v_EILP v_Ecoul Temp v_adsxcom v_adsycom v_adszcom v_adsvxcom v_adsvycom v_adsvzcom 
       0 0.0000000000000000 -10708.4531746011361975 -10764.2547791976357985 55.8016045965000060 -66.8250335415468726 -5401.7347845703015992 -5322.2780762735364988 -40.2419183537966205 0.0000000000000000 300.0000000000000000 21.6722857297055427 22.1649999999999601 3.3299999999999823 0.1682661410338235 -0.0842226772407628 0.1056563754793530 
     100 1.4861709080287255 -10708.2491256386783789 -10738.4532793285252410 30.2041536898466667 -68.8603937785331652 -5389.4304136166992976 -5309.6361134033404596 -39.3867523084863294 0.0000000000000000 162.3832535368049435 21.6879886705905811 22.1574778199177764 3.3223279482265395 0.1346509596295991 -0.0580689193941861 -0.1274433614211327 
     200 2.9137014060397632 -10708.1985754489687679 -10736.7142682476842310 28.5156927987159143 -70.0276479250658497 -5388.8677096500996413 -5308.3263464523788571 -39.5202121452049226 0.0000000000000000 153.3057678443774421 21.6968427595620810 22.1541506319529979 3.3143666142049790 0.0334706445395897 -0.0081639881661114 -0.0055006320589165 
     300 4.3658994309953414 -10708.1878214115895389 -10736.9033486636162706 28.7155272520258933 -68.2422175765387067 -5388.5952548022005431 -5308.9505338445287634 -39.3575600168867226 0.0000000000000000 154.3801157314407817 21.6939171741272574 22.1551483320886788 3.3251666345560014 -0.0896064591312053 0.0248921781067055 0.1717740195972095 
     400 5.7854100230033509 -10708.2036103906084463 -10738.2295882994130807 30.0259779088045029 -67.4993928655289892 -5389.4510311344674847 -5309.1985887571336207 -39.5799684078113003 0.0000000000000000 161.4253467758942975 21.6806789605448884 22.1589742804207503 3.3300374169536315 -0.1615300495994539 0.0532638208771711 -0.1185426799419381 
     500 7.2681881220196374 -10708.1853082160723716 -10736.0245173060247907 27.8392090899521598 -69.9737746636475890 -5387.9379921501149511 -5308.5551693329143745 -39.5313558229953514 0.0000000000000000 149.6688632410668731 21.6641276775695886 22.1655659010533874 3.3143210751318137 -0.1579504333920775 0.0766822603928680 -0.1154029266484772 
     600 8.6987234640400857 -10708.1781001285326056 -10736.4254568395626848 28.2473567110297346 -69.9368770272967453 -5388.3515507736447034 -5308.6700567475181742 -39.4038493184001197 0.0000000000000000 151.8631421907254833 21.6516789999432824 22.1733266591586506 3.3149997184280156 -0.0805825342720196 0.0684349609096336 0.1419617624418829 
     700 10.3793026990024373 -10708.1867253590044129 -10736.6143955088427902 28.4276701498385513 -67.1597096579427699 -5387.8570063253209810 -5309.0676141639723937 -39.6897750195478523 0.0000000000000000 152.8325414048483992 21.6489884053739274 22.1774523944787170 3.3315351815569931 0.0259900263273190 0.0094570834912734 0.0707953687737380 
     800 11.8149554400006309 -10708.1733385054776591 -10736.0277775930444477 27.8544390875668135 -68.6354557276259953 -5388.1933954710802936 -5308.5094712719383097 -39.3249108500238762 0.0000000000000000 149.7507425941327028 21.6565725155815656 22.1751617515450548 3.3227650179672770 0.1222442822660201 -0.0531420670135626 -0.1677749692582938 
     900 13.2324638250283897 -10708.1827888041989354 -10737.2646739167503256 29.0818851125522038 -70.2218493215918329 -5387.9824857334970147 -5309.6527953487966442 -39.6293928344559845 0.0000000000000000 156.3497250097514950 21.6716950832551554 22.1680989333593601 3.3131455845914846 0.1650154384686102 -0.0820901424701169 0.0072049299559001 
    1000 14.6628427760442719 -10708.1804322657098965 -10736.1966428008945513 28.0162105351840935 -68.3753745517145006 -5388.2611029662393776 -5308.4521913186626989 -39.4833485159933559 0.0000000000000000 150.6204565501401191 21.6865468141464888 22.1602434319145623 3.3246621698642129 0.1213363700861869 -0.0688593023449535 0.1701174943046191 
    1100 16.0943796920473687 -10708.1929109369593789 -10737.5322844540805818 29.3393735171205527 -67.3520049091091835 -5389.0000531304558535 -5309.1265075277333381 -39.4057237958907791 0.0000000000000000 157.7340314634650156 21.6948084566085697 22.1549926275558917 3.3302676829022326 0.0388267547885482 -0.0333523036210389 -0.0862867980778089 
    1200 17.4968243950279430 -10708.1883680443006597 -10736.7117350944463396 28.5233670501460530 -69.9191931842472911 -5388.1986808120163914 -5308.8132870137833379 -39.6997672686466672 0.0000000000000000 153.3470260742381868 21.6932935841932348 22.1541856214364792 3.3147305034508112 -0.0715026830165346 0.0211280666072023 -0.1437905627391044 
    1300 18.9069691229960881 -10708.1753070340419072 -10736.1965958815744671 28.0212888475318103 -70.2391440447474764 -5387.7943706454680068 -5309.0177688494441099 -39.3844563866607871 0.0000000000000000 150.6477585195965787 21.6817954330019660 22.1590373145615125 3.3132100641046631 -0.1468102281730520 0.0688870112436388 0.1446744984237824 
    1400 20.3351483370061032 -10708.1817429108341457 -10736.9243316773936385 28.7425887665601394 -67.0216653632163428 -5388.2710651562174462 -5309.0898102309492970 -39.5634562902266964 0.0000000000000000 154.5256035613872143 21.6660478853775160 22.1657463424745202 3.3319672572308239 -0.1572354460784853 0.0598392164617156 0.0998183587324003 
    1500 21.7733753220527433 -10708.1744136914730916 -10735.7854332655278995 27.6110195740551028 -68.3916777807588545 -5387.3855215556741314 -5308.9743174335826552 -39.4255942762709779 0.0000000000000000 148.4420731646142997 21.6525935829686844 22.1707708357250510 3.3252833605985397 -0.1010854297035522 0.0432045619732538 -0.1639147396947071 
    1600 23.3542949880356900 -10708.1753180385967426 -10736.2417979825768271 28.0664799439801271 -70.1856977667047062 -5387.9331560283308136 -5308.8049008169618901 -39.5037411372824607 0.0000000000000000 150.8907144172365804 21.6478528709316578 22.1744223633146937 3.3127589595611484 0.0102738988736312 0.0245950887805499 -0.0392212447442811 
    1700 24.7734329910017550 -10708.1694218188094965 -10735.7610414158207277 27.5916195970119631 -68.9459833378432023 -5387.5173850087739993 -5308.6177003063894517 -39.6259561006579162 0.0000000000000000 148.3377752119832564 21.6547146956770753 22.1742244369644332 3.3204898711335393 0.1225260996754205 -0.0291775274509911 0.1453803067740772 
    1800 26.2064106980105862 -10708.1752142030127288 -10736.3060771661366744 28.1308629631231248 -67.7954124821226003 -5387.8451078662801592 -5308.9448215158936364 -39.5161477839624098 0.0000000000000000 151.2368497279066730 21.6702776805970920 22.1695507074862803 3.3281679468015066 0.1743538423588675 -0.0578731478558780 -0.0199566725631913 
    1900 27.6336655000341125 -10708.1708853118252591 -10735.8275920619926183 27.6567067501677641 -69.1045862941534494 -5388.2586453545100085 -5308.0651604955928633 -39.5037862118887446 0.0000000000000000 148.6876960805305430 21.6866906575562233 22.1630065451788809 3.3194856492266958 0.1408078558464219 -0.0710657409000204 -0.1103548597041148 
    2000 29.0400926870061085 -10708.1802696685663250 -10736.2754355478646175 28.0951658792976744 -70.0394202155522692 -5387.8310689968620864 -5308.8917283952305297 -39.5526381557695288 0.0000000000000000 151.0449354411209697 21.6963193907300997 22.1567775573481960 3.3143624115097481 0.0418861835978816 -0.0469859438175831 0.0425699044097690 
    2100 30.4461326849996112 -10708.1891528189844394 -10736.3728694711971912 28.1837166522121727 -68.0889745807542681 -5388.0115766472499672 -5308.8456497448623850 -39.5156430790834605 0.0000000000000000 151.5210011755463881 21.6943972606619155 22.1544725431169311 3.3260813051087470 -0.0767198003219461 0.0034302061482467 0.1207916117439671 
    2200 31.8260542320203967 -10708.1765508628286625 -10735.6435201178792340 27.4669692550506888 -67.9055923051089678 -5387.3664481271698605 -5308.9033082298210502 -39.3737637608885791 0.0000000000000000 147.6676313539564944 21.6824049869562998 22.1573280148191394 3.3274338114547408 -0.1541514370012047 0.0518502261626511 -0.0954096862862645 
    2300 33.2548774250317365 -10708.1804712340981496 -10735.9966645142558264 27.8161932801579539 -69.7019536919400053 -5387.6206789169664262 -5308.6504312439192290 -39.7255543533700077 0.0000000000000000 149.5451258864121087 21.6657309284438533 22.1635488353417216 3.3160173803274682 -0.1660274784682604 0.0664370549693377 -0.0993017292919418 
    2400 34.6735805250355043 -10708.1712943142156291 -10735.4468761148109479 27.2755818005959974 -69.7082229442233938 -5387.8430305579022388 -5308.1432549089595341 -39.4605906479488056 0.0000000000000000 146.6386961333372483 21.6519294701210967 22.1697188589515086 3.3160111516879649 -0.0945980786005262 0.0570893270334939 0.1201553727239790 
    2500 36.0870273699983954 -10708.1876149716899818 -10736.2775742399699084 28.0899592682805412 -67.7303193295417714 -5388.3603056302054028 -5308.5510295391677573 -39.3662390705965493 0.0000000000000000 151.0169437137067803 21.6479599704233081 22.1750362273589765 3.3285998235270133 0.0154154045024698 0.0453535394985591 0.0687570951354573 
    2600 37.4980874440516345 -10708.1843709888908052 -10736.1558522729883407 27.9714812840983171 -68.1494478919128142 -5387.8663091686657935 -5308.8066488338454292 -39.4828942704778569 0.0000000000000000 150.3799836206829070 21.6549823663996328 22.1770792025627088 3.3262421870154957 0.1200779998508473 -0.0129254184269942 -0.1087126991311597 
    2700 38.9188363190041855 -10708.1857497441378655 -10736.8446459867791418 28.6588962426419016 -69.8423260798117980 -5389.1698550805576815 -5308.3272403770506571 -39.3475505291707250 0.0000000000000000 154.0756566941416281 21.6699697362557409 22.1723005620039828 3.3155684144302504 0.1685323631014270 -0.0783068698443517 -0.0370405074660374 
    2800 40.3509532460011542 -10708.1904664060311916 -10737.2738436736508447 29.0833772676191877 -68.9084926703741871 -5388.5952998647553613 -5309.0197159511717473 -39.6588278577238782 0.0000000000000000 156.3577471181358760 21.6857740413408422 22.1638565962534813 3.3209415043467394 0.1315967648481358 -0.0822133626697542 0.0930846458244952 
    2900 41.7832950900192373 -10708.1917496801288507 -10736.0889063397480641 27.8971566596192062 -68.0812176156215259 -5388.0292211399173539 -5308.6628739398029211 -39.3968112600274480 0.0000000000000000 149.9804003559190164 21.6946070962427164 22.1573075226905800 3.3265577589589022 0.0414654538516721 -0.0450316948157646 0.0060527936863391 
    3000 43.2023711770307273 -10708.1814888425760728 -10735.9645942703555193 27.7831054277801464 -68.8427930105320769 -5388.1791151718362016 -5308.4388180296355131 -39.3466610688828453 0.0000000000000000 149.3672393223048687 21.6936890918759389 22.1543251514070398 3.3215820138092420 -0.0587287352818293 -0.0154089986521032 -0.0820861515992714 
    3100 44.6328593360376544 -10708.1844991736779775 -10737.0876165966910776 28.9031174230136223 -69.4931543460472767 -5388.4781048405375259 -5309.0060795301978942 -39.6034322259566309 0.0000000000000000 155.3886360366050496 21.6835546835436013 22.1549295103893868 3.3177979175579662 -0.1400089153214468 0.0319990066629997 0.0166529940100386 
    3200 46.0554510150104761 -10708.1739002484373486 -10736.0472090519760968 27.8733088035384284 -68.3967256830069630 -5388.0205889166272755 -5308.6302451150877459 -39.3963750202624041 0.0000000000000000 149.8521897627655335 21.6678071397008836 22.1609546949075380 3.3243580027331947 -0.1588048849033725 0.0822330308925797 0.0929635116562288 
    3300 47.5018571070395410 -10708.1862363586951687 -10736.5357236560575984 28.3494872973626535 -68.1047935297843026 -5388.1812357175831494 -5308.7853994068609609 -39.5690885316124650 0.0000000000000000 152.4122155752889967 21.6540470128360276 22.1691932385790409 3.3253947346905295 -0.1076897106079884 0.0752265296352073 -0.0930126367229948 
    3400 48.9474684590240940 -10708.1749260355991282 -10735.3529405653334834 27.1780145297346323 -69.8948296919446648 -5386.7055645293876296 -5309.0921615895795185 -39.5552144463655964 0.0000000000000000 146.1141559974386155 21.6482550364938540 22.1749897690538411 3.3153329374802976 -0.0026519088148946 0.0352868306951093 -0.0422150668642506 
    3500 50.4107165190507658 -10708.1743711553044704 -10736.0346928027647664 27.8603216474608075 -69.1730688857924889 -5388.0230574284523755 -5308.6092302486049448 -39.4024051257071335 0.0000000000000000 149.7823683507925523 21.6535716384698738 22.1759838878514444 3.3192812422919209 0.1058830430464722 -0.0146150265571226 0.0976022005346494 
    3600 51.8632840150385164 -10708.1707953135046409 -10736.1919159499830130 28.0211206364784715 -67.7690573996597578 -5387.9827051158281392 -5308.6286610291235775 -39.5805498050319002 0.0000000000000000 150.6468541850999827 21.6677467207681183 22.1723059030919210 3.3278913178450655 0.1663871692523739 -0.0564515120049035 0.0104992836718929 
    3700 53.3019434080342762 -10708.1786420460666704 -10736.1661267814633902 27.9874847353967979 -68.8172268707340891 -5387.9827574080609338 -5308.6740980890117498 -39.5092712843892144 0.0000000000000000 150.4660212073125649 21.6844203156938136 22.1653454523232476 3.3219531075607467 0.1513354984265657 -0.0781310038505529 -0.0908241011144998 
    3800 54.7397005920065567 -10708.1797329444980278 -10736.8920064124286000 28.7122734679306042 -69.3421649488763876 -5388.5161606355850381 -5308.8987465973477811 -39.4770991794944663 0.0000000000000000 154.3626227715940900 21.6952421560029087 22.1579922273057086 3.3178787308612963 0.0585926544087420 -0.0625185184018581 0.0303219402076713 
    3900 56.1849972270429134 -10708.1880750690215791 -10736.8096028389318235 28.6215277699095978 -68.5572896108245970 -5388.3455169591907179 -5308.9725528892522561 -39.4915329904893326 0.0000000000000000 153.8747567038859074 21.6954999759299021 22.1537821918532032 3.3236600710231601 -0.0544624893375064 -0.0205712179934477 0.0702691531914669 
    4000 57.6517173960455693 -10708.1853249439827778 -10736.3562242604039056 28.1708993164213197 -68.3715042594061799 -5387.8770259214952603 -5308.9088615762429981 -39.5703367626664999 0.0000000000000000 151.4520927496138256 21.6848973076430553 22.1540309801618669 3.3239383211752429 -0.1485091382483062 0.0297806214956047 -0.0862532728982161 
    4100 59.4114619050524198 -10708.1737249900397728 -10735.6311922032018629 27.4574672131628752 -69.7255491191047838 -5388.0525650689160102 -5308.2011475514027552 -39.3774795828840638 0.0000000000000000 147.6165465762524036 21.6682904895528203 22.1601590635778685 3.3165512541042910 -0.1679342963743163 0.0888669889100540 -0.0001460256057323 
    4200 60.8288518500048667 -10708.1765698758335930 -10736.3540402908183751 28.1774704149849313 -68.7108381033732485 -5388.4121743717369100 -5308.4710041258058482 -39.4708617932771020 0.0000000000000000 151.4874202206308098 21.6540810917703546 22.1697110195989389 3.3227156417983288 -0.1057628206850661 0.0901003034916603 0.0851396116593344 
    4300 62.2632637790520675 -10708.1762291400318645 -10735.5152003316634364 27.3389711916311668 -67.6514448199647376 -5387.8699219434356564 -5308.3041992510743512 -39.3410791371526258 0.0000000000000000 146.9794895110198638 21.6485027467274236 22.1760312668173221 3.3287961697161768 -0.0001562610109992 0.0318074718209700 0.0047247333302197 
    4400 63.7435921030119061 -10708.1755283909424179 -10735.7664630302097066 27.5909346392670400 -69.1028195797362343 -5387.9547881485286780 -5308.3772611637032242 -39.4344137179780319 0.0000000000000000 148.3340927493558183 21.6537033946823136 22.1765826052634907 3.3201862485516891 0.0979644223076477 -0.0148450551221767 -0.1238924666265583 
    4500 65.2048197960248217 -10708.1717735900365369 -10736.0698029742779909 27.8980293842409779 -69.7156455194132292 -5388.1023047134785884 -5308.3627819390658260 -39.6047163217318001 0.0000000000000000 149.9850922888558102 21.6666923656068064 22.1735060341147481 3.3161888482639581 0.1538799983909603 -0.0489148493349506 0.0500902702641756 
    4600 66.6369537340360694 -10708.1788562511937926 -10736.5046703375992365 28.3258140864046268 -68.2039638256121492 -5388.5630358372782212 -5308.5470345158782948 -39.3945999844419035 0.0000000000000000 152.2849439074084330 21.6822061132382515 22.1667639131412351 3.3253887547562244 0.1444425645184093 -0.0841990592133041 0.0973980743193108 
    4700 68.0715544180129655 -10708.1781409911218361 -10735.8618607498792699 27.6837197587565349 -68.0939219399391646 -5388.1362219180318789 -5308.1455866620735833 -39.5800521697737366 0.0000000000000000 148.8329231333228506 21.6933763208509411 22.1580203890475786 3.3261877180956225 0.0697605808086051 -0.0811970036325256 -0.0971588168659918 
    4800 69.5236182170337997 -10708.1803048712554300 -10736.2759395575976669 28.0956346863421231 -69.8413167000570070 -5388.3319642051301344 -5308.5333518459565312 -39.4106235065111079 0.0000000000000000 151.0474558366248630 21.6949849013171203 22.1526362408902244 3.3158208802279687 -0.0380110792252920 -0.0200195495223630 -0.0282594603011053 
    4900 70.9761773580103181 -10708.1780722556341061 -10735.8464679866283404 27.6683957309948738 -68.9882873291173269 -5387.9933741755703522 -5308.2843139878968941 -39.5687798231613428 0.0000000000000000 148.7505382563692251 21.6861791601234444 22.1539110486551181 3.3200827378191859 -0.1304390140869292 0.0429059174136702 0.0676076539093985 
    5000 72.5250555580132641 -10708.1745075956605433 -10736.0619920887857006 27.8874844931254415 -68.2782857584892611 -5388.0510164352808715 -5308.5187138223918737 -39.4922618311135949 0.0000000000000000 149.9284009560969082 21.6708392907230269 22.1602185668725014 3.3253443024227809 -0.1647371445092578 0.0792823238009616 0.0232356632948149 
    5100 73.9499745410284959 -10708.1889857622445561 -10736.6753752136410185 28.4863894513962315 -68.7076275767894913 -5388.2788721262177205 -5308.8902949233752224 -39.5062081640485374 0.0000000000000000 153.1482274965779027 21.6557987180371754 22.1684963302112017 3.3220603874341137 -0.1236375634027050 0.0805239179316735 -0.0802651675930349 
    5200 75.3862632490345277 -10708.1951128586406412 -10736.8053468914731639 28.6102340328332332 -69.6062877507895053 -5387.9566124113080150 -5309.2453344634850509 -39.6034000166791884 0.0000000000000000 153.8140394333448739 21.6483343402614530 22.1754734338302555 3.3162871931707203 -0.0171736538970534 0.0539583380988439 -0.0038397230364018 
    5300 76.8267933860188350 -10708.1916096274198935 -10735.7367292311537312 27.5451196037334078 -69.0868034316573727 -5387.7290782353247778 -5308.4545028760030618 -39.5531481198252379 0.0000000000000000 148.0877824369647158 21.6523446840924692 22.1779530060920393 3.3199592116388441 0.0926129623511506 -0.0095315086751384 0.0679762907881947 
    5400 78.2681411970406771 -10708.1809954079526506 -10736.3061916511305753 28.1251962431783120 -68.3259140287140667 -5388.3101331002053485 -5308.5155376178736333 -39.4805209330518920 0.0000000000000000 151.2063843677125305 21.6654400313989619 22.1736037543056810 3.3243365139977525 0.1581238639317643 -0.0700099457920893 -0.0017481910837897 
    5500 79.7097348020179197 -10708.1797231591281161 -10736.6633357703376532 28.4836126112092423 -68.7997858784442826 -5388.5265629441637429 -5308.5779134854583390 -39.5588593407141076 0.0000000000000000 153.1332986775570077 21.6817947768090526 22.1655419599430772 3.3216609446449676 0.1546521225076019 -0.0859610388025577 -0.0313874660749405 
    5600 81.1609819870209321 -10708.1864657378082484 -10736.5687628239993501 28.3822970861902668 -69.7079757963346367 -5388.4314117139483642 -5308.4731737504644116 -39.6641773595876401 0.0000000000000000 152.5886072170609111 21.6939121407426967 22.1575666001902896 3.3157395066975099 0.0774224202973435 -0.0697140885632139 -0.0653202204811283 
    5700 82.6158675629994832 -10708.1709774175506027 -10735.7868545031560643 27.6158770856056748 -69.2608918715796165 -5388.0956744352042733 -5308.1647439415473855 -39.5264361264039721 0.0000000000000000 148.4681880671463716 21.6957784989480835 22.1531216705825820 3.3185342738508625 -0.0417798332710423 -0.0120960063406826 0.1089191050784486 
    5800 84.4341514150146395 -10708.1895731614094984 -10736.6019148423692968 28.4123416809603881 -68.1337110086948456 -5388.3317391587379461 -5308.7281667334827944 -39.5420089501500769 0.0000000000000000 152.7501326516108975 21.6864858872327275 22.1548394340734376 3.3260055444406911 -0.1350363142301970 0.0417958636190587 0.0065508923289153 
    5900 86.0610153790330514 -10708.1851012849529070 -10735.2453682299601496 27.0602669450079780 -68.9479907254474540 -5387.7340748148963030 -5307.9970098571238850 -39.5142835579391516 0.0000000000000000 145.4811226702892384 21.6705671983076229 22.1602578458605670 3.3206689912364116 -0.1704604576447338 0.0636687853252127 -0.0955101403808182 
    6000 87.5484093950362876 -10708.1780474783518002 -10735.9654536991056375 27.7874062207534323 -69.8891780267533562 -5388.0861991689325805 -5308.3263274497030579 -39.5529270804696651 0.0000000000000000 149.3903612002744410 21.6554522795811373 22.1674302937114369 3.3149056364694465 -0.1180713323535171 0.0791389600202180 0.0155935483666476 
    6100 89.0338677060208283 -10708.1736874644248019 -10735.4454166996547428 27.2717292352304810 -68.5892332514843446 -5387.9346957731031580 -5307.9456524787256058 -39.5650684478241743 0.0000000000000000 146.6179840119204414 21.6488623710671497 22.1748987907025565 3.3231471444939777 -0.0095202735028047 0.0647198757316744 0.1067409761132077 
    6200 90.4487793020089157 -10708.1761105819041404 -10735.7695949957742414 27.5934844138705024 -68.1442348211166973 -5387.4930140498890978 -5308.8643996587416041 -39.4121812871448114 0.0000000000000000 148.3478008207736707 21.6533798134493125 22.1787210445835896 3.3254601881747412 0.0959112147302923 0.0006564536980786 -0.0631624613449784 
    6300 91.8490646840073168 -10708.1758197552117053 -10735.7392359377972753 27.5634161825858577 -69.7146767910877543 -5388.0305513133844215 -5308.0673272844960593 -39.6413573399175547 0.0000000000000000 148.1861483118427714 21.6663096375791611 22.1748601827355643 3.3158689361338527 0.1519552451131644 -0.0698047985677190 -0.0901749042615217 
    6400 93.2527484850143082 -10708.1793911407312407 -10736.0442791758705425 27.8648880351388186 -69.5725708046429929 -5387.7804793843379230 -5308.6772045287234505 -39.5865952628091975 0.0000000000000000 149.8069181162215102 21.6814053596989602 22.1668227771617374 3.3168129680497387 0.1377385066286896 -0.0817867746506829 0.0989247080644968 
    6500 94.7125129400519654 -10708.1909004894041573 -10736.8021526029624511 28.6112521135590470 -68.0454373503228993 -5388.7456202407411183 -5308.6347892659478021 -39.4217430962741915 0.0000000000000000 153.8195128282401072 21.6919304273944356 22.1594245953593294 3.3261655495719120 0.0648079169640311 -0.0658863704715991 0.0484224122073202 
    6600 96.1338401440298185 -10708.1809888521311223 -10736.5417506087178481 28.3607617565875465 -68.5148196373223186 -5387.7059311594402971 -5309.1855538014388003 -39.6502656478402287 0.0000000000000000 152.4728292044476063 21.6935670088175208 22.1542816869140644 3.3233389054876987 -0.0324727691942510 -0.0303085324043444 -0.0998861548207653 
    6700 97.7625954260001890 -10708.1835490616467723 -10736.3151151739275520 28.1315661122801011 -70.0437429953001072 -5387.6565539789544346 -5309.1556925077693450 -39.5028686872030192 0.0000000000000000 151.2406299910123266 21.6863598455153550 22.1537496582609812 3.3141076890051200 -0.1078901061701035 0.0217833965672339 -0.0204609374217083 
    6800 99.2069100810331292 -10708.1757634748100827 -10735.8098056404614908 27.6340421656518060 -68.9122027818825416 -5388.0064624840288161 -5308.1289070803504728 -39.6744360760831114 0.0000000000000000 148.5658469795243377 21.6731522213693424 22.1587569293386650 3.3203590505493001 -0.1458632702945730 0.0748779717996639 0.0917880557979696 
    6900 100.6504402730497532 -10708.1686015394861897 -10735.3894531504593033 27.2208516109733978 -68.3579461167597913 -5387.4523894750327599 -5308.2559587603509499 -39.6811049150761477 0.0000000000000000 146.3444562632563475 21.6592915036961244 22.1671605671111429 3.3242601410264574 -0.1220767822551729 0.0818906952817525 -0.0274307375604955 
    7000 102.0720825000316836 -10708.1723875126681378 -10736.0606749565358768 27.8882874438678741 -69.4394509116145855 -5387.8897541534697666 -5308.5776761928809719 -39.5932446101845414 0.0000000000000000 149.9327177714370976 21.6504642202401278 22.1735935531327044 3.3170689483554687 -0.0474760127094900 0.0433116922270069 -0.0761313811763071 
    7100 103.5520320910145529 -10708.1692218100706668 -10735.9081796933969599 27.7389578833268864 -69.5622371033931017 -5387.6788220838043344 -5308.6617473959922791 -39.5676102136013554 0.0000000000000000 149.1298937579300343 21.6513428604822167 22.1758132627114826 3.3170078661138924 0.0674320756974846 -0.0002927902907377 0.0894154592335508 
    7200 105.1207755540381186 -10708.1783320458471280 -10736.2276642756478395 28.0493322298015464 -68.0840277494127406 -5387.4289395069154125 -5309.1566216925893968 -39.6421030761428028 0.0000000000000000 150.7985250565403703 21.6625992696306255 22.1733317617652759 3.3256171350827470 0.1486106641951609 -0.0457206769130150 0.0274115907572377 
    7300 106.6021671460475773 -10708.1734848849464470 -10736.4213450337883842 28.2478601488415393 -69.1762718426355718 -5387.7570493959583473 -5309.1870906627773365 -39.4772049750526008 0.0000000000000000 151.8658487677967628 21.6789625269603619 22.1675585901845302 3.3193392772125678 0.1647544638433023 -0.0644793045245908 -0.1091341810918411 
    7400 108.0254126079962589 -10708.1821326482895529 -10736.5816863560048660 28.3995537077153308 -69.7142164375510447 -5388.2659850035888667 -5308.5492010196649062 -39.7665003327509439 0.0000000000000000 152.6813820842883729 21.6924358648025759 22.1613214178900932 3.3155386096437942 0.0907574658760994 -0.0586934953501456 0.0247507529528932 
    7500 109.4340969140175730 -10708.1800148727506894 -10736.2699275757731812 28.0899127030219056 -68.9590241839736962 -5388.2139994458593719 -5308.5244533753211726 -39.5314747545918692 0.0000000000000000 151.0166933700528205 21.6956613517913226 22.1559093550914596 3.3205627900222789 -0.0286833344843176 -0.0476726992848487 0.0659348509648121 
    7600 110.8409862790140323 -10708.1705123379088036 -10736.2055395436473191 28.0350272057387677 -68.3029312118968335 -5388.2808406824460690 -5308.3571179761747771 -39.5675808850262598 0.0000000000000000 150.7216185365600722 21.6876045266577080 22.1535279212891076 3.3243480717775804 -0.1241751040180556 0.0067231556251077 -0.0183524138754478 
    7700 112.3589033920434304 -10708.1804890079038159 -10736.4241637956256454 28.2436747877210124 -69.2924815993664964 -5388.0420528030726928 -5308.7317093033116180 -39.6504016892424289 0.0000000000000000 151.8433474733404864 21.6729552180175311 22.1577570216111859 3.3186940602227266 -0.1576090834287551 0.0738792345357973 -0.0655533118766187 
    7800 114.1214696410461329 -10708.1743769397326105 -10735.7911720160846016 27.6167950763524352 -69.4100783840103759 -5387.7871043967688820 -5308.4522880828017151 -39.5517795365138269 0.0000000000000000 148.4731233593484490 21.6586584337652823 22.1667088583850926 3.3175862655308586 -0.1176855830309766 0.0918816810932527 0.0476512228201728 
    7900 115.5495310820406303 -10708.1805568906020198 -10736.8715061506845814 28.6909492600817018 -68.4875052745117188 -5388.8358917517225564 -5308.4107822476016736 -39.6248321513602093 0.0000000000000000 154.2479797895341846 21.6508716430836792 22.1740846745898104 3.3230648146538613 -0.0323066253200343 0.0496630795207362 0.0328426280766194 
    8000 116.9772144710295834 -10708.1758548311609047 -10736.0325608569073665 27.8567060257457300 -69.0516863104029426 -5388.0575918226622889 -5308.4184023815587352 -39.5565666526874864 0.0000000000000000 149.7629300833382899 21.6528455740881434 22.1769728968481949 3.3202809868057295 0.0662196032076011 0.0111239096921302 -0.0614341570958549 
    8100 118.4859632230363786 -10708.1822735043660941 -10736.0413736475602491 27.8591001431949721 -69.4567780886988118 -5388.0355943788417790 -5308.5302548400195519 -39.4755244287007017 0.0000000000000000 149.7758013124000058 21.6627706654923173 22.1755243220767930 3.3173175358867768 0.1260737676893159 -0.0408468582977237 0.0103264032019718 
    8200 119.8794104380067438 -10708.1815229682142672 -10736.6240011822301312 28.4424782140151997 -68.7726829144396419 -5388.5990530572425996 -5308.5503279051263235 -39.4746202198601921 0.0000000000000000 152.9121523638005158 21.6765885622212195 22.1690724658665488 3.3224067364545604 0.1408114774220991 -0.0799363544481833 0.0876928791119367 
    8300 121.2917089320253581 -10708.1780758497498027 -10736.5995682802604279 28.4214924305107175 -68.0746635479140423 -5388.4354884308668261 -5308.5562111287235894 -39.6078687206696003 0.0000000000000000 152.7993288151432978 21.6888226927277685 22.1608742156253449 3.3258715400426135 0.0939389031476166 -0.0766725228670540 -0.0531146663268580 
    8400 122.8083710300270468 -10708.1794898219923198 -10736.3104170274073113 28.1309272054153112 -69.4863479900468803 -5387.9192499114506063 -5308.9339278511124576 -39.4572392648448087 0.0000000000000000 151.2371951066425595 21.6940223299071917 22.1552241430130046 3.3174975298140605 0.0052108470204285 -0.0323534570007614 -0.0541247737411888 
    8500 124.2634591990499757 -10708.1815370667300158 -10737.2004384025403851 29.0189013358099430 -69.3575602254095429 -5388.5854882940693642 -5308.8206541641557124 -39.7942959443152944 0.0000000000000000 156.0111122913662882 21.6895368541915623 22.1547133035007136 3.3176591607928279 -0.0920146228095325 0.0183730956051022 0.0307623414274361 
    8600 125.7098100880393758 -10708.1743265478980902 -10735.9813361748056195 27.8070096269076679 -68.6760691353794641 -5387.5756616363014473 -5308.8184176269314776 -39.5872569115742294 0.0000000000000000 149.4957528263539359 21.6768883162974220 22.1583568209700381 3.3220997003151052 -0.1514115501504386 0.0545634929105367 0.0450988342415598 
    8700 127.1379047760274261 -10708.1790936346751550 -10736.1861886657097784 28.0070950310352593 -68.8469567860281586 -5387.9060529863900229 -5308.7932160123746144 -39.4869196669464984 0.0000000000000000 150.5714498725647275 21.6614343945528418 22.1650646862097496 3.3214702974000709 -0.1434085884969952 0.0742147742345615 -0.0422856558754378 
    8800 128.5733263680012897 -10708.1811354303099506 -10736.7949254929335439 28.6137900626237212 -69.1057026444649836 -5387.9274242125457022 -5309.1247943680291428 -39.7427069123578036 0.0000000000000000 153.8331573233206200 21.6506924762539938 22.1716729573230324 3.3194867432310837 -0.0636336304890486 0.0536208038559287 -0.0094234746228773 
    8900 130.0163340970175341 -10708.1770231744612829 -10736.1513539387633500 27.9743307643024153 -69.0035832712152484 -5388.5323678786762684 -5308.1782846623536898 -39.4407013977335623 0.0000000000000000 150.3953029662001484 21.6501279353192153 22.1751056812242062 3.3201277319291171 0.0520705561314339 0.0137727310089655 0.0327296402039400 
    9000 131.4459738060249947 -10708.1723229329072637 -10735.8689200874468952 27.6965971545398588 -68.6413528673111557 -5387.9539936010824022 -5308.2551925632506027 -39.6597339231143735 0.0000000000000000 148.9021544531555321 21.6602392023086772 22.1742781331198238 3.3222419793688367 0.1414933892302861 -0.0310424026434998 -0.0175197255013882 
    9100 132.8814536970457993 -10708.1852212559952022 -10736.5370672994049528 28.3518460434095410 -69.3433000028851154 -5388.2630576627871051 -5308.5923208708245511 -39.6816887657934672 0.0000000000000000 152.4248966409892319 21.6759784778318085 22.1696472349977398 3.3180404763584401 0.1592193804961549 -0.0613061213156092 -0.0404125057738856 
    9200 134.2921473900205456 -10708.1846010700701299 -10736.3924554167024326 28.2078543466327467 -69.5841860689545086 -5388.2496522889196058 -5308.6492903279913662 -39.4935127997921001 0.0000000000000000 151.6507699945352670 21.6894014493011582 22.1624690922586147 3.3164025828784847 0.0982595797091429 -0.0744765595460356 0.0205713354830394 
    9300 136.0409959940006956 -10708.1706404121632659 -10736.1392233539882000 27.9685829418253569 -68.5947082161330286 -5387.7682998972140922 -5308.7808058439122760 -39.5901176128617323 0.0000000000000000 150.3644015834247512 21.6943367497824582 22.1562881744305358 3.3232593751238184 -0.0008537965827325 -0.0423427527072602 0.0866371820355047 
    9400 137.8739917980274186 -10708.1629733849567856 -10734.7271376639873779 26.5641642790302299 -68.2987972768710563 -5387.1505734421862144 -5308.1028231165182660 -39.4737411052827341 0.0000000000000000 142.8139807328930715 21.6892540274273919 22.1543133221788899 3.3248671611022349 -0.0965775954354900 0.0023085054587375 -0.0545792558101512 
    9500 139.2940253069973551 -10708.1744179177985643 -10735.4739789364066382 27.2995610186085713 -69.3216915818273520 -5387.4889395509871974 -5308.4070118832714797 -39.5780275021480890 0.0000000000000000 146.7676129531274682 21.6766208680505059 22.1565932276010642 3.3181910677738662 -0.1458277293271074 0.0451376864456905 -0.0522647791458717 
    9600 140.9925802110228688 -10708.1753523541410686 -10736.2768606617974001 28.1015083076571095 -69.5425732585257776 -5388.4010147126118682 -5308.2780575342167140 -39.5977884149696280 0.0000000000000000 151.0790335377902238 21.6623758254299332 22.1632673298813181 3.3174963119253613 -0.1273567439368630 0.0825322293897018 0.0539972465703615 
    9700 142.3965543340309523 -10708.1737837113178102 -10735.7104054693554644 27.5366217580371426 -68.1928259138705641 -5388.2837039478690713 -5307.9073446162183245 -39.5193569052671023 0.0000000000000000 148.0420964082686908 21.6528255868050543 22.1718473926143211 3.3248909538144438 -0.0573265575143084 0.0772577311933303 0.0419381041698151 
    9800 143.8255557990050875 -10708.1729998437804170 -10735.4281940192813636 27.2551941755004563 -68.8114427250706484 -5387.6669251317889575 -5308.2318001537978489 -39.5294687336941735 0.0000000000000000 146.5290883976298346 21.6517777584015221 22.1765144942328263 3.3217386122215382 0.0377195382383867 0.0135573611175368 -0.0765447574533908 
    9900 145.2775168020161800 -10708.1789421212997695 -10736.3646569969205302 28.1857148756205795 -69.7590366443556888 -5388.0624648100229024 -5308.7241798491850204 -39.5780123377132611 0.0000000000000000 151.5317440032277148 21.6597297416145764 22.1749776895088218 3.3159859789496715 0.1149402345208814 -0.0394088546411030 -0.0050751008777559 
   10000 146.7104871949995868 -10708.1875702945762896 -10736.6759243658234482 28.4883540712474570 -68.6379104771181403 -5388.4261759629061999 -5308.7704075294832364 -39.4793408734335216 0.0000000000000000 153.1587896651683707 21.6731372626233423 22.1694091570938561 3.3224804374123309 0.1439504122345904 -0.0669610086279449 0.0969667105040138 
   10100 148.1330010810052045 -10708.1860773155331117 -10737.2687108669306326 29.0826335513971550 -68.1113450267036171 -5388.5981449454020549 -5308.9411857400118606 -39.7293801815173140 0.0000000000000000 156.3537487588015438 21.6865396300927173 22.1625107591128128 3.3255953497900763 0.1142927999326633 -0.0680633152107349 -0.0625528926080097 
   10200 149.5698074670508504 -10708.1734813633065642 -10736.2181371470796876 28.0446557837732762 -69.7719133382654491 -5388.0488350348241511 -5308.6104542490838867 -39.5588478631701790 0.0000000000000000 150.7733835965657647 21.6939842476671174 22.1567839516868830 3.3153830569572418 0.0259957033414037 -0.0418311190273827 -0.0728720459268107 
   10300 151.0139985220157541 -10708.1735588857518451 -10736.1986681408379809 28.0251092550864520 -69.6018559220465818 -5388.3394729234569240 -5308.3318235337555961 -39.5273716836265265 0.0000000000000000 150.6682977545286235 21.6911653409993548 22.1548621756350634 3.3165166267648467 -0.0793345265591069 0.0052514223751443 0.0970365334103953 
   10400 152.6191109410137869 -10708.1843660850572633 -10736.6646943844552879 28.4803282993979394 -67.9444663219229739 -5388.2207872800536279 -5308.7125335420842021 -39.7313735623183319 0.0000000000000000 153.1156415949244263 21.6792800904537657 22.1573754274500736 3.3265876865046509 -0.1500718816294658 0.0421320334470676 0.0363189757337146 
   10500 154.0270504130166955 -10708.1862920308376488 -10736.2305619374164962 28.0442699065792844 -69.0685377739550859 -5388.0362516284230878 -5308.7284664762009925 -39.4658438327917622 0.0000000000000000 150.7713090476520961 21.6638166747239431 22.1626826646481874 3.3197806159062995 -0.1460793823491117 0.0619280105886834 -0.1205009377795976 
   10600 155.4348168800352141 -10708.1913479821032524 -10737.5328897390991187 29.3415417569967261 -70.0305564668165488 -5389.0024564178202127 -5308.8198732476594159 -39.7105600736196180 0.0000000000000000 157.7456883318930068 21.6525869476860748 22.1689574526685860 3.3136737376038528 -0.0694982725932431 0.0606388869581607 0.0214273269245928 
   10700 156.9136165770469233 -10708.1871359315518930 -10736.8330610802131559 28.6459251486605559 -68.6077479540157640 -5388.2766425865802375 -5308.9097897498595557 -39.6466287437740874 0.0000000000000000 154.0059216350417728 21.6509305911108427 22.1740788002151561 3.3224657595576543 0.0380285773379062 0.0376235360507657 0.1107515029206477 
   10800 158.3725656630122103 -10708.1822097956755897 -10736.2174455366166512 28.0352357409410793 -68.2456685949835276 -5388.3456616990551993 -5308.3843620892712352 -39.4874217482897905 0.0000000000000000 150.7227396613224357 21.6592149239976841 22.1759272612003286 3.3247651471083919 0.1204157746781112 -0.0044186950782085 -0.0640337000407047 
   10900 159.7623341180151328 -10708.1790722686819208 -10736.1348681915806083 27.9557959228993482 -69.6852639345914469 -5387.8663835438992464 -5308.5877790532731524 -39.6807055944085221 0.0000000000000000 150.2956561467022425 21.6729307433351757 22.1724585335049689 3.3161738875688469 0.1437532625621145 -0.0620932289354637 -0.0659989670056529 
   11000 161.1806600420386530 -10708.1821806859370554 -10736.2978555093231989 28.1156748233854863 -69.6037698698691258 -5388.4991456523730449 -5308.3133494417743350 -39.4853604151769133 0.0000000000000000 151.1551954107192159 21.6857834297931049 22.1648826149855189 3.3168592648559621 0.1041886966375106 -0.0824097832500759 0.0870342146643899 
   11100 162.8203951700124890 -10708.1891294532888423 -10737.0921119279337290 28.9029824746453166 -67.9622875865245817 -5388.4590992311023001 -5308.9825500883353016 -39.6504626084951610 0.0000000000000000 155.3879105286060565 21.6928465317838075 22.1570046138213783 3.3260849107303567 0.0318653968842536 -0.0671771492643346 0.0201116409893434 
   11200 164.4440412970143370 -10708.1926434486049402 -10736.9560374092616257 28.7633939606562734 -68.9365832802321847 -5388.3118931607878039 -5308.9753271569716162 -39.6688170915007490 0.0000000000000000 154.6374562271657851 21.6912933818393903 22.1528431747434169 3.3206587342876772 -0.0634222968675849 -0.0092111926349848 -0.0913544324062567 
   11300 165.8457730940426700 -10708.1879782021296705 -10736.5186665251821978 28.3306883230521542 -69.8900737575792874 -5388.0967872869832718 -5308.9085670286576715 -39.5133122095419722 0.0000000000000000 152.3111487272309432 21.6808317263960824 22.1551723135055454 3.3148484312732798 -0.1382667194764721 0.0537044043317522 0.0201124514786172 
   11400 167.2650093639967963 -10708.1830697299483290 -10736.6370064046677726 28.4539366747195501 -68.6465517318508773 -5388.3298737177110524 -5308.6775108316069236 -39.6296218553494981 0.0000000000000000 152.9737552197786101 21.6660321125066844 22.1623011687286429 3.3223562801422961 -0.1445890389654310 0.0811838585068969 0.0848247376166375 
   11500 168.9194959820015356 -10708.1759867811724689 -10736.3045215151068987 28.1285347339335381 -68.2325548246256233 -5388.2717564855411183 -5308.4003966205627876 -39.6323684090029431 0.0000000000000000 151.2243327266138522 21.6538157401143607 22.1704002630738692 3.3251929095252946 -0.0906242390368570 0.0768706984749311 -0.0362865101232137 
   11600 170.4467470610397868 -10708.1702279757046199 -10735.9203392677081865 27.7501112920030053 -69.4561795461247584 -5387.8563947875227313 -5308.5509108580181419 -39.5130336221679102 0.0000000000000000 149.1898565964009151 21.6496548227045338 22.1763835365869895 3.3172339957187118 0.0152993106333464 0.0368150425973962 -0.0714791855140227 
   11700 171.8993470850400627 -10708.1772367003577529 -10736.6582342059555231 28.4809975055979301 -69.5749337758765591 -5388.3254790653500095 -5308.7293999680096022 -39.6033551725967499 0.0000000000000000 153.1192393742615820 21.6567633392776386 22.1772366762177597 3.3171395954527889 0.1168904936982313 -0.0209288171715850 0.0801813720886530 
   11800 173.3190878530149348 -10708.1803282668915926 -10736.6111108052682539 28.4307825383760289 -68.0275526038685570 -5387.8380202237785852 -5309.0667966016899300 -39.7062939797995966 0.0000000000000000 152.8492741953836287 21.6708455707017187 22.1724110308932758 3.3256734537256500 0.1521257996838866 -0.0717470137837834 0.0272103042072012 
   11900 174.7440807330422103 -10708.1886992314939562 -10736.3747094664868200 28.1860102349927786 -69.1079898355702937 -5388.3413050604240198 -5308.5752141911088984 -39.4581902149546693 0.0000000000000000 151.5333319111794879 21.6850325861616611 22.1646144585343023 3.3199951614967294 0.1222191024537289 -0.0753404213762129 -0.0802911119878520 
   12000 176.1710219689994119 -10708.1860179032100859 -10736.7066738726862241 28.5206559694755413 -69.6532906046311098 -5388.3257017489577265 -5308.6466631192924979 -39.7343090044354454 0.0000000000000000 153.3324507908384646 21.6935286288000491 22.1580892489255703 3.3163584290795503 0.0404009779024471 -0.0545741663681387 0.0090952506796413 
   12100 177.5956098790047690 -10708.1813334842372569 -10736.5161653353352449 28.3348318510978814 -68.8090074079872238 -5388.0108516253858397 -5308.9923400124143882 -39.5129736975350951 0.0000000000000000 152.3334251191502631 21.6922492451073730 22.1545061155493137 3.3210430121490533 -0.0627017122956511 -0.0156158902766218 0.0616603214722975 
   12200 179.0448966470430605 -10708.1819611845166946 -10736.5419032371064532 28.3599420525898438 -68.3320888186826778 -5387.7643743757316770 -5309.1644702474750375 -39.6130586139009324 0.0000000000000000 152.4684223204325519 21.6821384073930474 22.1552728942916168 3.3243239544293566 -0.1312348259713051 0.0299699654776473 -0.0214756255425636 
   12300 180.5093683580053039 -10708.1794785802467231 -10736.3274189995190682 28.1479404192731621 -69.2787982142354082 -5387.8001159481373179 -5308.7754454369205632 -39.7518576144611373 0.0000000000000000 151.3286613681284507 21.6677089667924143 22.1603310868260088 3.3184771365958734 -0.1484285349283675 0.0706276838628281 -0.0692515077544935 
   12400 181.9672562199993990 -10708.1783209707828064 -10736.5825800766706379 28.4042591058878102 -69.7601140408816605 -5388.5635901072728302 -5308.4736599532225227 -39.5453300161748302 0.0000000000000000 152.7066791964763013 21.6547791474199300 22.1682498772965282 3.3151428147586364 -0.0966424515463999 0.0783967883320728 0.0294764137634612 
   12500 183.3895272420486435 -10708.1793779873205494 -10736.5480318142253964 28.3686538269044988 -68.6946998842123975 -5388.2260064787715237 -5308.6517652665534115 -39.6702600689005109 0.0000000000000000 152.5152584699177680 21.6501772133496502 22.1746433487833201 3.3222113504951096 0.0079515006789339 0.0461319068576535 0.0645059681714394 
   12600 184.8060241250204854 -10708.1853964743022516 -10736.7418869900066056 28.5564905157039917 -68.3973408738263089 -5388.1611835270605297 -5309.0994985773268127 -39.4812048856190287 0.0000000000000000 153.5251041015500562 21.6561194583900800 22.1769451003196920 3.3243567005265398 0.1041998874906579 -0.0013885073255673 -0.0195211141471812 
   12700 186.2471019790391438 -10708.1844589631327835 -10736.8758321681089001 28.6913732049767454 -69.1716225320386968 -5388.2879199550361591 -5309.0202172219524073 -39.5676949911198506 0.0000000000000000 154.2502589976220690 21.6691152898386079 22.1737814211985409 3.3186400136106911 0.1458361298805211 -0.0598864864277668 -0.0804243552890285 
   12800 187.6826337050297298 -10708.1864765636291850 -10736.3133231932588387 28.1268466296291102 -69.8395660926347404 -5388.1489669136335579 -5308.4859759905593819 -39.6783802890654016 0.0000000000000000 151.2152571579991047 21.6833880002649479 22.1666174516912164 3.3154038278775770 0.1265617607283833 -0.0792603280092805 0.0461773665538678 
   12900 189.1012729020440020 -10708.1828607053539599 -10736.0736697124975763 27.8908090071439787 -68.5554194839271531 -5388.0174176856407939 -5308.5675099068921554 -39.4887421199642077 0.0000000000000000 149.9462741734133715 21.6926338164594554 22.1585344905510802 3.3227931757110016 0.0498462842032918 -0.0756036355704608 0.0647168429702231 
   13000 190.5131623939960264 -10708.1830203475055896 -10736.4427717932667292 28.2597514457603758 -68.5655212318095835 -5387.9036135133901553 -5309.0056148212370317 -39.5335434586388459 0.0000000000000000 151.9297786332808471 21.6926075412770878 22.1530311404712918 3.3229113932737175 -0.0486806980699519 -0.0276857496623577 -0.0594994750125718 
   13100 191.9529163110419177 -10708.1810997038755886 -10736.5975576504151832 28.4164579465399285 -69.6914288987229185 -5388.0718093975829106 -5308.9061450334320398 -39.6196032194008296 0.0000000000000000 152.7722624753461105 21.6837727965485811 22.1538286006740037 3.3164789178738796 -0.1229102545405043 0.0427859910017933 -0.0353151472685668 
   13200 193.3843396170414053 -10708.1812814543300192 -10736.3718831551323092 28.1906017008021230 -68.8556937332599404 -5388.0513070307679300 -5308.9040368209880398 -39.4165393033756146 0.0000000000000000 151.5580165013944622 21.6693482286442602 22.1610122925280422 3.3210476143839243 -0.1545824394982153 0.0938866154887503 0.0978533435571864 
   13300 194.8092668580356985 -10708.1839835691625922 -10736.5479479858822742 28.3639644167196252 -67.9329307276168777 -5388.3240800543035220 -5308.6997799777136606 -39.5240879538643384 0.0000000000000000 152.4900473121807352 21.6555153132706941 22.1701716966057774 3.3274451078527538 -0.1092670448973436 0.0790448118716053 0.0028145646190270 
   13400 196.2373272230033763 -10708.1845750394659262 -10736.5988128106091608 28.4142377711437248 -69.1710439440533662 -5388.4464935438445536 -5308.5354351851965475 -39.6168840815684291 0.0000000000000000 152.7603263917213212 21.6492486246055229 22.1762079839139190 3.3190747871624473 -0.0116464113763945 0.0402058270544012 -0.1390980857824874 
   13500 197.6449284810223617 -10708.1846112556486332 -10736.2899206412112108 28.1053093855628937 -70.2488578230582874 -5387.9915516189703339 -5308.7719852906266169 -39.5263837316149207 0.0000000000000000 151.0994688528672896 21.6538184613017748 22.1776134133194525 3.3122518203169866 0.1004081377001237 -0.0157178872336768 0.0372533707710549 
   13600 199.0877479850314558 -10708.1798776413124870 -10735.8184464691548783 27.6385688278428958 -68.4964354192767786 -5387.5343646980718404 -5308.6674571393114093 -39.6166246317728508 0.0000000000000000 148.5901831732081462 21.6674476217155600 22.1734392900253816 3.3238317401437460 0.1586508373697343 -0.0634080946723246 0.1405259903142818 
   13700 200.8355525110382587 -10708.1853668751318764 -10737.0257491917145671 28.8403823165819766 -67.8389964145426489 -5388.5117915991768314 -5309.0480445661005433 -39.4659130264380522 0.0000000000000000 155.0513602169295382 21.6830107066970719 22.1657607883787904 3.3273490779482739 0.1405801904801862 -0.0853280248737180 -0.0894584492278575 
   13800 202.4345992330345325 -10708.1735565196304378 -10735.9798157498316868 27.8062592302008937 -69.5685666968631011 -5387.6487855924406176 -5308.8353032294908189 -39.4957269279007761 0.0000000000000000 149.4917185514677556 21.6932199361593767 22.1576523389122642 3.3168424910814571 0.0572295337878958 -0.0682774636924707 -0.0572241355279506 
   13900 203.8868776200106367 -10708.1830893026108242 -10736.0548832135154953 27.8717939109050299 -69.3959629835523373 -5388.2310978436398727 -5308.1909813837582988 -39.6328039861175654 0.0000000000000000 149.8440454129156478 21.6938675169444188 22.1530696785345818 3.3181728164906468 -0.0458693094750448 -0.0203475611731374 0.0736575041431767 
   14000 205.6273857590276748 -10708.1839781150574709 -10736.2147747126509785 28.0307965975940618 -68.1266731776754000 -5388.0075859918169954 -5308.7072565084472444 -39.4999322123861560 0.0000000000000000 150.6988739855280812 21.6849722323499634 22.1538231401516335 3.3252833384925564 -0.1259432979963082 0.0353336397744304 0.0275738396012054 
   14100 207.0644135590409860 -10708.1806460308198439 -10736.5162308619292162 28.3355848311084664 -69.1276299353992556 -5388.3450823312296052 -5308.4545407424157020 -39.7166077882825732 0.0000000000000000 152.3374732823672275 21.6700780355913736 22.1599869128031166 3.3193892452696301 -0.1597054867574131 0.0814237823463506 -0.1235789142872752 
   14200 208.5631622250075452 -10708.1797802775708988 -10735.8442969128536788 27.6645166352827161 -70.1149338628930678 -5387.7319586710291333 -5308.5608754578788648 -39.5514627839447641 0.0000000000000000 148.7296835027817110 21.6558436873988356 22.1685727776057853 3.3137631507951766 -0.1141920590006150 0.0822139989068145 0.0449924715323460 
   14300 209.9809612359968014 -10708.1821294679175480 -10736.2024430164055957 28.0203135484885912 -67.9517617502079077 -5388.1036901803699948 -5308.6990792549004254 -39.3996735811352821 0.0000000000000000 150.6425151271335494 21.6489547139735699 22.1750404452944387 3.3267172751958749 -0.0177674837452630 0.0462945303679150 0.1398043012235282 
   14400 211.4734827430220321 -10708.1854141206185886 -10736.0745882524424815 27.8891741318240705 -67.6990735794577745 -5388.0575317208476918 -5308.4789576084376677 -39.5380989231584294 0.0000000000000000 149.9374847739056236 21.6526229857619619 22.1777235877633423 3.3288624548604475 0.0887932267836040 0.0044663226020345 -0.1088124914052794 
   14500 212.8673273810418323 -10708.1823660808295244 -10736.3960909482811985 28.2137248674521466 -70.1476664027891559 -5388.2265780486577569 -5308.6414499798029283 -39.5280629198204565 0.0000000000000000 151.6823310268488569 21.6656187069687078 22.1753025453499397 3.3132209650439886 0.1589170123357479 -0.0556854720331210 -0.1227908394168225 
   14600 214.2781686320086010 -10708.1816731678245560 -10735.8772599283511227 27.6955867605274442 -69.8873852317993567 -5387.8394919738630051 -5308.4477851334704610 -39.5899828210176210 0.0000000000000000 148.8967223834880826 21.6815697686380418 22.1671430106708200 3.3145110914023657 0.1448789667115648 -0.0995170288411859 0.1301131826388956 
   14700 215.6663634180440567 -10708.1758133500516124 -10735.8000571735792619 27.6242438235272409 -67.8576140046926355 -5387.8166607520779507 -5308.3947430012549376 -39.5886534202446683 0.0000000000000000 148.5131692356023621 21.6926441838907884 22.1579329032721795 3.3277901661181888 0.0689269932867777 -0.0773451118296573 0.0686151289401559 
   14800 217.0753167090006173 -10708.1820789863377286 -10735.9315222990262555 27.7494433126878413 -68.3240599502749149 -5388.0904436058654028 -5308.4717117667141792 -39.3693669264470287 0.0000000000000000 149.1862654130290764 21.6945973503799543 22.1525209102419645 3.3244273435334031 -0.0315935915617782 -0.0264350221029945 -0.1147324467141102 
   14900 218.4918669570470229 -10708.1827228024649230 -10736.1781424233104190 27.9954196208449382 -69.8267391980741081 -5388.0379794916816536 -5308.5456498387538886 -39.5945130928733278 0.0000000000000000 150.5086806550409051 21.6865635976254936 22.1534801570727247 3.3154011378593453 -0.1225355308186197 0.0454064771275061 -0.0259375051887787 
   15000 219.8723120940267108 -10708.1704235750348744 -10736.2567738041580014 28.0863502291239868 -68.9249535685466697 -5387.9505821217826451 -5308.6398549042569357 -39.6663367781178735 0.0000000000000000 150.9975408353344619 21.6719564064802555 22.1604417904881181 3.3207120777973982 -0.1578385164639188 0.0865926019284717 0.0962932303033137 
   15100 221.2783181380364113 -10708.1696073601542594 -10735.1978339576635335 27.0282265975093452 -68.2101829497982095 -5388.0111175072106562 -5307.7231531890756742 -39.4635632613781411 0.0000000000000000 145.3088676909011951 21.6572749903866502 22.1692773475792073 3.3250208439610387 -0.1222310659567544 0.0826341955326096 -0.0219403483786512 
   15200 222.6678968740161508 -10708.1645071356724657 -10735.8245939889657166 27.6600868532932580 -69.2380190842740149 -5387.8720722654807105 -5308.2669155108642371 -39.6856062126203426 0.0000000000000000 148.7058681554194379 21.6493673329406242 22.1756508877288532 3.3191615394982201 -0.0277619332503863 0.0414650449582322 -0.0663525668677681 
   15300 224.0805575450067408 -10708.1748072193295229 -10735.8455271053262550 27.6707198859960855 -69.6020144364468081 -5388.0680923393701960 -5308.3159647307929845 -39.4614700351639414 0.0000000000000000 148.7630333540533343 21.6521662658068408 22.1771270619306975 3.3167623834153046 0.0818611785366810 -0.0118186129875469 0.0424576017132109 
   15400 225.4983122040284798 -10708.1686752896312100 -10735.9302618134333898 27.7615865238022437 -68.1972044949036729 -5387.5113510078426771 -5308.9840346509763549 -39.4348761546145994 0.0000000000000000 149.2515496169630467 21.6645908498623747 22.1736589300586537 3.3252681146228884 0.1538971538300213 -0.0549124235954045 0.0817129315221810 
   15500 226.8930527300108224 -10708.1792759103864228 -10736.2173205458821030 28.0380446354959467 -68.2580086086910995 -5388.0499941724701785 -5308.6399803785388940 -39.5273459948718440 0.0000000000000000 150.7378408106989411 21.6804365135053381 22.1672710522218424 3.3257822051013215 0.1500952621507373 -0.0707687166551072 -0.0705995080150196 
   15600 228.3075647230143659 -10708.1728120405714435 -10736.2225910770939663 28.0497790365223914 -69.5176986628570859 -5388.0080961062003553 -5308.6942580004151750 -39.5202369704773915 0.0000000000000000 150.8009271741357793 21.6925613106810680 22.1599222240211837 3.3166942476654695 0.0822027336270506 -0.0732622493744006 -0.0803525692663047 
   15700 229.7491690400056541 -10708.1805063151678041 -10736.6808100215966988 28.5003037064280278 -69.5035309970027129 -5388.5156925155588397 -5308.5276229518713080 -39.6374945541655990 0.0000000000000000 153.2230331682019084 21.6955453266676024 22.1541511767367894 3.3170552031025609 -0.0259628817261353 -0.0357985592015925 0.0804696210752826 
   15800 231.1854601480299607 -10708.1800093273213861 -10736.2282115778634761 28.0482022505421789 -68.3563706395488282 -5388.1044007432683429 -5308.4706690035509382 -39.6531418310445929 0.0000000000000000 150.7924500739254086 21.6878814731228964 22.1533215981273131 3.3243071743503401 -0.1204605584434828 0.0198585324815232 0.0230574182054106 
   15900 232.5986281440127641 -10708.1774109211419272 -10735.8352728111276519 27.6578618899858242 -68.6163640860562225 -5387.8265223034068185 -5308.5110374530595436 -39.4977130546603945 0.0000000000000000 148.6939063310766471 21.6733002400045685 22.1580134649288318 3.3223617051847820 -0.1608587326556904 0.0720602362892140 -0.0477683794137664 
   16000 233.9995065370458178 -10708.1842075274325907 -10736.5818332034250489 28.3976256759926962 -69.6561904581729010 -5388.0771325231835363 -5308.8004316973710957 -39.7042689828680082 0.0000000000000000 152.6710166204101711 21.6576908623126947 22.1664836803759080 3.3164462215297186 -0.1374543905631667 0.0909622201417816 -0.0397919321523279 
   16100 235.4650390809983946 -10708.1812989135578391 -10736.0064208329968096 27.8251219194388497 -68.8992284065091098 -5388.3059245480362733 -5308.1766808965485325 -39.5238153884124443 0.0000000000000000 149.5931279430489838 21.6487391014215298 22.1746223604284474 3.3209244399742186 -0.0329320169435017 0.0636278385769223 0.1121517099719035 
   16200 236.8850271830451675 -10708.1843118888627941 -10736.1604184228526719 27.9761065339893840 -67.9420699933892962 -5388.1171086091680991 -5308.6371952493955177 -39.4061145642891333 0.0000000000000000 150.4048498405228997 21.6513901959298529 22.1781143384813859 3.3268527885341674 0.0858666772559858 0.0033005348415219 -0.0155847997678727 
   16300 238.3019378620083444 -10708.1885757551426650 -10737.0391047644079663 28.8505290092646298 -69.2163424295471117 -5387.9693714397517397 -5309.2031878276402495 -39.8665454970158706 0.0000000000000000 155.1059107594597606 21.6643679661756963 22.1757852419914805 3.3186688261173072 0.1625248964336583 -0.0477443726031251 -0.1336038878496432 
   16400 239.7205834850319661 -10708.1827935201454238 -10735.8725645091435581 27.6897709889988590 -70.2569412201548289 -5388.2892607059438888 -5308.1874612180035911 -39.3958425851963483 0.0000000000000000 148.8654556937362088 21.6809292550290778 22.1688770687312200 3.3126224036161425 0.1539611294552956 -0.0851186301115441 0.0796704517990888 
   16500 241.1384831410250627 -10708.1945340353449865 -10736.4450335584297136 28.2504995230841018 -67.9615657775595423 -5388.0117678724891448 -5308.9743167639608146 -39.4589489219810332 0.0000000000000000 151.8800385438523790 21.6928838074266679 22.1600318816325341 3.3269221617629832 0.0765409019791526 -0.0853391660926159 0.1188451515442669 
   16600 242.6280042770085856 -10708.1767860059990198 -10735.5170745958785119 27.3402885898797372 -67.6564793693251261 -5387.4364794212888228 -5308.5109971322408455 -39.5695980423509610 0.0000000000000000 146.9865720936342655 21.6950551270288692 22.1532117717986630 3.3288887248650227 -0.0331252776998993 -0.0462805331163416 -0.0929585153325539 
   16700 244.0115577120450325 -10708.1803593435979565 -10736.2368924375969073 28.0565330939986346 -70.1856442929511246 -5388.1583755219089653 -5308.8868811160318728 -39.1916357996572415 0.0000000000000000 150.8372382669354295 21.6872537206895402 22.1516374888348935 3.3137039546729050 -0.1138781579132079 0.0181743991598814 -0.0979566341881224 
   16800 245.4397905530058779 -10708.1793930982548773 -10735.9343244504070753 27.7549313521519352 -69.1437060591055115 -5387.6821777017748900 -5308.5834551761754483 -39.6686915724567157 0.0000000000000000 149.2157701531012037 21.6742046359982119 22.1570044390226570 3.3195192020316053 -0.1404204429357526 0.0812417528017118 0.1430107180329353 
   16900 246.8798122050357051 -10708.1775189376439812 -10736.0540065238074021 27.8764875861634138 -67.7607924317191106 -5388.2380984247229208 -5308.3208412293606671 -39.4950668697242975 0.0000000000000000 149.8692795004960487 21.6603656086019853 22.1662257585740967 3.3283383849059303 -0.1252492165824217 0.0940315157484630 0.0027253712644175 
   17000 248.3282995130284689 -10708.1820741698156780 -10736.4950488562426472 28.3129746864261769 -69.0253108155663995 -5387.8876542768693980 -5309.1042439254488272 -39.5031506539250614 0.0000000000000000 152.2159168602224781 21.6513258113403673 22.1746654194651107 3.3197794781526131 -0.0489229003744423 0.0709512517242288 -0.1379456748246186 
   17100 249.7495841230265796 -10708.1811514960390923 -10736.0859502072707983 27.9047987112314573 -70.1706192595671610 -5387.6054663471286403 -5308.9727587204688461 -39.5077251396738660 0.0000000000000000 150.0214854734573748 21.6516609384677565 22.1788376868798807 3.3139179562769092 0.0574842866062033 0.0112562256171118 0.0755830942280268 
   17200 251.1334924530237913 -10708.1807091844202660 -10736.1335548107381328 27.9528456263183038 -67.7626764387679970 -5387.7660327267585672 -5308.9730637923776158 -39.3944582916035841 0.0000000000000000 150.2797947932391480 21.6620999165486019 22.1770608986940161 3.3280997486032726 0.1427489531932695 -0.0479439524840142 0.1296426289197948 
   17300 252.7190528410137631 -10708.1829766037899390 -10736.5104096838658734 28.3274330800761653 -67.6552570801543425 -5388.3896820198524438 -5308.6405614773048001 -39.4801661867092193 0.0000000000000000 152.2936479241651853 21.6778983172654094 22.1699128192689479 3.3285039647052845 0.1611558687022419 -0.0865290092526552 -0.1303067655704582 
   17400 254.1512067320290953 -10708.1812015068462642 -10736.2253750941490580 28.0441735873028186 -70.4815929229738174 -5387.5734658658348053 -5309.0824067977500818 -39.5695024305642846 0.0000000000000000 150.7707912169705367 21.6914086643654329 22.1611954317447086 3.3119217195522568 0.0945515500333427 -0.0801720871862810 -0.1023028080993281 
   17500 255.5818129890249111 -10708.1721406746055436 -10735.7985620059534995 27.6264213313473910 -69.3342734313797280 -5388.0807555636274628 -5308.1382176528586569 -39.5795887894671097 0.0000000000000000 148.5248759302533301 21.6951256763433378 22.1546031691666627 3.3175070078110371 -0.0208222284171499 -0.0475496384981815 0.1579185250712299 
   17600 257.0173329859972000 -10708.1666201509124221 -10735.9539397657881636 27.7873196148757593 -67.4260843916496242 -5388.1605595346909467 -5308.2840749865745238 -39.5093052445219612 0.0000000000000000 149.3898955906653612 21.6882863392418628 22.1523375369754234 3.3302441378123593 -0.1083894494207922 0.0039274054937778 0.0447501953025907 
   17700 258.4377780120121315 -10708.1689764381571877 -10736.1186331332664849 27.9496566951095886 -68.8787168955553568 -5388.0954418918354349 -5308.4887895866595500 -39.5344016547725161 0.0000000000000000 150.2626504947994874 21.6749044975235883 22.1552392048048965 3.3215817515721913 -0.1513885636471056 0.0564263091125386 -0.1664768526838293 
   17800 259.8802547420491464 -10708.1835822706070758 -10736.4247863330219843 28.2412040624155622 -70.0266387825256515 -5388.3401083412227308 -5308.6340208396632079 -39.4506571521358893 0.0000000000000000 151.8300643859275851 21.6602441647008419 22.1631212531450288 3.3139004684306030 -0.1281799964321606 0.0942862103586243 0.0458351277529906 
   17900 261.2921223920420744 -10708.1759177624990116 -10736.6864887835654372 28.5105710210669088 -68.4555459411505467 -5388.0852757434004161 -5308.9910742784013564 -39.6101387617646949 0.0000000000000000 153.2782321972251225 21.6511978473318187 22.1724225553105398 3.3239781190577853 -0.0455870220148280 0.0816192966098448 0.0970759654741999 
   18000 262.6798137970035896 -10708.1696130919863208 -10735.6454802125808783 27.4758671205940743 -67.9537568109588932 -5388.1613995677453204 -5307.9104329449655779 -39.5736476998704347 0.0000000000000000 147.7154679651492586 21.6516284257169538 22.1782351905514901 3.3265986089960706 0.0543968414497368 0.0308728879520914 -0.0631307843295599 
   18100 264.1068596760160290 -10708.1735153811605414 -10735.7256224245284102 27.5521070433685473 -69.8112295830654688 -5388.0318385773489354 -5308.2022020304975740 -39.4915818166805082 0.0000000000000000 148.1253482364735135 21.6617973781987310 22.1778004836939502 3.3151969833223531 0.1426984398055138 -0.0408825553949735 -0.0885664489445530 
   18200 265.5251259650103748 -10708.1670283192142961 -10735.4149233846292191 27.2478950654148733 -69.7377862388879493 -5387.8965551797109583 -5307.8498398013607584 -39.6685284035570049 0.0000000000000000 146.4898469987219016 21.6775249384718904 22.1707645710535139 3.3162512554537407 0.1538529232806131 -0.0918201963615433 0.1069362661794644 
   18300 266.9441768620163202 -10708.1786547844603774 -10736.0659186880693596 27.8872639036091776 -67.7211028493922242 -5388.0631807258560002 -5308.6763038237531873 -39.3264341384612024 0.0000000000000000 149.9272150250585867 21.6898160301767113 22.1613110162138796 3.3283860425638183 0.0846009573274963 -0.0885516621959066 0.0832557324980110 
   18400 268.3405207530013286 -10708.1777419687223301 -10736.6026508220620599 28.4249088533390761 -68.1815865084766699 -5388.6783990000230915 -5308.4324228668901924 -39.4918289551493871 0.0000000000000000 152.8176961516369090 21.6937837216104938 22.1542757519076723 3.3255004057170980 -0.0071745984526373 -0.0486381067996085 -0.1370457320981179 
   18500 269.7291862880229019 -10708.1802732759042556 -10736.3338143407127063 28.1535410648092537 -70.0708977103896018 -5388.0095621072505310 -5308.7952836698432293 -39.5289685636174539 0.0000000000000000 151.3587714997810565 21.6884506693087964 22.1520277109949753 3.3144374089311706 -0.0950466732966336 0.0051817208793876 -0.0180759522814349 
   18600 271.1506009000004269 -10708.1894611825828179 -10737.0334871848499461 28.8440260022673947 -68.8644379705192904 -5388.5550509085278463 -5308.9671113383683405 -39.5113249379531766 0.0000000000000000 155.0709493616060968 21.6762316968252620 22.1556124884692309 3.3206433508303461 -0.1398602918576173 0.0631917551987950 0.0875331390975124 
   18700 272.5450546760112047 -10708.1774267752080050 -10736.1554688697033271 27.9780420944944410 -68.1940626568837729 -5388.0457173310214785 -5308.5984629204103840 -39.5112886182706546 0.0000000000000000 150.4152557805620063 21.6625260767923500 22.1636356150456315 3.3258107768584484 -0.1263753762323371 0.0910644181292175 -0.0004186476655848 
   18800 273.9454842430423014 -10708.1844514184576838 -10736.5074058137270185 28.3229543952693348 -68.9198875094160996 -5388.0091291859907869 -5309.1585737205978148 -39.3397029071379976 0.0000000000000000 152.2695696659902751 21.6525062200668863 22.1721350392182366 3.3217706114458534 -0.0662704273394231 0.0742871503677738 -0.0478416882858361 
   18900 275.3701157770119607 -10708.1796717746619834 -10736.9741396622648608 28.7944678876026252 -68.8446167904455137 -5388.9775308801354186 -5308.4501349018291876 -39.5464738802992741 0.0000000000000000 154.8045155465404434 21.6505325451570734 22.1774800139785100 3.3207931488786779 0.0308104318601213 0.0281026360673811 0.0002619237819491 
   19000 276.7681176300393417 -10708.1875370414236386 -10736.4125552276436792 28.2250181862195006 -68.9869890264837835 -5388.3078165075103243 -5308.5823454506371490 -39.5223932694965399 0.0000000000000000 151.7430460484813750 21.6586675463353266 22.1773771818091667 3.3211729460341584 0.1267461593043777 -0.0289676283249369 0.0192406299747540 
   19100 278.2459396730409935 -10708.1824338263631944 -10736.3281184696352284 28.1456846432726060 -68.5780750863989397 -5388.1594078582966176 -5308.5664536378499179 -39.6022569734888776 0.0000000000000000 151.3165338889087934 21.6737979372007636 22.1721815693316096 3.3224228365224713 0.1612862654038204 -0.0734262245016987 -0.0239065703264069 
   19200 279.6806846020044759 -10708.1764093453857640 -10736.5058327944389021 28.3294234490538699 -69.1661357628844087 -5388.2976500340701023 -5308.6563620530505432 -39.5518207073195214 0.0000000000000000 152.3043485249387459 21.6882957442693787 22.1632907365898042 3.3190861970524153 0.1182130862009103 -0.0985091014633724 -0.0078078365489073 
   19300 281.0951751930406317 -10708.1669373111089953 -10736.1607670405301178 27.9938297294203515 -69.3232981861221731 -5387.7784513999758929 -5308.8128765833716898 -39.5694390571826062 0.0000000000000000 150.5001330974782547 21.6954404059647104 22.1545790093079447 3.3188163636947285 0.0159255417411526 -0.0662105255053178 0.0159913680764027 
   19400 282.5096322710160166 -10708.1775473335583229 -10736.3764711081239511 28.1989237745653121 -68.2447501039733595 -5387.9936062707092788 -5308.8921774364498560 -39.4906874009630968 0.0000000000000000 151.6027575468717430 21.6908007860801462 22.1510547988174231 3.3243540246491876 -0.1022603833734343 -0.0037340837962727 0.0539169823327219 
   19500 283.9145961750182323 -10708.1826950441500230 -10736.5170465087066987 28.3343514645558834 -68.7214948512576029 -5388.5146423582900752 -5308.4900304576094641 -39.5123736928066620 0.0000000000000000 152.3308424700733781 21.6772919204391670 22.1539195607776449 3.3224767241247992 -0.1565132305035908 0.0572792072869123 -0.0630883189448499 
   19600 285.3039074370171875 -10708.1858965183018881 -10736.8418690095641068 28.6559724912620304 -69.5260924154944888 -5388.0794859029883810 -5309.1440084022560768 -39.6183747043187111 0.0000000000000000 154.0599380527100095 21.6622274134633095 22.1614805082891166 3.3171743536214744 -0.1335986919240404 0.0920683493782605 -0.0239151315879457 
   19700 286.6960775400511920 -10708.1726345937368023 -10735.6751149736519437 27.5024803799146191 -68.8566405882682488 -5387.7725210897751822 -5308.3858320230147001 -39.5167618608619691 0.0000000000000000 147.8585458901282266 21.6524774969796852 22.1707980680852543 3.3206607464467419 -0.0535857617956268 0.0844196246454978 0.0699392267991505 
   19800 288.1176042000297457 -10708.1741275240219693 -10735.9910026454563194 27.8168751214350678 -68.4933127711980489 -5387.4439557945152046 -5309.0667572974389259 -39.4802895535026366 0.0000000000000000 149.5487915943180610 21.6518590824408932 22.1770784514565946 3.3242359445777265 0.0385154772288153 0.0378934595932081 0.0023172858610489 
   19900 289.5341916700126603 -10708.1729104622754676 -10735.8075829910194443 27.6346725287447441 -68.7136601943854259 -5388.0318200137407985 -5308.2299317655306368 -39.5458312117473696 0.0000000000000000 148.5692359309577171 21.6595666384046091 22.1781730983811904 3.3221505617290306 0.1082216427480234 -0.0161378915086119 -0.0448281401535107 
   20000 291.1672522980370559 -10708.1756045573183656 -10735.8374844289646717 27.6618798716468497 -69.3521451581800932 -5388.3259577484423062 -5308.0340609258482800 -39.4774657546738013 0.0000000000000000 148.7155077618423604 21.6717499274727032 22.1739904234039074 3.3181210174075968 0.1316828125267130 -0.0662340234667868 -0.0198755884386839 
   20100 292.5612349470029585 -10708.1863173793699389 -10736.6621644582228328 28.4758470788537430 -68.7879024466394924 -5388.1076894968973647 -5308.9139423189972149 -39.6405326423279263 0.0000000000000000 153.0915497041449385 21.6848497343665763 22.1654925609519466 3.3219636063563160 0.1196356905226207 -0.0956116298894741 0.0618898481839830 
   20200 293.9683247220236808 -10708.1978057518172136 -10737.3232315184177423 29.1254257666008094 -68.1883916391421536 -5388.5683264958279324 -5309.2951414463032052 -39.4597635762875001 0.0000000000000000 156.5838078163129694 21.6931515490951767 22.1567220919184642 3.3253107371537554 0.0377052800376100 -0.0724068887088499 -0.0131025663721815 
   20300 295.4067845750250854 -10708.1850283671246871 -10736.6367155762582115 28.4516872091327038 -68.9630228980537083 -5388.1418160786515728 -5308.9338238797590748 -39.5610756178482319 0.0000000000000000 152.9616616665388165 21.6917177164234616 22.1519996944512627 3.3205084353676733 -0.0643109776157149 -0.0177241881628888 -0.0677201150301985 
   20400 296.8080579080269672 -10708.1838117283259635 -10736.6515892992101726 28.4677775708835519 -69.1100707141375494 -5388.5583803490662831 -5308.5867644414738606 -39.5064445086696878 0.0000000000000000 153.0481665002288025 21.6809783065789823 22.1536548501525559 3.3204637770694267 -0.1429442556680457 0.0475141984437147 0.0901155645820482 
   20500 298.2353256240021437 -10708.1657133788758074 -10735.6221340965748823 27.4564207176995829 -68.0443086745648884 -5387.4862933029271517 -5308.6724890714476714 -39.4633517222011534 0.0000000000000000 147.6109204183442500 21.6654941206464358 22.1606022606679574 3.3260616564261873 -0.1550701336987110 0.0837872912479211 -0.0133952445678012 
   20600 299.7418968370184302 -10708.1726144309996016 -10735.6728454976673675 27.5002310666678902 -69.2577735494552229 -5387.8336971545286360 -5308.2880903044988372 -39.5510580386393968 0.0000000000000000 147.8464531558977626 21.6530740342146935 22.1692140372487501 3.3190579104418210 -0.0802610059741180 0.0819692882825596 -0.0821297863767784 
   20700 301.1527903450187296 -10708.1760451588379510 -10736.1498540018637868 27.9738088430262799 -69.5893292706649902 -5387.7749453460828590 -5308.9219223473874081 -39.4529863083926458 0.0000000000000000 150.3924970185222492 21.6503558901472708 22.1761469242820546 3.3172046195855529 0.0267702852521310 0.0513989185109523 0.0628727211738601 
   20800 302.5699768660124391 -10708.1815485245897435 -10736.1946570335439901 28.0131085089533514 -67.8910208355544995 -5387.7825589840176690 -5308.9821456394565757 -39.4299524100715928 0.0000000000000000 150.6037794693294245 21.6577159590976827 22.1781426851114922 3.3270252945720555 0.1145406853807000 -0.0150862785179384 0.0719131926193609 
   20900 303.9895117770065553 -10708.1847352023796702 -10736.4587538052073796 28.2740186028277343 -68.3884009051691066 -5388.1208412553796734 -5308.8353524906306120 -39.5025600591965826 0.0000000000000000 152.0064815731184638 21.6716132241597883 22.1737727331093026 3.3248178850540353 0.1526870783638253 -0.0658936001080647 -0.0902668499653248 
   21000 305.3946328860474750 -10708.1759520225732558 -10735.9548110889409145 27.7788590663682875 -69.6646701908949524 -5387.6483013097213188 -5308.8347252308249153 -39.4717845483955188 0.0000000000000000 149.3444100787236266 21.6860694800679248 22.1657817338261509 3.3164038162301774 0.1221401352485380 -0.0887479317564930 -0.0394730514988538 
   21100 306.7910864310106263 -10708.1829893014837580 -10736.5919960287646973 28.4090067272813620 -69.2069112943558338 -5388.2671013150556973 -5308.7817454928635925 -39.5431492208445121 0.0000000000000000 152.7322033087014574 21.6938373950521068 22.1575584392080351 3.3187235378033080 0.0288996133457813 -0.0707802879339483 0.0653550022026224 
   21200 308.2264014760148712 -10708.1716313551733037 -10735.7312485056354490 27.5596171504630476 -68.5166491793094394 -5387.7636460653538961 -5308.4573162330289051 -39.5102862072548362 0.0000000000000000 148.1657239952826330 21.6915223194437417 22.1526792681547349 3.3240003795236461 -0.0742852045158633 -0.0230094033885175 0.0289063187860388 
   21300 309.6585046590189449 -10708.1736822054062941 -10736.0666850549823721 27.8930028495761633 -68.3658814407217506 -5388.1580378628568724 -5308.4651285294967238 -39.4435186626277101 0.0000000000000000 149.9580686860338403 21.6801236632960617 22.1532734679788668 3.3242050047876246 -0.1415442677176051 0.0336868633788608 -0.0320168953369160 
   21400 311.0560211529955268 -10708.1774863687842299 -10736.9871381643224595 28.8096517955385956 -69.1872833441693160 -5388.6068696128459123 -5308.8366282558999956 -39.5436402955764805 0.0000000000000000 154.8861471127602556 21.6656034804422681 22.1586066512023478 3.3194701168835166 -0.1349463004246742 0.0686136193250093 -0.0378056841389070 
   21500 312.4945442610187456 -10708.1721608976258722 -10736.2480426695383358 28.0758817719115790 -69.0272453755208346 -5388.1501959536544746 -5308.5238667954554330 -39.5739799204280160 0.0000000000000000 150.9412604257220210 21.6548069031864792 22.1664555388228095 3.3203408386700932 -0.0741439822711653 0.0853847353671082 0.0540776671403032 
   21600 314.2808669500518590 -10708.1742311262587464 -10736.0461693137567636 27.8719381874971788 -68.4511004305770570 -5388.1999856227848795 -5308.3922974008564779 -39.4538862901160456 0.0000000000000000 149.8448210712136017 21.6516634974762425 22.1742347675824476 3.3233650588395296 0.0139848207880437 0.0612488142921304 -0.0156974037681472 
   21700 315.6958214990445413 -10708.1679518236487638 -10736.4565489801589138 28.2885971565109031 -69.0716253874435182 -5388.0638026930992055 -5308.8289726844022880 -39.5637736026580598 0.0000000000000000 152.0848586401683349 21.6575118728584108 22.1776572955130860 3.3206781126206235 0.1000602169783975 0.0038680437961695 -0.0184760388606411 
[...]
   94700 1395.8855398850282654 -10708.1948764660064626 -10736.9923147750523640 28.7974383090455284 -67.9412592025373954 -5388.7785882480820874 -5308.7026902226489256 -39.5110363043200365 0.0000000000000000 154.8204850950743037 21.6747696357871718 22.1803966749449089 3.3269425839394464 0.1347239523739845 0.0376139495752525 0.0191150192675018 
   94800 1397.3013707110076211 -10708.1854968196748814 -10736.3062896570809244 28.1207928374055562 -68.7660679381973949 -5388.3699219148602424 -5308.4075655015731172 -39.5288022406490711 0.0000000000000000 151.1827108238892095 21.6862997448573758 22.1811249590996447 3.3216087215052643 0.0894385593084253 -0.0253225320765668 -0.1038065455740845 
   94900 1398.6990397230256349 -10708.1780753922630538 -10736.1370236489256058 27.9589482566623495 -70.0547149340263502 -5388.1477513457148234 -5308.4614003550541383 -39.5278719481566867 0.0000000000000000 150.3126036903390172 21.6918874567249063 22.1755137186467657 3.3144055625130107 0.0170368967828929 -0.0858692053139857 0.0075639785359396 
   95000 1400.0836204250226729 -10708.1731683388898091 -10735.9969842337686714 27.8238158948791217 -68.4464891071024795 -5387.8883126410564728 -5308.5384658388275056 -39.5702057538857872 0.0000000000000000 149.5861065075409613 21.6890552016780909 22.1650763547576908 3.3234602287390089 -0.0707825402569528 -0.1172471868040364 0.1073298609708337 
   95100 1401.4782792110345326 -10708.1803026565012260 -10736.3320979681175231 28.1517953116171107 -68.0086362414988912 -5388.3693596718612753 -5308.4392496260861662 -39.5234886701720569 0.0000000000000000 151.3493859998222320 21.6783481191857845 22.1538296821250995 3.3266720589348782 -0.1357703564031143 -0.0987365935016040 -0.0531935124167891 
   95200 1402.9766517990501598 -10708.1886631284705800 -10736.8075075457309140 28.6188444172603127 -69.6113217820975478 -5388.3895935678829119 -5308.7398417769836669 -39.6780722008646620 0.0000000000000000 153.8603304915824026 21.6642889161925289 22.1474307775688750 3.3163931450542830 -0.1312023741885747 -0.0223726525133779 -0.1075392370755188 
   95300 1404.3900748900487088 -10708.1768393116544758 -10736.2234373725113983 28.0465980608560308 -69.7164094156748746 -5388.3130327571607268 -5308.3200715099701483 -39.5903331053821930 0.0000000000000000 150.7838256461992898 21.6539590126330914 22.1498790686890921 3.3154490943473007 -0.0681845825515628 0.0683900633116847 0.0947688286654052 
   95400 1405.7830904410220683 -10708.1836971154370985 -10736.4667980586400517 28.2831009432032090 -68.1243708121736944 -5388.1502746384394413 -5308.6885751521585917 -39.6279482680416066 0.0000000000000000 152.0553099559641623 21.6521700992908599 22.1599201071226091 3.3256183626336746 0.0338474895673002 0.1260803130993889 0.0536048139889028 
   95500 1407.1923913490027189 -10708.1694121559885389 -10735.6842884650177439 27.5148763090300150 -68.5748434764971933 -5388.1345901186405172 -5307.9884142322698608 -39.5612841141080906 0.0000000000000000 147.9251887539223560 21.6600638334275857 22.1729293797651792 3.3227919134900379 0.1164934586957369 0.1201988410162475 -0.0968591131596900 
   95600 1408.6053899200051092 -10708.1844903835353762 -10736.0962486638945848 27.9117582803600861 -69.9289920217229337 -5387.8147483361299237 -5308.7387727368350170 -39.5427275909284219 0.0000000000000000 150.0589014358420741 21.6737186488575766 22.1816965863611983 3.3144367271901718 0.1436700990039287 0.0493554998792320 -0.0243452574953737 
   95700 1409.9903496560291387 -10708.1825102873535798 -10736.9832527126491186 28.8007424252955389 -69.0447433030353039 -5388.4033601823230129 -5308.9538165518779351 -39.6260759784474885 0.0000000000000000 154.8382486501220683 21.6862593287635370 22.1822402032777930 3.3201106850119557 0.0961494532764258 -0.0375291423287010 0.1068659500294004 
   95800 1411.3881856790394522 -10708.1796720389738766 -10736.0143741104948276 27.8347020715216331 -67.8873095808399540 -5388.0604949257522094 -5308.4858360002626796 -39.4680431844803650 0.0000000000000000 149.6446326559621127 21.6919355765959807 22.1751554402699220 3.3272976927909075 0.0159572784683550 -0.0982936951854535 0.0052572732326021 
   95900 1412.7896141270175576 -10708.1855067055039399 -10737.0588245669896423 28.8733178614851624 -68.9760266592658837 -5388.6279773995629512 -5308.8478731144223275 -39.5829740530032836 0.0000000000000000 155.2284279471928983 21.6890165924480520 22.1639652382854848 3.3203464402667442 -0.0733894664642235 -0.1145516796809888 -0.1142870247707507 
   96000 1414.1992733660154045 -10708.1818813473910268 -10736.5260419013175124 28.3441605539256507 -70.1758766608587905 -5388.2612719983699208 -5308.6788516990236531 -39.5859182039226170 0.0000000000000000 152.3835779932220191 21.6783896333554509 22.1539945533768154 3.3133952313375037 -0.1295067451149714 -0.0776154755835402 0.0270268430905761 
   96100 1415.5856981370016001 -10708.1812291382648255 -10736.4622069428223767 28.2809778045574305 -68.4843475671796114 -5388.7022039854218747 -5308.2648288001200854 -39.4951741572819373 0.0000000000000000 152.0438955602968747 21.6650982082565626 22.1494409396213001 3.3234979860232139 -0.1247945735744086 -0.0127503265070422 0.1161856972318003 
   96200 1416.9736042420263402 -10708.1810508093458338 -10736.1690046703624830 27.9879538610174095 -67.8745621664693601 -5388.6357727995582536 -5308.0583975202171132 -39.4748343505857235 0.0000000000000000 150.4685433155422629 21.6552707584153339 22.1514820282736444 3.3275574027250423 -0.0636257302658783 0.0542326069976047 -0.0537046184773081 
   96300 1418.3800185960135423 -10708.1763336938856810 -10736.5122563025324780 28.3359226086464346 -69.4758838682576538 -5388.2839102374828144 -5308.6458261283669344 -39.5825199366828144 0.0000000000000000 152.3392892384158586 21.6530817845344643 22.1597048556959031 3.3176663889654945 0.0214533637799289 0.1057432374145516 -0.0998390984991165 
   96400 1419.7704825920518488 -10708.1830802776294149 -10736.3658635054925981 28.1827832278632293 -69.5418594860873753 -5388.3914933837131684 -5308.4814785311900778 -39.4928915905890321 0.0000000000000000 151.5159829093745145 21.6593038359967771 22.1709724504410488 3.3168835062159090 0.0971502533771911 0.1091568423156248 0.0853161784351887 
   96500 1421.1843603700399399 -10708.1876321035942965 -10736.5518468496520654 28.3642147460584049 -68.1022470772911390 -5388.5008422490136581 -5308.5319990000889447 -39.5190056005480415 0.0000000000000000 152.4913931301402101 21.6715080513279830 22.1799218381095358 3.3263504875498282 0.1354009124337220 0.0659355880276914 0.0530985007077342 
   96600 1422.5987877530278638 -10708.1901533930868027 -10737.1044173620612128 28.9142639689737990 -68.4844347557022530 -5389.0197332781262958 -5308.5932221542152547 -39.4914619297204368 0.0000000000000000 155.4485619798146274 21.6841736569810379 22.1829349330040380 3.3236001807015341 0.1067308109267585 -0.0103795771749958 -0.0942049985060194 
   96700 1423.9976626480347477 -10708.1899243338120868 -10737.6363903263554676 29.4464659925440522 -69.7117668125314509 -5388.7393863261595470 -5309.3455234603388817 -39.5514805398575149 0.0000000000000000 158.3097809039939250 21.6912574228569142 22.1778473258465496 3.3157792351126374 0.0306078724235617 -0.0854760832422538 -0.0299480422442071 
   96800 1425.4110387440305203 -10708.1811889466353023 -10736.3694491111200477 28.1882601644841451 -68.9790772673224808 -5388.3687790842632239 -5308.3537773014322738 -39.6468927254237684 0.0000000000000000 151.5454279584578785 21.6898537623351046 22.1671728234342247 3.3204870501056565 -0.0580941053773992 -0.1210030765732582 0.0998746744692384 
   96900 1426.8044199650175869 -10708.1707051457378839 -10735.5042182754023088 27.3335131296646665 -68.0913256002130964 -5387.7679168962094991 -5308.3172360740718432 -39.4190653051203981 0.0000000000000000 146.9501459356551436 21.6801562313015737 22.1553107401890763 3.3261310587273769 -0.1279586946299991 -0.1086863458276710 -0.0063395077095711 
   97000 1428.3032844249974005 -10708.1852365081213065 -10736.6297936740738805 28.4445571659522720 -69.0719899717588817 -5388.2725984760845677 -5308.7539911957992445 -39.6032040021910987 0.0000000000000000 152.9233292033489704 21.6661790556324831 22.1473272952198101 3.3198765307220386 -0.1404174785080206 -0.0428419489620028 -0.0980553959125321 
   97100 1429.7065415380056947 -10708.1780866956069076 -10736.6517170168335724 28.4736303212265049 -69.8219462237869664 -5388.3316986515701501 -5308.8852063973263284 -39.4348119679380886 0.0000000000000000 153.0796319950937345 21.6548800018562275 22.1477758301082872 3.3159671592369193 -0.0738075430848903 0.0545763702217369 0.0667502551800544 
   97200 1431.1159013010328636 -10708.1751682410103967 -10736.4863516891382460 28.3111834481271885 -68.0619979815560328 -5388.4444395816753968 -5308.5587613999377936 -39.4831507075235564 0.0000000000000000 152.2062868237103999 21.6521352441015580 22.1569823976212312 3.3258033523520925 0.0178708484138893 0.1183381352478847 0.0575372152542277 
   97300 1432.5492102300049737 -10708.1796799873100099 -10736.3992230026051402 28.2195430152950593 -68.4532153830196393 -5388.2671293882922328 -5308.4886501774590215 -39.6434434368529338 0.0000000000000000 151.7136104921168283 21.6582255968464530 22.1694402276638236 3.3237088893421429 0.0998623746825734 0.1221960875496569 -0.0967960323134890 
   97400 1434.6910156550002284 -10708.1656327477921877 -10735.1253306306443847 26.9596978828520086 -69.9134460826116140 -5387.9749376098443463 -5307.6407928195894783 -39.5096002012099348 0.0000000000000000 144.9404443355898309 21.6705220119571464 22.1796338848555727 3.3148902849867947 0.1370243573820634 0.0703718346001402 -0.0178078509519617 
   97500 1436.1670776760438457 -10708.1841448072937055 -10736.2370014692078257 28.0528566619136939 -68.9522141123847376 -5387.8375475440971059 -5308.8930396760933945 -39.5064142490170980 0.0000000000000000 150.8174730714100065 21.6836686380215191 22.1823799212133821 3.3204790829137552 0.1113002038870657 -0.0158362499461585 0.0894793830263527 
   97600 1437.6032468210323714 -10708.1673030011515948 -10735.5684811663159053 27.4011781651644633 -67.9282130882668866 -5387.6825727685336460 -5308.3302805501425610 -39.5556278476395278 0.0000000000000000 147.3139259881594398 21.6910512654742895 22.1773077715322273 3.3272248787830909 0.0323392272256646 -0.0799683205903891 0.0141026413065769 
   97700 1439.0490510020172223 -10708.1710974011675717 -10735.5377024275967415 27.3666050264290632 -69.0813701078119493 -5387.9794563422865394 -5308.1562415760417935 -39.4020045092689202 0.0000000000000000 147.1280542431510412 21.6901049860275741 22.1674121180486523 3.3200665351799432 -0.0508046469487139 -0.1139371839720691 -0.1086171660556416 
   97800 1440.5350694860098884 -10708.1879096948068764 -10736.1091810966045159 27.9212714017973838 -69.5623342898162349 -5387.7125057918647144 -5308.8182833544706227 -39.5783919502691930 0.0000000000000000 150.1100457793036185 21.6814226512098465 22.1559616728249082 3.3168036906063092 -0.1159145390980517 -0.1054216953830018 0.0451822203347003 
   97900 1442.0041751569951884 -10708.1772129985965876 -10736.1386039624630939 27.9613909638667408 -68.4433181768283561 -5387.9814011636681244 -5308.7224257188336196 -39.4347770799615276 0.0000000000000000 150.3257361471315505 21.6683433584740115 22.1483683007297607 3.3247020722537979 -0.1358799696202208 -0.0413773350581033 0.0980210575724651 
   98000 1443.5036742770462297 -10708.1717844336981216 -10735.4930261333174712 27.3212416996196872 -67.8587930135913950 -5388.1348787564020313 -5307.9062493488936525 -39.4518980280217448 0.0000000000000000 146.8841724024545385 21.6565986166996503 22.1484237164260591 3.3272671931851674 -0.0884990859611093 0.0394770290281675 -0.0712098897988468 
   98100 1444.9456359830219299 -10708.1728314800930093 -10735.5997334881667484 27.4269020080738777 -69.7695536692673954 -5387.8443616244076111 -5308.2412003707613621 -39.5141714929966810 0.0000000000000000 147.4522222419791433 21.6520505372620029 22.1558327056489155 3.3161404295809493 0.0024985185031699 0.1041779083354892 -0.0877584822094173 
   98200 1446.6554086910327896 -10708.1804293975383189 -10736.1984309020372166 28.0180015044988906 -69.4562707590985440 -5388.4746972487555468 -5308.1899649815413795 -39.5337686717392032 0.0000000000000000 150.6300851405422065 21.6569026366895621 22.1674467899728249 3.3176230699816522 0.0894700514053736 0.1205172608001762 0.1042173724790601 
   98300 1448.1444582340191118 -10708.1801012672349316 -10736.1478146920326253 27.9677134247977790 -67.7282818424324091 -5388.4444390351163747 -5308.2342237886405201 -39.4691518682775779 0.0000000000000000 150.3597268951221508 21.6683944896877669 22.1780416305270194 3.3282368076525750 0.1327432157959282 0.0849281609757976 0.0478995634995700 
   98400 1449.5827246200060472 -10708.1877511700167815 -10736.7865279312063649 28.5987767611893773 -68.5326561324350081 -5388.6563558229845512 -5308.6348266150953350 -39.4953454931270755 0.0000000000000000 153.7524429699813027 21.6817422123510859 22.1834658386592380 3.3236442724813711 0.1245994842987088 0.0213295757837705 -0.1065828473413168 
   98500 1451.0189514340017922 -10708.1796285455202451 -10735.8982618369300326 27.7186332914093008 -69.7266427693781026 -5387.7365297518581428 -5308.6938656102120149 -39.4678664748603936 0.0000000000000000 149.0206249005312884 21.6910120605769450 22.1812530970809085 3.3160579306993769 0.0513671810704931 -0.0681497239127656 -0.0052841052523885 
   98600 1452.4400116030010395 -10708.1754770851275680 -10735.9475117147267156 27.7720346295995952 -68.7925539789800382 -5388.0519623027939815 -5308.3595329839026817 -39.5360164280313100 0.0000000000000000 149.3077206135118047 21.6916971681190915 22.1709490665868714 3.3215544803211343 -0.0399806971259947 -0.1277620237500910 0.0754491955766112 
   98700 1453.8685885000159033 -10708.1795543430616817 -10736.2464656014453794 28.0669112583846001 -68.3403346919584749 -5387.9327242560002560 -5308.7461262134729623 -39.5676151319719906 0.0000000000000000 150.8930332452035827 21.6833817898024179 22.1580270220478468 3.3245728309282199 -0.1179542637919172 -0.1235351959298436 -0.0240257490240645 
   98800 1455.3106104520265944 -10708.1720779832230619 -10735.3375855195554323 27.1655075363328464 -69.4333873096109357 -5387.6642011550829920 -5308.2018921018025139 -39.4714922626699263 0.0000000000000000 146.0469160309955896 21.6699701790123029 22.1479133649760236 3.3179290849679099 -0.1405480619460255 -0.0703311350262946 -0.0628604841262080 
   98900 1456.7321625580079854 -10708.1758580552923377 -10736.1473634551039140 27.9715053998114165 -69.2721893111608722 -5387.8808412181524545 -5308.6679452136886539 -39.5985770232616687 0.0000000000000000 150.3801132713261666 21.6573432481549979 22.1457378828489482 3.3184326266037214 -0.0996559414901156 0.0288015948174337 0.0621626791927883 
   99000 1458.1453679790138267 -10708.1643959921148053 -10735.4971582475809555 27.3327622554661147 -68.3483442136590185 -5388.0638875538297725 -5308.0244223829904513 -39.4088483107585930 0.0000000000000000 146.9461090936826793 21.6516069112177583 22.1529863714754320 3.3250541988730760 -0.0115201409148523 0.1087979712493821 0.0552774638693241 
   99100 1459.5697314370190725 -10708.1822631278009794 -10736.2572743444179650 28.0750112166168115 -68.2555485632795893 -5388.2855563816983704 -5308.4868808551045731 -39.4848371076147089 0.0000000000000000 150.9365801554982625 21.6551121075827062 22.1651950388092729 3.3247384013112913 0.0802950425385264 0.1240332269444683 -0.0803835502492972 
   99200 1460.9852237260201946 -10708.1866657756472705 -10736.6373453376399993 28.4506795619919508 -69.8695430036275127 -5387.8754420630712048 -5309.1841134789156058 -39.5777897956515829 0.0000000000000000 152.9562443645739052 21.6661592178050455 22.1764867664399539 3.3151913836862383 0.1346808685751619 0.0936785112548887 -0.0602772149684676 
   99300 1462.4098959640250541 -10708.1820034582560766 -10736.4676036637429206 28.2856002054870181 -69.3418147523456412 -5388.6131093963676904 -5308.3139778712939005 -39.5405163960807613 0.0000000000000000 152.0687464635801120 21.6801480699170241 22.1827106278129662 3.3183522361302122 0.1330383266566396 0.0263974600500654 0.0964820153404314 
   99400 1463.8484472840209492 -10708.1782921354442806 -10736.6746695901510975 28.4963774547061846 -67.7246638610579055 -5388.3490539507838548 -5308.8515061508187500 -39.4741094885482227 0.0000000000000000 153.2019248949708867 21.6908392934853822 22.1809975468934724 3.3280349945352370 0.0710874369670762 -0.0592697421023445 0.0393075935061297 
   99500 1465.3808477660058998 -10708.1779325127936318 -10735.9634639192809118 27.7855314064868999 -68.6538860620329388 -5388.2243060435312145 -5308.2734753386630473 -39.4656825370858968 0.0000000000000000 149.3802818435242727 21.6929928102593728 22.1718628489494201 3.3231109190345332 -0.0329065136873757 -0.1174649787106386 -0.1026637778208810 
   99600 1467.0734056860092096 -10708.1806313380875508 -10736.1733645295425958 27.9927331914543309 -69.7268302211778064 -5388.2939030596844532 -5308.4314253328939230 -39.4480361369641983 0.0000000000000000 150.4942379015930385 21.6850139579310479 22.1594908912755457 3.3160505324724094 -0.1200829189204319 -0.1186270183829830 -0.0002262805341029 
   99700 1468.4976871760445647 -10708.1824003966867167 -10736.3379339980383520 28.1555336013513653 -68.6900030114652225 -5388.2029956531805510 -5308.6322675922438066 -39.5026707526127510 0.0000000000000000 151.3694837537915987 21.6714162922958025 22.1499214658653010 3.3224740916847675 -0.1397694292628634 -0.0672252660534930 0.0961879107331645 
   99800 1470.1852698820293881 -10708.1812854061408871 -10736.0735907708403829 27.8923053646997552 -68.0375385070581160 -5388.0067879442176491 -5308.5932215461352826 -39.4735812804881476 0.0000000000000000 149.9543188751738114 21.6587381986238441 22.1470678049184500 3.3267657002026922 -0.1033191229280238 0.0111255321407606 -0.0226360711555850 
   99900 1471.6321362210437655 -10708.1764511260353174 -10736.2585193898466969 28.0820682638117987 -69.1677076882655939 -5388.4652587325545028 -5308.2766084067407064 -39.5166522505507061 0.0000000000000000 150.9745201784385529 21.6522874516504444 22.1520891136360376 3.3190575856061040 -0.0204754378034812 0.0881113308326752 -0.0999873810107424 
  100000 1473.1829526250367053 -10708.1898920985131554 -10736.8340631166174717 28.6441710181047924 -69.5647461524297910 -5388.6964419849937258 -5308.5850824796762026 -39.5525386519472519 0.0000000000000000 153.9964910967887306 21.6547861055492170 22.1632691291017316 3.3170737799082510 0.0677772714934534 0.1252992320035798 0.0747914985393593 
Loop time of 1473.19 on 4 procs for 100000 steps with 1440 atoms

Performance: 5.865 ns/day, 4.092 hours/ns, 67.880 timesteps/s
99.9% CPU use with 4 MPI tasks x 1 OpenMP threads

MPI task timing breakdown:
Section |  min time  |  avg time  |  max time  |%varavg| %total
---------------------------------------------------------------
Pair    | 1283.2     | 1349.7     | 1435.1     | 174.7 | 91.62
Bond    | 0.042192   | 0.04482    | 0.046891   |   0.8 |  0.00
Neigh   | 0          | 0          | 0          |   0.0 |  0.00
Comm    | 32.91      | 118.23     | 184.78     | 590.1 |  8.03
Output  | 3.5155     | 3.5172     | 3.5221     |   0.2 |  0.24
Modify  | 0.48997    | 0.51016    | 0.53903    |   2.5 |  0.03
Other   |            | 1.142      |            |       |  0.08

Nlocal:    360 ave 380 max 340 min
Histogram: 2 0 0 0 0 0 0 0 0 2
Nghost:    4716 ave 4736 max 4696 min
Histogram: 2 0 0 0 0 0 0 0 0 2
Neighs:    35100 ave 37050 max 33150 min
Histogram: 2 0 0 0 0 0 0 0 0 2
FullNghs:  70200 ave 74100 max 66300 min
Histogram: 2 0 0 0 0 0 0 0 0 2

Total # of neighbors = 280800
Ave neighs/atom = 195
Ave special neighs/atom = 0
Neighbor list builds = 0
Dangerous builds = 0
Total wall time: 0:24:33
