LAMMPS (29 Oct 2020)
OMP_NUM_THREADS environment is not set. Defaulting to 1 thread. (src/lammps/src/comm.cpp:94)
  using 1 OpenMP thread(s) per MPI task
Reading data file ...
  orthogonal box = (0.0000000 0.0000000 0.0000000) to (29.204526 29.204526 29.204526)
  2 by 2 by 3 MPI processor grid
  reading atoms ...
  1800 atoms
  scanning bonds ...
  1 = max bonds/atom
  scanning angles ...
  1 = max angles/atom
  reading bonds ...
  1200 bonds
  reading angles ...
  600 angles
Finding 1-2 1-3 1-4 neighbors ...
  special bond factors lj:    0        0        0.5     
  special bond factors coul:  0        0        0.5     
     2 = max # of 1-2 neighbors
     1 = max # of 1-3 neighbors
     1 = max # of 1-4 neighbors
     2 = max # of special neighbors
  special bonds CPU = 0.002 seconds
  read_data CPU = 0.019 seconds
Finding SHAKE clusters ...
       0 = # of size 2 clusters
     600 = # of size 3 clusters
       0 = # of size 4 clusters
       0 = # of frozen angles
  find clusters CPU = 0.001 seconds
Setting atom values ...
  3 settings made for charge
PPPM initialization ...
  using 12-bit tables for long-range coulomb (src/lammps/src/kspace.cpp:339)
  G vector (1/distance) = 0.25066829
  grid = 20 20 20
  stencil order = 5
  estimated absolute RMS force accuracy = 0.0030719151
  estimated relative force accuracy = 9.250981e-06
  using double precision FFTW3
  3d grid and FFT values/proc = 3757 800
Neighbor list info ...
  update every 1 steps, delay 10 steps, check yes
  max neighbors/atom: 2000, page size: 100000
  master list distance cutoff = 14
  ghost atom cutoff = 14
  binsize = 7, bins = 5 5 5
  1 neighbor lists, perpetual/occasional/extra = 1 0 0
  (1) pair lj/cut/coul/long, perpetual
      attributes: half, newton on
      pair build: half/bin/newton
      stencil: half/bin/3d/newton
      bin: standard
Setting up Verlet run ...
  Unit style    : real
  Current step  : 0
  Time step     : 1
Per MPI rank memory allocation (min/avg/max) = 8.214 | 8.226 | 8.244 Mbytes
Step CPU TotEng KinEng PotEng E_vdwl E_coul E_long Temp Press Volume Density 
       0            0    1344.0739     1251.046    93.027896    53.823145    30049.554   -30010.349          300    10284.878    24908.667   0.72058313 
    5000       26.813   -5450.5713    1282.0681   -6732.6394    1325.6489     21834.91   -30297.994    307.43909   -699.90679    18234.717   0.98431826 
   10000    55.604067    -5588.263    1217.9162   -6806.1792    1414.4085    21633.044   -30301.477    292.05551    23.383255    17964.154   0.99914336 
   15000    85.625894   -5502.4932    1306.1963   -6808.6896    1448.9698    21589.863   -30300.506    313.22502    674.44388    17764.828     1.010354 
   20000    119.30994   -5551.8753    1255.7906   -6807.6659    1438.0508    21600.534   -30296.631    301.13775    626.57778    17521.241    1.0244003 
   25000    153.36332   -5513.3214    1262.2974   -6775.6188    1448.1692    21624.738   -30300.649    302.69809    1082.1686    17539.064    1.0233594 
   30000    185.73754     -5517.07    1232.0851   -6749.1552    1351.1278    21743.778   -30297.746    295.45321   -345.74832    17641.782    1.0174009 
   35000    219.88466   -5461.9885    1261.1109   -6723.0993    1320.5321     21811.17   -30298.154    302.41356   -633.99545    17793.771    1.0087106 
   40000    250.59178   -5478.4688    1259.9078   -6738.3767    1361.0965    21772.195   -30298.632    302.12507    251.40827    17555.015    1.0224295 
   45000      284.497   -5586.9018    1253.0148   -6839.9166    1368.2811    21661.619   -30296.221    300.47212   -485.67054    17692.537    1.0144823 
   50000    318.07759   -5566.6473    1284.4686    -6851.116    1421.3632    21574.213   -30298.299    308.01473    123.81461    17666.827    1.0159586 
   55000     342.2475   -5571.8668     1241.516   -6813.3827    1320.1575    21745.617   -30297.514    297.71471    -757.9971    17553.891    1.0224949 
   60000    369.92714   -5405.9904    1244.2976    -6650.288    1321.6833    21864.494   -30297.613    298.38174    -252.7118    17729.038    1.0123936 
   65000    400.90471   -5536.8199    1222.3639   -6759.1838    1335.2142    21756.337   -30299.402    293.12205   -425.71516    17495.348    1.0259165 
   70000    421.35603   -5552.3284    1260.2509   -6812.5793     1340.624    21697.664   -30296.839    302.20732   -845.04229    17882.237    1.0037204 
   75000    441.98615    -5494.066    1286.3299   -6780.3959     1404.289    21683.326   -30293.835    308.46107    382.75947    17905.291     1.002428 
   80000     462.4957   -5550.6324    1269.8456   -6820.4779    1356.8274    21698.112   -30298.489    304.50813   -534.46185    17874.446    1.0041579 
   85000      483.079   -5656.6158    1200.4648   -6857.0807    1457.2846    21562.254     -30300.6    287.87068    686.28181    17521.518    1.0243841 
   90000    510.58296   -5480.2188    1242.2417   -6722.4605    1325.1999    21772.005     -30296.2    297.88874   -353.59603    17662.908     1.016184 
   95000    531.29699   -5537.8929    1265.7042   -6803.5971    1376.1449    21683.369   -30297.657    303.51504    -263.8525    17673.753    1.0155605 
  100000    563.33023   -5538.2683    1254.8684   -6793.1367    1343.4731    21751.843   -30299.503    300.91662   -623.47098    17857.853    1.0050909 
Loop time of 563.33 on 12 procs for 100000 steps with 1800 atoms

Performance: 15.337 ns/day, 1.565 hours/ns, 177.516 timesteps/s
94.5% CPU use with 12 MPI tasks x 1 OpenMP threads

MPI task timing breakdown:
Section |  min time  |  avg time  |  max time  |%varavg| %total
---------------------------------------------------------------
Pair    | 284.09     | 305.4      | 330.52     |  90.7 | 54.21
Bond    | 1.0744     | 1.1159     | 1.1633     |   3.1 |  0.20
Kspace  | 101.59     | 125.93     | 147.73     | 141.3 | 22.35
Neigh   | 22.44      | 22.466     | 22.486     |   0.3 |  3.99
Comm    | 39.278     | 41.789     | 46.639     |  43.5 |  7.42
Output  | 0.0012299  | 0.0012852  | 0.0017706  |   0.4 |  0.00
Modify  | 42.543     | 55.366     | 62.194     | 102.3 |  9.83
Other   |            | 11.26      |            |       |  2.00

Nlocal:        150.000 ave         163 max         133 min
Histogram: 1 1 0 0 1 3 3 0 1 2
Nghost:        6108.25 ave        6187 max        6048 min
Histogram: 3 0 2 1 1 1 1 1 1 1
Neighs:        86944.1 ave       96258 max       75267 min
Histogram: 2 0 1 0 1 0 3 3 1 1

Total # of neighbors = 1043329
Ave neighs/atom = 579.62722
Ave special neighs/atom = 2.0000000
Neighbor list builds = 4470
Dangerous builds = 9
PPPM initialization ...
  using 12-bit tables for long-range coulomb (src/lammps/src/kspace.cpp:339)
  G vector (1/distance) = 0.25102555
  grid = 18 18 18
  stencil order = 5
  estimated absolute RMS force accuracy = 0.0035374557
  estimated relative force accuracy = 1.0652943e-05
  using double precision FFTW3
  3d grid and FFT values/proc = 3328 648
FEP settings ...
  temperature = 300.000000
  tail no
  1-1 charge
  2-2 charge
Setting up Verlet run ...
  Unit style    : real
  Current step  : 0
  Time step     : 1
Per MPI rank memory allocation (min/avg/max) = 8.592 | 8.613 | 8.629 Mbytes
Step TotEng KinEng PotEng E_vdwl E_coul E_long Temp Press Density v_lambda v_qO v_qH 
       0   -5538.2733    1254.8684   -6793.1417    1343.4731    21794.974    -30342.64    300.91662   -475.71492    1.0050909            0           -0            0 
    5000   -5579.9374      1246.75   -6826.6874    1443.8973    21614.133   -30343.039    298.96983    785.16037    1.0322471       0.0025    -0.002119    0.0010595 
   10000   -5528.9995     1276.273   -6805.2725    1375.6345     21734.24   -30343.779    306.04943   -41.209531    1.0207823        0.005    -0.004238     0.002119 
   15000   -5506.4227    1270.5724   -6776.9951     1356.298    21760.893    -30339.74    304.68242   -483.58254    1.0055775       0.0075    -0.006357    0.0031785 
   20000   -5520.1985     1271.766   -6791.9645    1413.5454    21705.741   -30340.672    304.96864   -25.849632    0.9997261         0.01    -0.008476     0.004238 
   25000   -5538.0793     1260.547   -6798.6264    1362.2032    21772.012   -30341.973    302.27834   -32.008776    1.0238659       0.0125    -0.010595    0.0052975 
   30000   -5519.1594     1267.066   -6786.2254    1327.6996    21784.187   -30341.191    303.84159   -919.77668   0.99978921        0.015    -0.012714     0.006357 
   35000   -5565.8849    1244.6201    -6810.505    1384.6297    21700.099   -30337.317    298.45908   -41.645325    1.0154185       0.0175    -0.014833    0.0074165 
   40000   -5610.4882    1225.8647   -6836.3529    1416.9133    21661.893   -30343.456    293.96154    86.229199    1.0091158         0.02    -0.016952     0.008476 
   45000   -5609.3562    1208.1008    -6817.457    1387.4135    21711.193   -30343.791    289.70178   -101.30213    1.0155204       0.0225    -0.019071    0.0095355 
   50000   -5512.9435    1272.9818   -6785.9253    1379.4084    21746.829   -30342.184     305.2602   -12.658236    1.0143328        0.025     -0.02119     0.010595 
   55000    -5568.845    1249.4227   -6818.2677    1397.4685    21704.581   -30340.419    299.61074   -409.12372   0.99849506       0.0275    -0.023309    0.0116545 
   60000   -5519.3972    1216.5292   -6735.9264    1369.8115    21830.467   -30342.642    291.72291    117.70437    1.0138535         0.03    -0.025428     0.012714 
   65000   -5525.0539    1229.5034   -6754.5573    1354.6275    21755.174   -30340.101     294.8341    -462.0909    1.0102225       0.0325    -0.027547    0.0137735 
   70000   -5472.0836    1237.9936   -6710.0772    1352.7747    21872.795   -30340.246    296.87006   -5.9707079     1.010185        0.035    -0.029666     0.014833 
   75000   -5514.8966    1241.7822   -6756.6788    1369.2902    21788.901   -30344.123    297.77855   -36.505421    1.0055449       0.0375    -0.031785    0.0158925 
   80000   -5501.5809    1244.4839   -6746.0648    1406.1414    21762.858   -30338.116    298.42642     356.6391    1.0044866         0.04    -0.033904     0.016952 
   85000   -5522.8846    1243.4435   -6766.3281     1277.631     21834.13   -30341.071    298.17693   -1501.0557    1.0030405       0.0425    -0.036023    0.0180115 
   90000   -5521.2512    1226.9606   -6748.2118    1426.6301    21707.584   -30342.842    294.22434    431.61937    1.0037325        0.045    -0.038142     0.019071 
   95000   -5606.4261    1239.7565   -6846.1826    1458.2919    21603.577   -30341.265     297.2928     452.3491    1.0064454       0.0475    -0.040261    0.0201305 
  100000   -5526.6029    1244.4811    -6771.084    1442.7891     21665.95    -30338.28    298.42575    499.20413    1.0045851         0.05     -0.04238      0.02119 
  105000   -5589.4951    1234.4407   -6823.9358    1418.2214    21663.025   -30341.483    296.01807    101.88725    1.0139383       0.0525    -0.044499    0.0222495 
  110000    -5511.859    1262.1425   -6774.0015    1353.5279    21783.245   -30339.283    302.66093   -199.18931    1.0257755        0.055    -0.046618     0.023309 
  115000   -5647.3449     1229.413    -6876.758    1408.5179    21641.362   -30341.598    294.81243   -298.02921    1.0020969       0.0575    -0.048737    0.0243685 
  120000   -5449.7674    1281.3875    -6731.155    1304.5518    21888.494   -30341.641    307.27589     -694.089    1.0046108         0.06    -0.050856     0.025428 
  125000   -5430.3553    1247.5854   -6677.9407    1342.5284    21899.097   -30343.376    299.17016    125.17161    1.0091105       0.0625    -0.052975    0.0264875 
  130000   -5604.2229     1198.864   -6803.0869    1343.9437    21741.913   -30342.105     287.4868   -1029.1103   0.99252488        0.065    -0.055094     0.027547 
  135000   -5550.2149    1233.8869   -6784.1018    1298.4466    21844.496   -30341.697    295.88527   -1083.9932    1.0128891       0.0675    -0.057213    0.0286065 
  140000   -5526.9114    1246.4353   -6773.3466    1346.6874    21790.011   -30343.164    298.89435   -384.65885    1.0089922         0.07    -0.059332     0.029666 
  145000   -5594.7954    1213.2963   -6808.0917    1391.4251    21671.653   -30341.641    290.94766   -59.474002    1.0195886       0.0725    -0.061451    0.0307255 
  150000   -5580.5229    1259.8574   -6840.3803    1384.5548    21703.974   -30342.483    302.11297   -91.974674    1.0257584        0.075     -0.06357     0.031785 
  155000   -5566.2712     1230.138   -6796.4093    1366.5696    21707.576   -30336.313    294.98629   -482.01244    1.0070735       0.0775    -0.065689    0.0328445 
  160000   -5491.8647    1293.2326   -6785.0974    1386.5259    21718.735   -30343.487    310.11633   -89.376893    1.0093767         0.08    -0.067808     0.033904 
  165000   -5531.3681    1279.7729   -6811.1409    1354.4198    21753.203   -30342.651    306.88869   -392.95774    1.0134907       0.0825    -0.069927    0.0349635 
  170000   -5594.2308    1213.4715   -6807.7023    1482.6412    21600.249   -30341.895    290.98966    928.50126    1.0132201        0.085    -0.072046     0.036023 
  175000   -5519.3482    1257.2925   -6776.6407    1420.4909    21726.753   -30340.213    301.49792    254.94623   0.98901793       0.0875    -0.074165    0.0370825 
  180000    -5426.929    1250.4297   -6677.3587     1356.866    21886.349     -30343.3    299.85221    -245.8457   0.98302571         0.09    -0.076284     0.038142 
  185000   -5512.2746    1245.7072   -6757.9817    1380.9844      21794.2   -30342.884    298.71976    149.05128    1.0150091       0.0925    -0.078403    0.0392015 
  190000   -5449.1514    1266.5892   -6715.7406    1324.6562    21889.348   -30342.468    303.72725   -620.02591    1.0004189        0.095    -0.080522     0.040261 
  195000   -5479.3945    1315.5655     -6794.96    1485.0588    21649.278   -30344.957    315.47174    1314.4492    1.0231026       0.0975    -0.082641    0.0413205 
  200000   -5563.7047    1217.2005   -6780.9051    1358.0191    21745.737   -30342.731    291.88386   -588.88047    1.0064764          0.1     -0.08476      0.04238 
  205000   -5580.3808    1230.1745   -6810.5553    1411.4424    21686.461   -30344.166    294.99504    214.77057    1.0029345       0.1025    -0.086879    0.0434395 
  210000   -5498.3534    1242.7043   -6741.0576    1370.6141    21796.013   -30341.015    297.99966   -26.716679    1.0117516        0.105    -0.088998     0.044499 
  215000   -5458.5956    1250.9454    -6709.541    1395.6557    21783.461   -30338.225    299.97588    406.41699    1.0137518       0.1075    -0.091117    0.0455585 
  220000    -5626.602    1214.9754   -6841.5774    1473.3289    21571.914   -30341.748     291.3503    599.47976    1.0096167         0.11    -0.093236     0.046618 
  225000   -5600.5356    1224.9039   -6825.4395    1342.4891    21754.804   -30341.025    293.73115   -626.27228    1.0198862       0.1125    -0.095355    0.0476775 
  230000   -5454.9477    1275.1464   -6730.0941    1372.8993    21798.515   -30340.963    305.77926    154.34847    1.0029435        0.115    -0.097474     0.048737 
  235000   -5481.9555    1227.4931   -6709.4486     1352.587    21840.233   -30343.313    294.35203   -208.20676    1.0008406       0.1175    -0.099593    0.0497965 
  240000    -5558.573    1218.8864   -6777.4595    1385.8452     21752.45   -30343.537    292.28816    162.10969    1.0215047         0.12    -0.101712     0.050856 
  245000   -5520.9207    1225.4691   -6746.3898    1338.4141    21841.905   -30342.557    293.86667   -587.07136   0.99909027       0.1225    -0.103831    0.0519155 
  250000   -5469.8293    1274.8021   -6744.6315    1384.4128    21775.904   -30342.629    305.69671    64.465989    1.0105027        0.125     -0.10595     0.052975 
  255000   -5583.4632     1209.565   -6793.0282    1426.1758    21667.168   -30342.466     290.0529    515.82984    1.0156235       0.1275    -0.108069    0.0540345 
  260000   -5536.1405     1237.073   -6773.2135    1357.8241     21771.52   -30340.823    296.64929   -438.57147    1.0071049         0.13    -0.110188     0.055094 
  265000   -5611.0013    1237.3831   -6848.3844    1417.6236    21598.469   -30339.452    296.72365   -367.70672   0.99925355       0.1325    -0.112307    0.0561535 
  270000   -5551.1345    1227.3483   -6778.4827    1430.3281    21692.104   -30340.818    294.31731    287.00159    1.0010721        0.135    -0.114426     0.057213 
  275000   -5602.2651    1241.1358   -6843.4009    1391.9031    21673.697    -30343.58    297.62355   -264.79926     1.014186       0.1375    -0.116545    0.0582725 
  280000   -5505.2292    1277.7478   -6782.9769    1380.5349    21747.333   -30343.992    306.40307    39.871379    1.0224709         0.14    -0.118664     0.059332 
  285000   -5527.7736    1230.4336   -6758.2072    1397.1892    21732.299   -30342.417    295.05716    276.95418    1.0126839       0.1425    -0.120783    0.0603915 
  290000   -5450.4061    1265.2269   -6715.6329    1360.3141    21842.086       -30344    303.40057    207.59349    1.0147077        0.145    -0.122902     0.061451 
  295000   -5617.5993    1217.4105   -6835.0098    1487.1573    21606.767   -30340.365    291.93424    808.20982    1.0058589       0.1475    -0.125021    0.0625105 
  300000   -5543.8664    1236.4411   -6780.3075    1377.4792    21755.298   -30344.078    296.49776   -182.45633    1.0097782         0.15     -0.12714      0.06357 
  305000   -5609.1426    1227.6292   -6836.7719    1437.6073    21603.923   -30343.337    294.38468    575.20852    1.0196556       0.1525    -0.129259    0.0646295 
  310000   -5549.1828    1228.5889   -6777.7717    1394.6395     21691.45   -30340.369    294.61482    348.39727    1.0352996        0.155    -0.131378     0.065689 
  315000    -5535.243    1248.2444   -6783.4874    1342.2366    21792.192   -30343.483    299.32819   -625.73677    1.0050826       0.1575    -0.133497    0.0667485 
  320000   -5534.3687    1255.4471   -6789.8158    1391.0816    21739.717   -30344.081    301.05539    302.16436    1.0216155         0.16    -0.135616     0.067808 
  325000   -5471.3922    1279.3669    -6750.759    1350.9981    21795.148   -30342.392    306.79133   -197.30703    1.0143436       0.1625    -0.137735    0.0688675 
  330000   -5598.8232    1226.4651   -6825.2883    1398.7718    21677.079     -30344.7    294.10553   -213.61646    1.0148836        0.165    -0.139854     0.069927 
  335000   -5551.2529    1259.6937   -6810.9465    1387.3662    21685.187   -30344.308    302.07371    138.36812    1.0229544       0.1675    -0.141973    0.0709865 
  340000   -5614.9057    1204.9401   -6819.8458    1400.0625    21668.036    -30343.31    288.94385   -386.78257   0.99685483         0.17    -0.144092     0.072046 
  345000   -5520.3252    1245.9691   -6766.2942    1428.7502    21696.415   -30345.482    298.78256    768.45616    1.0192108       0.1725    -0.146211    0.0731055 
  350000   -5513.6753    1249.7279   -6763.4032    1284.3535    21864.411   -30343.729    299.68392   -1040.9933    1.0093189        0.175     -0.14833     0.074165 
  355000   -5547.2549    1244.5392   -6791.7941    1428.3735     21662.08    -30340.69    298.43968    593.10891    1.0193921       0.1775    -0.150449    0.0752245 
  360000   -5589.7133    1245.8181   -6835.5314    1358.8909    21676.184   -30346.212    298.74637   -615.61801    1.0169406         0.18    -0.152568     0.076284 
  365000   -5487.1246    1223.3024    -6710.427    1333.6832    21894.405     -30339.2    293.34711   -385.63992   0.99614598       0.1825    -0.154687    0.0773435 
  370000   -5557.3434    1261.7301   -6819.0735    1430.6594     21657.49   -30341.935    302.56204    256.97472    1.0130616        0.185    -0.156806     0.078403 
  375000   -5453.0587    1250.9921   -6704.0508    1417.9533    21782.943   -30342.475    299.98708    759.88581     1.005535       0.1875    -0.158925    0.0794625 
  380000   -5556.3547     1222.266   -6778.6207    1358.5536    21812.006   -30343.775    293.09858    -190.9931    1.0101874         0.19    -0.161044     0.080522 
  385000   -5501.4025    1265.3304   -6766.7328    1424.8468    21722.251   -30342.613    303.42538    676.19284    1.0082991       0.1925    -0.163163    0.0815815 
  390000   -5553.0922    1226.1248    -6779.217    1386.2701    21755.237   -30343.024    294.02392   -55.846714    1.0141611        0.195    -0.165282     0.082641 
  395000   -5464.7179    1292.5065   -6757.2245    1391.9142    21755.809   -30342.569    309.94221    143.63086     1.001399       0.1975    -0.167401    0.0837005 
  400000   -5552.2274    1226.6092   -6778.8365    1437.5354    21706.283   -30344.844    294.14007    383.64397   0.99717814          0.2     -0.16952      0.08476 
  405000   -5465.9964    1302.7208   -6768.7172    1272.3678    21868.849   -30344.642    312.39159   -1291.0003    1.0128426       0.2025    -0.171639    0.0858195 
  410000   -5502.6819    1234.6487   -6737.3307    1351.0308    21789.612   -30344.433    296.06795   -265.76646    1.0210657        0.205    -0.173758     0.086879 
  415000   -5633.7475    1231.4568   -6865.2043    1369.0122    21700.285   -30343.991    295.30253   -446.38607    1.0197817       0.2075    -0.175877    0.0879385 
  420000   -5501.9642    1301.7275   -6803.6917    1383.0254    21739.249   -30343.668     312.1534    167.94828    1.0154563         0.21    -0.177996     0.088998 
  425000   -5532.9109    1273.6513   -6806.5622     1353.034    21735.703   -30341.962    305.42074    -386.7674    1.0176249       0.2125    -0.180115    0.0900575 
  430000   -5610.4928    1229.6066   -6840.0994    1384.0534     21685.85   -30340.003    294.85885   -392.26296    1.0166946        0.215    -0.182234     0.091117 
  435000   -5485.4138     1292.946   -6778.3598    1331.4915    21809.953   -30343.379    310.04759   -684.00607   0.99728831       0.2175    -0.184353    0.0921765 
  440000    -5423.494    1275.8582   -6699.3523    1355.0802    21885.761    -30344.38    305.94996   -61.348045    1.0030785         0.22    -0.186472     0.093236 
  445000   -5543.7469    1262.7456   -6806.4925    1292.6629    21801.211   -30345.175    302.80557   -942.29675     1.019957       0.2225    -0.188591    0.0942955 
  450000   -5508.6756    1254.0646   -6762.7401    1336.3483    21793.153   -30345.515    300.72385   -424.30387    1.0135307        0.225     -0.19071     0.095355 
  455000     -5536.23    1241.0621   -6777.2921    1356.0154    21765.992    -30341.02    297.60588   -415.44019     1.013923       0.2275    -0.192829    0.0964145 
  460000   -5519.3214    1227.2661   -6746.5875    1350.5669    21793.876   -30345.691     294.2976   -838.27228   0.98835279         0.23    -0.194948     0.097474 
  465000   -5569.5398    1206.1409   -6775.6808    1341.3479    21779.493   -30347.065     289.2318   -1009.2997   0.98862235       0.2325    -0.197067    0.0985335 
  470000   -5477.9533    1252.9751   -6730.9284    1332.4765    21850.802   -30347.395    300.46261   -434.01812    1.0083102        0.235    -0.199186     0.099593 
  475000   -5454.9313    1285.8036   -6740.7349    1455.9404    21718.761   -30341.504    308.33485    1197.5128     1.018547       0.2375    -0.201305    0.1006525 
  480000   -5500.6228    1264.0646   -6764.6874    1416.1687      21720.5   -30344.339    303.12185    658.63999    1.0148714         0.24    -0.203424     0.101712 
  485000   -5487.2301    1267.1551   -6754.3852    1393.3235    21727.438   -30344.266    303.86296    203.85856    1.0140199       0.2425    -0.205543    0.1027715 
  490000   -5542.8719    1257.8965   -6800.7685    1425.7521    21626.135   -30342.879    301.64276    372.74667    1.0129528        0.245    -0.207662     0.103831 
  495000    -5528.489    1239.5803   -6768.0694    1497.5941    21586.069   -30343.329    297.25054    1242.1701    1.0035294       0.2475    -0.209781    0.1048905 
  500000   -5537.0419    1260.1365   -6797.1784    1368.6229    21717.765   -30341.664    302.17989   -282.78916    1.0246698         0.25      -0.2119      0.10595 
  505000   -5476.9332    1287.4238    -6764.357    1473.5981    21665.477   -30346.513    308.72338    1132.7688    1.0122147       0.2525    -0.214019    0.1070095 
  510000    -5467.851    1267.0655   -6734.9165    1378.6348    21778.869   -30344.441    303.84146    69.208146    1.0140451        0.255    -0.216138     0.108069 
  515000   -5551.9713    1245.7115   -6797.6828    1403.6528    21721.547   -30342.376    298.72079    364.60527    1.0219092       0.2575    -0.218257    0.1091285 
  520000   -5611.3897    1244.7924   -6856.1821     1408.031    21638.811   -30344.364     298.5004    190.73446    1.0278442         0.26    -0.220376     0.110188 
  525000   -5572.5188    1247.1919   -6819.7107      1379.85     21691.92   -30343.696     299.0758   -203.52852    1.0154091       0.2625    -0.222495    0.1112475 
  530000   -5490.5915    1254.3538   -6744.9453    1387.0893    21799.214   -30343.112    300.79321    143.30552    1.0061614        0.265    -0.224614     0.112307 
  535000   -5625.8769    1218.1946   -6844.0715    1520.0402    21545.685   -30344.513    292.12226    1447.1785    1.0166808       0.2675    -0.226733    0.1133665 
  540000   -5469.8413    1287.4258   -6757.2671    1334.5626    21829.046   -30343.092    308.72386   -673.21682    1.0017181         0.27    -0.228852     0.114426 
  545000   -5512.6863    1236.8449   -6749.5313    1318.7318    21858.112   -30344.481     296.5946   -863.71117   0.99129185       0.2725    -0.230971    0.1154855 
  550000   -5639.1715    1217.2608   -6856.4322    1434.9176    21593.482   -30346.132    291.89833    253.12123    1.0171626        0.275     -0.23309     0.116545 
  555000   -5519.0565    1267.6791   -6786.7356    1405.1048    21738.951   -30344.793    303.98862    48.101225   0.99694182       0.2775    -0.235209    0.1176045 
  560000   -5652.7174    1173.1335    -6825.851    1439.7187    21641.222   -30344.805    281.31664    253.14906    1.0090928         0.28    -0.237328     0.118664 
  565000   -5669.4656    1195.4457   -6864.9113    1456.9433    21573.732   -30345.136    286.66708    192.38017    1.0032964       0.2825    -0.239447    0.1197235 
  570000   -5497.9803    1237.3935   -6735.3738    1357.9081    21789.301   -30345.378    296.72614     -251.982    1.0069437        0.285    -0.241566     0.120783 
  575000   -5499.6888    1271.8265   -6771.5154     1443.195    21717.024   -30345.292    304.98316    940.92536     1.012527       0.2875    -0.243685    0.1218425 
  580000   -5490.5569    1271.9789   -6762.5359    1373.9183    21766.793   -30344.227    305.01971    17.578848    1.0172064         0.29    -0.245804     0.122902 
  585000   -5530.2852    1261.3697   -6791.6549    1423.9039    21686.202   -30347.296    302.47562   -11.504613   0.99116915       0.2925    -0.247923    0.1239615 
  590000   -5488.4278    1288.5886   -6777.0164    1468.0208    21640.734   -30343.206    309.00269    759.61005    1.0084625        0.295    -0.250042     0.125021 
  595000   -5588.7416    1194.6582   -6783.3998    1372.9575    21791.426   -30342.728    286.47825   -143.90808    1.0132126       0.2975    -0.252161    0.1260805 
  600000   -5563.6701    1271.4938   -6835.1639    1449.6769    21642.784   -30343.735    304.90337    625.81539     1.011506          0.3     -0.25428      0.12714 
  605000   -5488.2233    1258.2868   -6746.5101    1407.7504    21741.629   -30343.159    301.73634    510.16631    1.0132228       0.3025    -0.256399    0.1281995 
  610000    -5549.338    1238.8653   -6788.2032    1429.9285     21684.29   -30344.283    297.07907    123.93393   0.98486733        0.305    -0.258518     0.129259 
  615000    -5490.009    1293.1302   -6783.1393    1394.1407    21736.673   -30344.121    310.09178    15.132265    1.0008809       0.3075    -0.260637    0.1303185 
  620000   -5557.3108    1229.2075   -6786.5184    1428.7497    21675.082   -30342.962    294.76316    221.88021   0.99717009         0.31    -0.262756     0.131378 
  625000   -5471.4619    1265.6593   -6737.1212    1435.6918    21726.949    -30346.08    303.50427    1082.3293    1.0296014       0.3125    -0.264875    0.1324375 
  630000   -5596.2646    1223.2613   -6819.5259    1310.3452    21748.215   -30349.483    293.33726   -956.30387    1.0193588        0.315    -0.266994     0.133497 
  635000   -5562.8009    1236.4073   -6799.2082    1435.0639    21648.724    -30348.81    296.48966    760.70171    1.0231151       0.3175    -0.269113    0.1345565 
  640000   -5546.5984    1245.5875   -6792.1859    1391.0829    21720.571   -30344.208    298.69107    84.132969    1.0139372         0.32    -0.271232     0.135616 
  645000   -5527.7237    1239.7635   -6767.4873    1469.2669    21670.472   -30347.702    297.29448    905.19045     1.004227       0.3225    -0.273351    0.1366755 
  650000   -5486.0101    1261.5972   -6747.6073    1428.0768    21719.918   -30346.814    302.53018    872.03447    1.0211175        0.325     -0.27547     0.137735 
  655000   -5512.6624    1274.7595   -6787.4218    1407.8255    21738.349   -30345.234    305.68648    315.34392    1.0159005       0.3275    -0.277589    0.1387945 
  660000   -5530.8232    1277.0139   -6807.8371    1411.9654    21724.952   -30344.558    306.22709    228.19739    1.0073576         0.33    -0.279708     0.139854 
  665000   -5584.6646    1210.7846   -6795.4492     1315.201    21842.284   -30345.244    290.34534   -1036.0503   0.99766647       0.3325    -0.281827    0.1409135 
  670000   -5613.7042    1216.7094   -6830.4135    1469.5492    21569.502   -30344.552     291.7661    569.55799    1.0191265        0.335    -0.283946     0.141973 
  675000   -5403.7426    1262.8723   -6666.6149    1452.6942    21769.922   -30345.597    302.83594    882.59425   0.99095227       0.3375    -0.286065    0.1430325 
  680000   -5621.8921    1220.9976   -6842.8897     1408.834    21654.021   -30346.563    292.79442   -296.23945    1.0015159         0.34    -0.288184     0.144092 
  685000    -5488.859    1304.9527   -6793.8117     1364.554    21763.427    -30348.59    312.92679   -211.30923    1.0149918       0.3425    -0.290303    0.1451515 
  690000   -5504.5878    1248.5637   -6753.1515    1384.0982     21716.14   -30343.281    299.40474   -82.795916    1.0093095        0.345    -0.292422     0.146211 
  695000   -5596.2796    1229.4773   -6825.7569    1344.4706     21742.04   -30345.718    294.82784   -1005.4356    1.0046317       0.3475    -0.294541    0.1472705 
  700000   -5532.1829    1295.7513   -6827.9341    1347.6545    21694.469   -30347.727     310.7203   -803.09684    1.0085103         0.35     -0.29666      0.14833 
  705000   -5556.5407    1230.5343    -6787.075    1344.8187    21812.434   -30348.843    295.08131   -201.00712     1.010319       0.3525    -0.298779    0.1493895 
  710000   -5633.8136    1234.4193   -6868.2329    1333.0942    21730.242   -30348.833    296.01293   -1368.0288    1.0000966        0.355    -0.300898     0.150449 
  715000   -5631.0856    1227.5912   -6858.6768    1395.4568    21681.852   -30346.637    294.37556   -255.61879    1.0144939       0.3575    -0.303017    0.1515085 
  720000   -5549.3688    1210.7798   -6760.1486    1418.7021    21758.926   -30350.326     290.3442    536.38975    1.0085621         0.36    -0.305136     0.152568 
  725000   -5628.8043    1231.3533   -6860.1576     1458.785    21573.579   -30350.207    295.27771    707.01861    1.0187202       0.3625    -0.307255    0.1536275 
  730000   -5548.9622    1251.7202   -6800.6824    1421.0395    21671.018   -30346.928    300.16167    167.64307    1.0191958        0.365    -0.309374     0.154687 
  735000   -5500.5941    1264.5064   -6765.1005    1364.4388    21811.902   -30349.578    303.22781   -108.03631    1.0186648       0.3675    -0.311493    0.1557465 
  740000   -5558.7077    1258.2914   -6816.9991    1409.4089    21709.041   -30348.945    301.73744    275.48329    1.0184094         0.37    -0.313612     0.156806 
  745000   -5482.8834    1276.9878   -6759.8711    1311.3195     21878.96   -30349.341    306.22082    -437.5413    1.0200645       0.3725    -0.315731    0.1578655 
  750000   -5535.8763    1236.3636   -6772.2398    1319.5529    21810.776   -30344.948    296.47917   -956.45661    1.0011678        0.375     -0.31785     0.158925 
  755000   -5533.7191    1213.8761   -6747.5953    1306.0985    21808.043   -30348.582    291.08669   -683.27383    1.0227604       0.3775    -0.319969    0.1599845 
  760000   -5429.3835    1303.7005    -6733.084    1333.5357    21913.252   -30348.286    312.62653   -151.87516    1.0091534         0.38    -0.322088     0.161044 
  765000    -5667.794    1212.9659   -6880.7599    1506.7874    21503.139   -30348.871    290.86842    891.10492    1.0215444       0.3825    -0.324207    0.1621035 
  770000   -5484.9356    1311.0182   -6795.9538    1435.0311    21677.068   -30348.949     314.3813    620.96832    1.0136132        0.385    -0.326326     0.163163 
  775000   -5518.6285    1232.7734   -6751.4018     1411.338     21740.98   -30346.257    295.61824    753.30258    1.0333129       0.3875    -0.328445    0.1642225 
  780000   -5537.1259    1217.4396   -6754.5655    1316.3755    21845.361   -30345.727    291.94122   -662.73038    1.0188948         0.39    -0.330564     0.165282 
  785000   -5604.5939    1277.8467   -6882.4407    1444.6878    21553.248     -30348.7     306.4268    227.68388    1.0209541       0.3925    -0.332683    0.1663415 
  790000   -5462.4478    1319.1458   -6781.5936    1327.6125    21815.004   -30349.006    316.33029   -750.24035     1.003079        0.395    -0.334802     0.167401 
  795000   -5487.7929    1318.8959   -6806.6888    1389.8939    21723.298   -30346.719    316.27037   -264.12282   0.99738096       0.3975    -0.336921    0.1684605 
  800000   -5523.8042    1255.7477   -6779.5519    1396.5496    21737.296   -30349.897    301.12747    178.89364     1.007163          0.4     -0.33904      0.16952 
  805000    -5538.132    1228.7841   -6766.9161    1453.7899    21669.265   -30350.684    294.66162    1049.0776    1.0297174       0.4025    -0.341159    0.1705795 
  810000   -5627.0669    1252.1172   -6879.1841    1502.1084    21549.483   -30350.675    300.25688    983.16188    1.0119201        0.405    -0.343278     0.171639 
  815000   -5573.0687    1226.8854   -6799.9541    1394.9184    21727.977   -30347.963    294.20631   -195.24823   0.99836901       0.4075    -0.345397    0.1726985 
  820000   -5621.5966     1294.197   -6915.7936    1463.2446    21542.129   -30349.926     310.3476     619.5463    1.0271072         0.41    -0.347516     0.173758 
  825000   -5616.7109    1249.8626   -6866.5734    1421.5256    21635.884   -30349.527    299.71622   -263.11411   0.99748321       0.4125    -0.349635    0.1748175 
  830000    -5471.708    1265.0891   -6736.7971    1353.2361    21810.332    -30347.83    303.36753   -108.71402    1.0163163        0.415    -0.351754     0.175877 
  835000   -5593.3653    1226.0643   -6819.4296    1488.2202    21624.762   -30347.972     294.0094     1267.159    1.0140919       0.4175    -0.353873    0.1769365 
  840000   -5436.1751    1245.9424   -6682.1175    1341.7719     21874.67   -30349.816    298.77616    37.078091    1.0076819         0.42    -0.355992     0.177996 
  845000   -5557.2162    1246.2846   -6803.5008    1365.7244    21760.327   -30351.424    298.85822   -504.55518    0.9986108       0.4225    -0.358111    0.1790555 
  850000   -5500.2978    1263.3648   -6763.6626    1345.3152    21797.277   -30346.719    302.95405   -493.77227    1.0071264        0.425     -0.36023     0.180115 
  855000   -5532.9745    1235.4096   -6768.3841    1356.9198     21790.77   -30352.767    296.25042   -221.24996    1.0158146       0.4275    -0.362349    0.1811745 
  860000   -5473.4178    1255.0438   -6728.4615    1383.6228    21792.167   -30348.034    300.95866    280.22925    1.0186752         0.43    -0.364468     0.182234 
  865000    -5603.437    1240.4488   -6843.8858    1465.1006    21616.501   -30349.222    297.45881    654.55077     1.007261       0.4325    -0.366587    0.1832935 
  870000   -5499.3395     1276.346   -6775.6855    1440.1417    21672.034   -30350.435    306.06692    628.16253    1.0139482        0.435    -0.368706     0.184353 
  875000   -5513.1545    1243.4424   -6756.5968    1375.4559    21786.838   -30347.817    298.17666   -219.76957   0.99017833       0.4375    -0.370825    0.1854125 
  880000   -5472.5421    1280.3435   -6752.8857    1389.4586    21788.568   -30351.891    307.02554    154.88101    1.0054199         0.44    -0.372944     0.186472 
  885000   -5450.9797    1258.2665   -6709.2462    1459.3097    21782.134   -30350.183    301.73147    980.80415   0.98845289       0.4425    -0.375063    0.1875315 
  890000   -5484.1944    1269.9087   -6754.1031    1387.4264    21765.016   -30349.116    304.52326    204.84716    1.0246385        0.445    -0.377182     0.188591 
  895000   -5581.7831    1248.4268   -6830.2099    1369.3871    21724.547   -30352.181    299.37193   -414.06005    1.0149078       0.4475    -0.379301    0.1896505 
  900000   -5458.4222    1232.2813   -6690.7035    1346.4094    21839.134   -30347.541    295.50024   -50.890974    1.0146972         0.45     -0.38142      0.19071 
  905000    -5513.276    1295.0801   -6808.3561    1376.4555    21731.514   -30351.543    310.55936     311.8453    1.0351056       0.4525    -0.383539    0.1917695 
  910000    -5573.436     1223.655    -6797.091    1400.1726    21683.422   -30350.684    293.43167    236.51663    1.0328044        0.455    -0.385658     0.192829 
  915000   -5533.4538    1223.4571   -6756.9109    1289.5678    21854.813   -30350.499    293.38421   -1263.7914    1.0023563       0.4575    -0.387777    0.1938885 
  920000   -5460.2089    1299.6804   -6759.8892    1426.0806    21734.807   -30345.969     311.6625    660.70504    1.0188703         0.46    -0.389896     0.194948 
  925000   -5586.3754    1190.3746     -6776.75    1370.4255     21793.33   -30353.014    285.45105   -349.07473    1.0001717       0.4625    -0.392015    0.1960075 
  930000   -5495.2747    1270.1927   -6765.4674    1366.3034    21771.462   -30352.631    304.59137   -253.14407    1.0062704        0.465    -0.394134     0.197067 
  935000   -5611.8812     1230.765   -6842.6462    1391.1109    21660.135   -30351.536    295.13663   -220.68043    1.0218857       0.4675    -0.396253    0.1981265 
  940000   -5573.1587    1243.9588   -6817.1176    1382.0507    21706.984   -30350.576    298.30051   -180.40488    1.0138507         0.47    -0.398372     0.199186 
  945000   -5443.1533    1293.3755   -6736.5288    1382.9147    21798.711    -30351.85    310.15058    147.36979    1.0066036       0.4725    -0.400491    0.2002455 
  950000   -5592.1333     1210.312   -6802.4453     1418.411     21688.66    -30351.52    290.23203    428.64993    1.0142914        0.475     -0.40261     0.201305 
  955000   -5470.1207    1296.1018   -6766.2225    1384.9375    21787.214   -30352.361    310.80436     433.7878    1.0216208       0.4775    -0.404729    0.2023645 
  960000     -5526.56    1277.3546   -6803.9145    1435.0129    21692.393   -30354.825    306.30878    456.96466    1.0098621         0.48    -0.406848     0.203424 
  965000   -5547.3226    1267.7833   -6815.1059     1336.807    21754.287   -30354.401    304.01361    -806.5152    1.0089205       0.4825    -0.408967    0.2044835 
  970000   -5590.3411    1253.2629    -6843.604    1436.0627    21619.623   -30354.576    300.53161    744.58683    1.0362403        0.485    -0.411086     0.205543 
  975000   -5495.8789    1288.8517   -6784.7306    1379.6531    21754.168   -30353.143     309.0658    56.414932    1.0194472       0.4875    -0.413205    0.2066025 
  980000    -5626.672    1235.0454   -6861.7174     1422.039    21639.365   -30353.345    296.16306    266.29939    1.0212144         0.49    -0.415324     0.207662 
  985000   -5517.2302    1266.6674   -6783.8976    1419.6659    21739.847   -30353.802      303.746    170.35635    1.0008605       0.4925    -0.417443    0.2087215 
  990000   -5615.6311      1235.67    -6851.301    1498.5618    21566.364    -30353.27    296.31284    929.92737     1.003868        0.495    -0.419562     0.209781 
  995000   -5579.2851    1215.2415   -6794.5265    1446.7531    21659.857   -30349.867     291.4141    803.74446    1.0190058       0.4975    -0.421681    0.2108405 
 1000000   -5581.9464    1263.6254   -6845.5718    1438.0232    21619.891   -30351.248    303.01654    385.93353    1.0173448          0.5      -0.4238       0.2119 
 1005000   -5587.1547    1249.0387   -6836.1934    1366.6385     21760.49   -30352.889    299.51867   -349.59036    1.0129845       0.5025    -0.425919    0.2129595 
 1010000   -5492.8452    1249.3309   -6742.1761    1343.9605    21845.845   -30357.274    299.58872   -278.05905    1.0062862        0.505    -0.428038     0.214019 
 1015000   -5502.1939    1259.7886   -6761.9825    1450.3663    21691.043   -30355.864    302.09648    884.22091    1.0091653       0.5075    -0.430157    0.2150785 
 1020000   -5519.7794    1263.3012   -6783.0806    1348.5309    21772.103   -30355.053    302.93879   -485.09205    1.0162589         0.51    -0.432276     0.216138 
 1025000   -5492.2145    1240.7923   -6733.0068    1347.9912     21829.98   -30355.146    297.54118   -129.21819    1.0122922       0.5125    -0.434395    0.2171975 
 1030000    -5481.098     1251.514    -6732.612    1349.3618    21805.918   -30351.771    300.11222   -294.39997     1.015786        0.515    -0.436514     0.218257 
 1035000   -5540.7907    1274.0244   -6814.8151    1422.1127    21668.122   -30353.396    305.51021   -9.7807193   0.99517879       0.5175    -0.438633    0.2193165 
 1040000    -5511.938    1311.5237   -6823.4617    1415.7285    21685.767   -30355.446    314.50251    557.98532    1.0269334         0.52    -0.440752     0.220376 
 1045000    -5482.845    1244.1463   -6726.9913    1334.7343    21892.686   -30356.188    298.34546   -188.18213     1.008059       0.5225    -0.442871    0.2214355 
 1050000    -5527.147    1257.8916   -6785.0386    1365.7652    21734.325   -30350.269    301.64158    -259.9832    1.0161046        0.525     -0.44499     0.222495 
 1055000   -5539.8717    1252.0619   -6791.9335    1333.1576    21792.877   -30357.118    300.24361   -478.89657    1.0214282       0.5275    -0.447109    0.2235545 
 1060000   -5495.1427    1262.1608   -6757.3034    1324.8343    21817.102    -30350.41    302.66532    -759.6781    1.0013723         0.53    -0.449228     0.224614 
 1065000   -5521.9323    1269.1474   -6791.0797    1383.5193    21729.979   -30354.504     304.3407   -62.142854    1.0143611       0.5325    -0.451347    0.2256735 
 1070000   -5561.1075    1234.4671   -6795.5746     1444.645    21667.151   -30353.573     296.0244    539.71717    1.0090477        0.535    -0.453466     0.226733 
 1075000   -5456.2884    1263.0452   -6719.3336    1372.1813    21849.919   -30353.173     302.8774    136.37572    1.0050362       0.5375    -0.455585    0.2277925 
 1080000   -5454.7662    1277.8421   -6732.6083    1390.7236    21772.189   -30355.181    306.42569    290.51564    1.0135088         0.54    -0.457704     0.228852 
 1085000     -5520.75    1250.6045   -6771.3545    1425.3072    21768.597   -30353.777    299.89414    798.65189    1.0159181       0.5425    -0.459823    0.2299115 
 1090000   -5572.3388    1291.5598   -6863.8986    1367.7168    21667.215   -30354.683    309.71518   -450.87566    1.0262859        0.545    -0.461942     0.230971 
 1095000   -5529.6535    1255.2347   -6784.8882    1403.3219    21741.696   -30353.889    301.00445   -92.495589   0.99150484       0.5475    -0.464061    0.2320305 
 1100000   -5579.3489    1256.7239   -6836.0728    1453.5027    21616.876   -30355.538    301.36157    720.78396    1.0267204         0.55     -0.46618      0.23309 
 1105000   -5567.3822     1242.176   -6809.5582    1421.8053    21697.289   -30354.084    297.87299    289.72195    1.0148833       0.5525    -0.468299    0.2341495 
 1110000   -5547.6002    1257.4285   -6805.0287    1346.2645    21768.848   -30359.105    301.53052   -635.42562    1.0119993        0.555    -0.470418     0.235209 
 1115000   -5605.4545    1236.2432   -6841.6976    1429.3813    21606.101   -30358.883    296.45029    40.119249    1.0046973       0.5575    -0.472537    0.2362685 
 1120000   -5611.5649    1169.0166   -6780.5815    1332.8494    21815.405   -30357.613     280.3294   -562.91711    1.0167305         0.56    -0.474656     0.237328 
 1125000    -5640.062    1211.8843   -6851.9464    1418.7199    21673.242   -30357.067    290.60906    -62.63663     0.999031       0.5625    -0.476775    0.2383875 
 1130000   -5513.3831    1261.9318    -6775.315    1417.1438    21719.904   -30352.493    302.61042    310.56176    1.0135707        0.565    -0.478894     0.239447 
 1135000   -5549.8659    1301.5049   -6851.3708    1396.8697    21686.613   -30356.008    312.10001    31.758375    1.0173007       0.5675    -0.481013    0.2405065 
 1140000   -5523.4602    1224.9938    -6748.454    1343.5247    21842.717   -30354.173    293.75272   -528.56467    1.0040317         0.57    -0.483132     0.241566 
 1145000   -5557.8153    1233.2598   -6791.0752     1354.164    21797.958   -30358.703    295.73489   -493.27153    1.0032311       0.5725    -0.485251    0.2426255 
 1150000   -5534.5822    1243.3356   -6777.9177    1394.6839    21739.915   -30355.185    298.15105    152.31618    1.0071009        0.575     -0.48737     0.243685 
 1155000   -5534.8189    1242.3492   -6777.1682    1373.8187    21793.555   -30357.857    297.91453    37.731508    1.0083807       0.5775    -0.489489    0.2447445 
 1160000   -5479.2448    1282.7579   -6762.0027    1384.5519    21809.073   -30358.289     307.6045   -216.01178   0.99242248         0.58    -0.491608     0.245804 
 1165000   -5523.2438    1251.4259   -6774.6697    1415.3042    21701.997   -30352.822     300.0911    432.84941    1.0114966       0.5825    -0.493727    0.2468635 
 1170000   -5481.1255    1250.2894   -6731.4149    1365.5166    21830.221   -30359.589    299.81856    91.910339    1.0132882        0.585    -0.495846     0.247923 
 1175000   -5495.7532    1253.5429   -6749.2961    1424.9266    21793.408   -30356.209    300.59876    523.05665    1.0001084       0.5875    -0.497965    0.2489825 
 1180000   -5559.8569    1275.3404   -6835.1973    1409.3754    21651.571   -30355.789    305.82578    227.26668     1.022457         0.59    -0.500084     0.250042 
 1185000   -5542.5567    1221.3997   -6763.9563    1364.9044    21800.061   -30356.771    292.89083   -219.95244    1.0177023       0.5925    -0.502203    0.2511015 
 1190000   -5539.2712    1222.6707   -6761.9418    1388.3455    21753.974   -30354.881    293.19562    98.025711    1.0101339        0.595    -0.504322     0.252161 
 1195000   -5592.3472    1219.7396   -6812.0868    1415.1952    21710.597   -30354.347    292.49275    216.23076    1.0044744       0.5975    -0.506441    0.2532205 
 1200000   -5578.5334    1216.6352   -6795.1686    1303.7768    21836.822   -30356.422    291.74831   -732.00281    1.0186318          0.6     -0.50856      0.25428 
 1205000   -5487.1214    1272.9249   -6760.0463    1430.2949    21760.198   -30361.194    305.24654    976.44234    1.0227788       0.6025    -0.510679    0.2553395 
 1210000   -5535.2065    1305.0213   -6840.2278    1427.2627    21661.686   -30358.861    312.94326    552.57394    1.0203432        0.605    -0.512798     0.256399 
 1215000   -5603.1868    1222.0704   -6825.2571    1424.8423    21663.067   -30360.771    293.05167    43.886877    1.0009903       0.6075    -0.514917    0.2574585 
 1220000   -5592.1952    1236.0907    -6828.286    1409.2149    21703.364   -30359.131    296.41374   -65.380785   0.99854282         0.61    -0.517036     0.258518 
 1225000   -5568.7119    1244.7205   -6813.4324    1399.4565    21706.513   -30362.046    298.48315    270.33966    1.0281978       0.6125    -0.519155    0.2595775 
 1230000   -5477.0467    1241.6279   -6718.6746    1308.0744    21899.276   -30355.205    297.74155   -810.43376    1.0001488        0.615    -0.521274     0.260637 
 1235000   -5514.9454    1219.9538   -6734.8992    1367.2379     21833.29   -30355.096    292.54411    -112.9674    1.0106137       0.6175    -0.523393    0.2616965 
 1240000   -5521.6055     1224.654   -6746.2595    1359.0484    21804.839   -30358.991    293.67122   -103.13203    1.0121451         0.62    -0.525512     0.262756 
 1245000    -5521.627    1203.8833   -6725.5103    1345.4748    21859.062   -30356.508    288.69043   -551.04569   0.99671631       0.6225    -0.527631    0.2638155 
 1250000   -5500.3647    1258.1202   -6758.4849    1419.8081    21749.943   -30357.318    301.69639    266.72902   0.98901247        0.625     -0.52975     0.264875 
 1255000    -5552.125    1243.7071   -6795.8321    1455.2991    21666.462    -30358.89    298.24014    599.97186    1.0064842       0.6275    -0.531869    0.2659345 
 1260000    -5578.793    1204.3943   -6783.1873    1379.1701      21781.6   -30362.903    288.81297   -21.534061    1.0251033         0.63    -0.533988     0.266994 
 1265000   -5465.6374    1276.5741   -6742.2115     1336.784    21844.446   -30358.502    306.12162   -410.74102    1.0115187       0.6325    -0.536107    0.2680535 
 1270000   -5520.3861    1231.6592   -6752.0453    1394.2067    21774.812    -30362.74    295.35107    352.62523     1.014927        0.635    -0.538226     0.269113 
 1275000   -5616.2092     1265.908   -6882.1172    1384.7822    21664.341   -30360.472    303.56391    -682.5968    1.0081338       0.6375    -0.540345    0.2701725 
 1280000   -5532.4186    1237.2775   -6769.6961     1397.704    21760.205   -30359.579    296.69834    209.80411    1.0168583         0.64    -0.542464     0.271232 
 1285000   -5496.3981    1253.4279    -6749.826    1391.0922    21757.065   -30360.207    300.57117    342.16946    1.0226223       0.6425    -0.544583    0.2722915 
 1290000   -5611.5982    1256.0653   -6867.6635    1395.2492    21671.891   -30359.421    301.20364    -118.2094    1.0185165        0.645    -0.546702     0.273351 
 1295000   -5568.4527    1218.3517   -6786.8043      1384.42    21730.535   -30358.386    292.15993   -5.9864557    1.0110819       0.6475    -0.548821    0.2744105 
 1300000   -5549.8143    1285.6459   -6835.4602    1387.4514    21693.531    -30362.59    308.29704   -161.52516    1.0112493         0.65     -0.55094      0.27547 
 1305000   -5516.7616    1271.5601   -6788.3217     1334.904    21812.758    -30361.82    304.91926   -887.65758   0.99294523       0.6525    -0.553059    0.2765295 
 1310000   -5541.1764    1247.0758   -6788.2523    1358.4634    21773.518   -30361.438    299.04796   -277.80074     1.015369        0.655    -0.555178     0.277589 
 1315000   -5559.5242     1227.118   -6786.6423    1424.8735    21749.242   -30361.297    294.26209    365.81548    1.0090832       0.6575    -0.557297    0.2786485 
 1320000   -5500.4878    1275.2925   -6775.7803    1378.9646    21774.694   -30364.402    305.81431    90.139393    1.0119212         0.66    -0.559416     0.279708 
 1325000   -5621.0444    1209.1452   -6830.1896    1404.2928    21691.047   -30364.044    289.95221   -116.04384    1.0138418       0.6625    -0.561535    0.2807675 
 1330000   -5585.3052    1256.8226   -6842.1277    1303.2839    21785.369   -30364.807    301.38523   -1350.6305    1.0072541        0.665    -0.563654     0.281827 
 1335000   -5595.6814    1228.0426    -6823.724    1326.3132    21774.063    -30364.35    294.48382   -853.10172    1.0189157       0.6675    -0.565773    0.2828865 
 1340000   -5535.3184    1240.3856    -6775.704    1444.9762    21724.661   -30365.799    297.44365    769.15382    1.0062411         0.67    -0.567892     0.283946 
 1345000   -5561.2416    1262.5784     -6823.82    1384.9167    21733.829   -30364.316    302.76547     342.6146    1.0354454       0.6725    -0.570011    0.2850055 
 1350000   -5542.1497    1254.5753    -6796.725    1434.2699    21729.395   -30364.302    300.84634    419.79647   0.99912169        0.675     -0.57213     0.286065 
 1355000    -5595.989    1217.3701   -6813.3591    1387.8286    21699.818   -30361.622    291.92454   -89.640329     1.016903       0.6775    -0.574249    0.2871245 
 1360000     -5489.52    1276.1569   -6765.6769    1369.4965    21808.278   -30360.429    306.02157    161.97718    1.0232691         0.68    -0.576368     0.288184 
 1365000   -5469.7144    1225.7769   -6695.4914    1326.3513    21902.018   -30363.808     293.9405   -693.83304   0.99124467       0.6825    -0.578487    0.2892435 
 1370000   -5521.5216    1239.8048   -6761.3264    1430.0627    21735.529   -30363.095    297.30438    329.41994   0.98996333        0.685    -0.580606     0.290303 
 1375000    -5596.948    1213.5383   -6810.4863    1483.4218    21571.534   -30357.305    291.00568    558.04104   0.99161295       0.6875    -0.582725    0.2913625 
 1380000   -5514.9435    1280.2938   -6795.2372    1340.7447    21792.544    -30361.88     307.0136    -293.2026    1.0241366         0.69    -0.584844     0.292422 
 1385000    -5573.106    1248.5767   -6821.6826    1393.7875    21722.652   -30364.587    299.40787   -241.85628    1.0070126       0.6925    -0.586963    0.2934815 
 1390000   -5583.7305    1220.9377   -6804.6682    1386.3088    21744.845   -30364.846    292.78005   -167.94814   0.99821704        0.695    -0.589082     0.294541 
 1395000   -5469.5824    1236.0582   -6705.6406    1361.2754    21845.151   -30361.887    296.40594   -104.21347   0.99776431       0.6975    -0.591201    0.2956005 
 1400000   -5500.7115    1233.2318   -6733.9433     1333.948    21873.313   -30362.934    295.72817    -125.0822    1.0263809          0.7     -0.59332      0.29666 
 1405000   -5419.1812    1321.0256   -6740.2068    1354.0297    21833.304   -30367.647    316.78106    -233.8297     1.009048       0.7025    -0.595439    0.2977195 
 1410000   -5527.8617     1249.276   -6777.1377     1393.035    21770.812   -30366.621    299.57557    167.07416    1.0156062        0.705    -0.597558     0.298779 
 1415000   -5481.1169    1252.3487   -6733.4656    1344.2947    21829.773   -30368.721    300.31238   -461.85938    1.0036389       0.7075    -0.599677    0.2998385 
 1420000   -5532.8156    1260.4335   -6793.2491    1421.7199    21704.917   -30367.338    302.25113    343.60928    1.0162706         0.71    -0.601796     0.300898 
 1425000   -5547.9732    1268.0648    -6816.038    1421.7341    21700.228   -30367.368    304.08111     271.4221    1.0128974       0.7125    -0.603915    0.3019575 
 1430000   -5536.9027    1243.6801   -6780.5828    1325.1833    21856.026   -30368.533    298.23368    -388.7135    1.0267827        0.715    -0.606034     0.303017 
 1435000   -5570.6543    1244.2756   -6814.9299    1374.1183    21711.381   -30367.694    298.37647    25.769415    1.0319664       0.7175    -0.608153    0.3040765 
 1440000   -5503.2808    1262.2145   -6765.4953    1424.7984    21726.029   -30366.421    302.67821    576.10782    1.0091121         0.72    -0.610272     0.305136 
 1445000    -5462.886    1270.7887   -6733.6747    1318.6859    21898.228   -30366.918     304.7343   -387.50044    1.0149824       0.7225    -0.612391    0.3061955 
 1450000   -5470.7571    1281.4135   -6752.1705    1425.3723    21732.871   -30366.098     307.2821    620.59705    1.0146359        0.725     -0.61451     0.307255 
 1455000   -5527.4601    1291.9524   -6819.4125    1360.2258    21771.527   -30363.755    309.80933   -502.25523   0.99718998       0.7275    -0.616629    0.3083145 
 1460000   -5514.1742    1247.8209   -6761.9951    1358.6541      21820.8   -30366.742    299.22664   -380.01478    1.0041344         0.73    -0.618748     0.309374 
 1465000   -5514.7862    1253.7836   -6768.5698    1365.8682    21811.261    -30362.79    300.65649   -368.26563    1.0008437       0.7325    -0.620867    0.3104335 
 1470000    -5551.171    1264.5229    -6815.694    1397.4282    21740.047   -30368.185    303.23177     288.1239    1.0256045        0.735    -0.622986     0.311493 
 1475000    -5529.159     1251.168    -6780.327     1398.811    21758.549   -30367.782    300.02927    160.29449    1.0114735       0.7375    -0.625105    0.3125525 
 1480000   -5487.0134     1283.588   -6770.6014      1365.85    21759.173   -30366.624    307.80355   -416.12696    1.0020989         0.74    -0.627224     0.313612 
 1485000   -5577.8776    1228.4499   -6806.3275    1450.1943    21661.771   -30368.442    294.58148    789.14519    1.0270287       0.7425    -0.629343    0.3146715 
 1490000   -5579.8432    1242.7181   -6822.5612    1373.2235    21710.845   -30368.691    298.00297   -429.78923    1.0167997        0.745    -0.631462     0.315731 
 1495000   -5604.0722    1240.0278      -6844.1    1398.7081    21667.622   -30366.025    297.35784   -50.192922    1.0151605       0.7475    -0.633581    0.3167905 
 1500000   -5570.8776    1262.8638   -6833.7414     1422.788    21689.484   -30369.581     302.8339    322.73206    1.0163727         0.75      -0.6357      0.31785 
 1505000   -5470.0341    1254.1779    -6724.212    1340.4518    21833.054       -30370    300.75103   -533.26569    1.0015798       0.7525    -0.637819    0.3189095 
 1510000   -5533.0307    1269.7134   -6802.7441    1420.8678    21723.006   -30366.979    304.47642    744.80635     1.031796        0.755    -0.639938     0.319969 
 1515000   -5525.4081    1275.2107   -6800.6188    1359.3204    21747.642   -30370.363     305.7947   -613.78881    1.0095566       0.7575    -0.642057    0.3210285 
 1520000   -5545.6601    1227.8235   -6773.4836    1408.0411    21740.939   -30370.107    294.43126     125.8317    1.0064814         0.76    -0.644176     0.322088 
 1525000    -5594.124    1256.3887   -6850.5127    1394.7089    21672.392   -30369.461    301.28118   -327.86845    1.0067392       0.7625    -0.646295    0.3231475 
 1530000   -5658.6676    1272.6607   -6931.3282    1495.4729    21500.185    -30372.43    305.18319    248.65409   0.98959859        0.765    -0.648414     0.324207 
 1535000   -5577.6076    1216.0351   -6793.6428    1376.0471    21752.612   -30371.553    291.60442   -330.81608    0.9975352       0.7675    -0.650533    0.3252665 
 1540000   -5550.0025    1218.5844   -6768.5869    1384.3771    21773.165   -30370.531    292.21573    42.712468    1.0056433         0.77    -0.652652     0.326326 
 1545000   -5600.0577    1225.9997   -6826.0574    1428.3352    21661.528   -30369.738    293.99391    813.57834    1.0479661       0.7725    -0.654771    0.3273855 
 1550000   -5468.4914     1242.477   -6710.9684    1334.3582    21918.607   -30369.067    297.94517   -396.37556    1.0001104        0.775     -0.65689     0.328445 
 1555000   -5513.1271    1227.7497   -6740.8768     1382.337    21787.791   -30366.523    294.41357    83.122435    1.0076956       0.7775    -0.659009    0.3295045 
 1560000   -5612.1024    1202.1818   -6814.2841    1387.0642    21764.028   -30367.929    288.28239   -258.78553    1.0064708         0.78    -0.661128     0.330564 
 1565000   -5590.9616      1206.59   -6797.5517    1411.8792    21677.549   -30369.916    289.33949    239.57892     1.011968       0.7825    -0.663247    0.3316235 
 1570000    -5510.954    1275.3855   -6786.3395    1375.3033    21763.279    -30370.61     305.8366   -189.55593    1.0102055        0.785    -0.665366     0.332683 
 1575000    -5554.726    1215.8818   -6770.6078    1456.4645    21711.707   -30369.754    291.56766    837.90544    1.0133372       0.7875    -0.667485    0.3337425 
 1580000   -5484.0735    1274.8343   -6758.9078    1407.2972    21780.536     -30370.2    305.70443   -7.4418979   0.98152191         0.79    -0.669604     0.334802 
 1585000   -5591.9223    1219.6327    -6811.555    1360.9446    21785.502   -30369.385    292.46711   -301.66012    1.0180482       0.7925    -0.671723    0.3358615 
 1590000   -5514.2903    1237.4873   -6751.7776    1345.8443    21817.054   -30372.767    296.74864   -500.35329    1.0070005        0.795    -0.673842     0.336921 
 1595000   -5610.6145    1230.3441   -6840.9586    1511.4929    21579.699   -30370.822     295.0357    1400.7717    1.0243843       0.7975    -0.675961    0.3379805 
 1600000    -5491.408    1268.4415   -6759.8495    1321.4258    21860.885   -30367.203    304.17145   -684.17812    1.0109371          0.8     -0.67808      0.33904 
 1605000   -5605.9376    1229.4973   -6835.4349    1358.4846    21752.878   -30376.308    294.83264   -415.45398    1.0211259       0.8025    -0.680199    0.3400995 
 1610000   -5460.3646    1272.2569   -6732.6215    1287.6367    21919.033   -30377.556    305.08636   -1142.3466    1.0015738        0.805    -0.682318     0.341159 
 1615000   -5526.5568    1289.8001   -6816.3569    1429.3397    21650.996   -30374.701    309.29322   -24.570161   0.99788407       0.8075    -0.684437    0.3422185 
 1620000   -5535.2137    1227.5421   -6762.7558    1398.9652    21806.783   -30374.667    294.36379    27.416625   0.99409746         0.81    -0.686556     0.343278 
 1625000   -5561.6432    1218.8583   -6780.5015    1405.1751    21715.111   -30372.575    292.28141    18.274766    1.0106948       0.8125    -0.688675    0.3443375 
 1630000   -5489.0281    1289.6971   -6778.7251    1344.2314    21847.424   -30375.392     309.2685   -428.65338    1.0104018        0.815    -0.690794     0.345397 
 1635000   -5583.1919    1258.7285   -6841.9204    1364.5536    21720.023   -30373.909    301.84226   -558.27346    1.0230546       0.8175    -0.692913    0.3464565 
 1640000   -5569.4234    1276.2864   -6845.7098    1511.2486    21602.351   -30376.345    306.05264    598.06785   0.98381579         0.82    -0.695032     0.347516 
 1645000   -5542.9848    1213.5702   -6756.5551    1373.3517    21798.358   -30369.633    291.01334   -254.12194    1.0019034       0.8225    -0.697151    0.3485755 
 1650000   -5482.0112    1245.3133   -6727.3245    1334.5937    21862.137   -30375.083     298.6253    -577.0133    1.0037952        0.825     -0.69927     0.349635 
 1655000   -5512.6207    1273.3548   -6785.9755    1416.6802    21724.769   -30370.223    305.34964    601.75776    1.0281521       0.8275    -0.701389    0.3506945 
 1660000    -5550.057    1251.0976   -6801.1546    1395.4686    21699.418   -30372.345    300.01237   -129.12786    1.0148586         0.83    -0.703508     0.351754 
 1665000   -5460.2178    1235.1935   -6695.4113    1384.7074    21833.611   -30369.508    296.19859    197.73924    0.9919328       0.8325    -0.705627    0.3528135 
 1670000   -5577.3307    1185.7465   -6763.0772    1310.7085    21842.338   -30371.235    284.34123   -1255.4953   0.98878939        0.835    -0.707746     0.353873 
 1675000   -5561.8847    1224.9469   -6786.8316    1430.0792    21692.395   -30375.915    293.74146    119.11524   0.99573454       0.8375    -0.709865    0.3549325 
 1680000   -5653.7552    1260.9531   -6914.7083    1519.8378    21487.885   -30376.356    302.37573    809.64185     1.015909         0.84    -0.711984     0.355992 
 1685000   -5512.3473    1274.3359   -6786.6832    1417.2785    21701.118    -30376.61    305.58491    445.91621    1.0312005       0.8425    -0.714103    0.3570515 
 1690000     -5508.29    1269.2138   -6777.5038     1366.728    21782.662   -30375.482    304.35663    14.172211    1.0249747        0.845    -0.716222     0.358111 
 1695000   -5591.9917    1161.3619   -6753.3536    1403.8396    21761.545   -30371.687    278.49382    339.64543    1.0133803       0.8475    -0.718341    0.3591705 
 1700000   -5466.9507    1266.1673    -6733.118    1372.2532    21825.493   -30372.223    303.62608    82.443385    1.0170363         0.85     -0.72046      0.36023 
 1705000    -5565.484    1255.6155   -6821.0995    1404.2864     21697.72   -30377.201    301.09577     115.4614    1.0224858       0.8525    -0.722579    0.3612895 
 1710000   -5468.4747    1242.5333    -6711.008     1261.827    21976.931   -30377.884    297.95866   -1282.3719    1.0025311        0.855    -0.724698     0.362349 
 1715000   -5506.6405    1286.9184   -6793.5589    1333.9602    21778.671   -30374.791    308.60219   -870.86182   0.99767742       0.8575    -0.726817    0.3634085 
 1720000   -5565.6601    1243.2447   -6808.9048    1453.7071    21688.169   -30376.668    298.12926    837.91968    1.0193803         0.86    -0.728936     0.364468 
 1725000   -5466.8293    1256.0749   -6722.9042    1322.9564    21895.211   -30378.325    301.20593   -717.52415   0.99658437       0.8625    -0.731055    0.3655275 
 1730000   -5558.3242    1213.4742   -6771.7984    1337.7732    21800.919   -30378.895    290.99031   -210.06727    1.0310242        0.865    -0.733174     0.366587 
 1735000   -5502.8243    1261.8071   -6764.6314    1382.0545    21775.488   -30375.951    302.58051  -0.31427925    1.0034826       0.8675    -0.735293    0.3676465 
 1740000   -5406.8705    1274.6358   -6681.5063    1334.7641     21893.52    -30376.72    305.65682   -231.76275    1.0050648         0.87    -0.737412     0.368706 
 1745000   -5469.6519    1259.7569   -6729.4088    1437.2403    21699.918   -30375.369    302.08887    487.94198    1.0000255       0.8725    -0.739531    0.3697655 
 1750000   -5510.7038    1273.4592    -6784.163    1346.9061    21834.988   -30377.095    305.37468   -381.44532    0.9990362        0.875     -0.74165     0.370825 
 1755000   -5498.5771    1291.9682   -6790.5453     1416.649    21698.465   -30377.922    309.81311    434.97184     1.020573       0.8775    -0.743769    0.3718845 
 1760000   -5518.5384     1277.985   -6796.5234    1361.2079    21765.884   -30377.646    306.45996   -37.746266    1.0246582         0.88    -0.745888     0.372944 
 1765000    -5507.052    1273.8365   -6780.8885    1421.9667    21726.518   -30377.959    305.46515    410.30385    1.0112394       0.8825    -0.748007    0.3740035 
 1770000   -5596.6543    1216.1185   -6812.7727     1416.069    21695.778   -30380.248     291.6244    1.5263758    1.0080966        0.885    -0.750126     0.375063 
 1775000   -5623.4083     1285.876   -6909.2843    1440.2387    21582.885   -30381.001    308.35222   -35.250138    1.0049289       0.8875    -0.752245    0.3761225 
 1780000   -5573.4547    1219.3235   -6792.7782    1442.9632    21676.665   -30377.304    292.39298    471.41075    1.0053462         0.89    -0.754364     0.377182 
 1785000   -5602.6194    1217.9746    -6820.594    1410.7105    21746.864   -30378.721     292.0695    188.14379    1.0190973       0.8925    -0.756483    0.3782415 
 1790000   -5545.0248    1232.4378   -6777.4626    1420.0285    21741.196   -30377.214    295.53778    756.19164    1.0274418        0.895    -0.758602     0.379301 
 1795000   -5518.8988    1253.2508   -6772.1496     1346.248     21846.81   -30376.809    300.52871   -133.93703    1.0242741       0.8975    -0.760721    0.3803605 
 1800000   -5440.5825    1267.2474   -6707.8299    1236.5895    21971.421   -30375.638    303.88509   -1636.0141   0.99063571          0.9     -0.76284      0.38142 
 1805000   -5447.8315    1288.0343   -6735.8658    1315.8015    21891.886   -30383.047    308.86977     -729.116    1.0031825       0.9025    -0.764959    0.3824795 
 1810000    -5612.711    1242.5543   -6855.2653    1383.4906    21692.082   -30384.343    297.96369   -319.45292    1.0215442        0.905    -0.767078     0.383539 
 1815000    -5557.273    1220.1604   -6777.4334    1421.1515    21742.938   -30384.256    292.59367    520.03095    1.0215411       0.9075    -0.769197    0.3845985 
 1820000   -5530.2316    1228.8432   -6759.0748    1332.6717    21862.178   -30382.059    294.67578   -655.51399    1.0042955         0.91    -0.771316     0.385658 
 1825000   -5602.3037    1229.7047   -6832.0084    1468.9012    21615.952   -30382.906    294.88237    421.71792    1.0045724       0.9125    -0.773435    0.3867175 
 1830000   -5547.6226    1200.4018   -6748.0244    1330.1166    21900.521   -30384.116    287.85555   -636.22865    1.0018051        0.915    -0.775554     0.387777 
 1835000   -5653.9568    1210.6899   -6864.6467    1386.2577    21734.456   -30383.944    290.32264   -127.89376     1.023499       0.9175    -0.777673    0.3888365 
 1840000   -5547.0916    1252.5655   -6799.6571    1419.6833    21720.231   -30379.345    300.36437     501.3533    1.0256074         0.92    -0.779792     0.389896 
 1845000   -5515.4901    1289.6285   -6805.1187    1364.8493    21767.014   -30383.713    309.25207   -436.33388    1.0012885       0.9225    -0.781911    0.3909555 
 1850000   -5486.8798    1292.9914   -6779.8712    1380.8937    21790.721   -30383.253    310.05848      22.6166    1.0096908        0.925     -0.78403     0.392015 
 1855000   -5533.7045    1263.0308   -6796.7353    1395.9678    21748.064   -30382.076    302.87396   -284.93741    0.9863725       0.9275    -0.786149    0.3930745 
 1860000   -5484.2708    1261.0621   -6745.3329    1439.0946    21765.649   -30381.058    302.40186    615.26529    0.9985027         0.93    -0.788268     0.394134 
 1865000   -5599.3124    1260.6731   -6859.9855    1381.0638    21741.092   -30385.213    302.30858   -582.58143    1.0024906       0.9325    -0.790387    0.3951935 
 1870000   -5529.7237    1260.0702   -6789.7939    1384.0683    21758.475   -30383.423    302.16399    53.835245    1.0113827        0.935    -0.792506     0.396253 
 1875000   -5455.8429    1269.0311   -6724.8739    1395.2702    21814.233     -30381.4    304.31281    191.35208   0.99331435       0.9375    -0.794625    0.3973125 
 1880000   -5522.3775    1257.2498   -6779.6273    1422.2951    21728.811   -30385.222    301.48766    210.15712    1.0034809         0.94    -0.796744     0.398372 
 1885000    -5581.928    1248.1059   -6830.0339    1353.7983    21777.194   -30384.398    299.29497   -685.33819    1.0064471       0.9425    -0.798863    0.3994315 
 1890000    -5504.863    1257.5766   -6762.4396    1382.3075    21802.301   -30382.745    301.56605    233.93301    1.0136359        0.945    -0.800982     0.400491 
 1895000   -5519.8568    1258.7721    -6778.629    1381.0637    21801.818   -30381.149    301.85273    157.33428    1.0106136       0.9475    -0.803101    0.4015505 
 1900000   -5415.1036    1245.1225   -6660.2261    1321.1611    21968.266   -30378.535    298.57955   -87.316091    1.0149157         0.95     -0.80522      0.40261 
 1905000   -5486.4216    1290.1083   -6776.5299     1344.556      21824.3   -30385.345    309.36712   -170.76911    1.0220988       0.9525    -0.807339    0.4036695 
 1910000   -5612.2769     1206.579   -6818.8559    1361.0857    21798.985   -30389.316    289.33686    -679.6889    1.0021422        0.955    -0.809458     0.404729 
 1915000   -5587.0108    1277.8116   -6864.8224    1390.9876    21720.193   -30387.546    306.41838   -88.421087     1.026429       0.9575    -0.811577    0.4057885 
 1920000   -5536.6115    1211.5465   -6748.1579    1346.0005    21869.713   -30386.249    290.52804    -614.6848   0.99432544         0.96    -0.813696     0.406848 
 1925000   -5475.7378    1270.4733   -6746.2111    1363.7746    21799.571   -30386.112    304.65867    263.14406    1.0338166       0.9625    -0.815815    0.4079075 
 1930000   -5509.1127    1248.2489   -6757.3616    1334.6571    21873.781   -30385.968    299.32926   -529.83539    1.0071671        0.965    -0.817934     0.408967 
 1935000   -5548.4157    1253.3639   -6801.7796    1361.0982    21797.539   -30389.563    300.55583   -390.63414    1.0119705       0.9675    -0.820053    0.4100265 
 1940000   -5585.3752    1257.0833   -6842.4584     1341.862    21777.004   -30390.791    301.44773   -588.69504    1.0234228         0.97    -0.822172     0.411086 
 1945000   -5553.1361    1239.7945   -6792.9307      1392.65    21775.612   -30388.808    297.30191    401.98554    1.0324973       0.9725    -0.824291    0.4121455 
 1950000    -5608.302    1257.6453   -6865.9473    1385.8155    21666.265   -30389.484    301.58252   -258.45732    1.0221941        0.975     -0.82641     0.413205 
 1955000   -5597.8019    1196.2504   -6794.0523    1368.6962    21798.614   -30384.841    286.86006   -187.46622     1.015951       0.9775    -0.828529    0.4142645 
 1960000   -5558.9543    1259.8231   -6818.7774    1402.0765    21687.027   -30386.699    302.10476   -130.60372    1.0087181         0.98    -0.830648     0.415324 
 1965000   -5522.1401    1225.1335   -6747.2736    1385.1221    21794.241   -30386.219    293.78621    59.455921    1.0156338       0.9825    -0.832767    0.4163835 
 1970000   -5460.8469     1294.812   -6755.6589     1403.377    21789.971   -30387.038    310.49507    67.767671   0.99695881        0.985    -0.834886     0.417443 
 1975000   -5562.7016    1276.5904    -6839.292    1381.4683    21781.499     -30385.8    306.12554   -104.19545    1.0255706       0.9875    -0.837005    0.4185025 
 1980000   -5519.6646    1253.4527   -6773.1173    1464.4023    21698.419   -30387.375    300.57712    1035.4507    1.0129337         0.99    -0.839124     0.419562 
 1985000     -5465.34    1288.7347   -6754.0747    1312.8409    21917.192   -30385.618    309.03772   -632.51392    1.0142034       0.9925    -0.841243    0.4206215 
 1990000   -5579.8472    1232.0079   -6811.8551    1325.3706    21848.546   -30387.507    295.43468   -736.79929    1.0087938        0.995    -0.843362     0.421681 
 1995000   -5474.4313    1277.8474   -6752.2787    1377.0964    21856.577    -30388.53    306.42697   -223.13166   0.99592342       0.9975    -0.845481    0.4227405 
 2000000   -5530.4657    1243.1127   -6773.5784    1448.1254    21758.477   -30388.792    298.09761    750.74861    1.0102049            1      -0.8476       0.4238 
Loop time of 13807.9 on 12 procs for 2000000 steps with 1800 atoms

Performance: 12.515 ns/day, 1.918 hours/ns, 144.845 timesteps/s
95.3% CPU use with 12 MPI tasks x 1 OpenMP threads

MPI task timing breakdown:
Section |  min time  |  avg time  |  max time  |%varavg| %total
---------------------------------------------------------------
Pair    | 7308.6     | 8043.1     | 8855.3     | 457.7 | 58.25
Bond    | 24.229     | 25.717     | 27.246     |  21.9 |  0.19
Kspace  | 2227.1     | 3047.3     | 3772.6     | 744.0 | 22.07
Neigh   | 525.14     | 526.08     | 527.05     |   2.6 |  3.81
Comm    | 809.43     | 867.32     | 940.11     | 181.0 |  6.28
Output  | 0.033333   | 0.034507   | 0.043203   |   1.4 |  0.00
Modify  | 880.49     | 1047.6     | 1183.6     | 402.0 |  7.59
Other   |            | 250.7      |            |       |  1.82

Nlocal:        150.000 ave         167 max         140 min
Histogram: 2 3 2 0 2 0 0 1 1 1
Nghost:        6112.58 ave        6193 max        6037 min
Histogram: 3 0 2 0 0 3 1 1 0 2
Neighs:        87266.4 ave       94192 max       79682 min
Histogram: 2 0 1 0 1 4 2 0 0 2

Total # of neighbors = 1047197
Ave neighs/atom = 581.77611
Ave special neighs/atom = 2.0000000
Neighbor list builds = 89139
Dangerous builds = 0
Total wall time: 3:59:31
