LAMMPS Description

        2500  atoms
           0  bonds
           0  angles
           0  dihedrals
           0  impropers

           1  atom types
           0  bond types
           0  angle types
           0  dihedral types
           0  improper types
       
-3.1123e+01  3.1123e+01 xlo xhi
-3.1123e+01  3.1123e+01 ylo yhi
-3.1123e+01  3.1123e+01 zlo zhi

Masses

  1     32.0000

Atoms

         1     1     1 -1.20055e+01  1.00800e+01  5.26000e+00
         2     2     1 -5.60545e+00  2.34700e+01  3.10400e+01
         3     3     1  1.33900e+01  1.50700e+01 -1.56654e+01
         4     4     1 -3.57545e+00 -1.71754e+01 -7.17545e+00
         5     5     1  1.09000e+01  1.67100e+01 -2.57554e+01
         6     6     1  1.96400e+01 -6.07545e+00 -2.72454e+01
         7     7     1 -7.56545e+00 -1.92354e+01 -2.37154e+01
         8     8     1 -5.72545e+00 -2.45654e+01 -2.34154e+01
         9     9     1 -1.71655e+01  2.46700e+01  1.76300e+01
        10    10     1  8.06000e+00  4.73000e+00 -7.34545e+00
        11    11     1  2.32300e+01 -2.01054e+01  1.78600e+01
        12    12     1 -2.05955e+01  1.44500e+01 -6.35545e+00
        13    13     1  1.80700e+01  2.19800e+01 -4.22545e+00
        14    14     1 -1.26355e+01 -2.92545e+00 -2.09154e+01
        15    15     1 -2.05255e+01 -2.12254e+01 -2.21454e+01
        16    16     1  6.69000e+00  2.60700e+01  1.22700e+01
        17    17     1  1.08600e+01 -2.00054e+01 -2.82854e+01
        18    18     1 -1.89255e+01  3.30000e-01  1.15200e+01
        19    19     1  1.85400e+01  1.31900e+01 -7.98545e+00
        20    20     1 -1.49055e+01  1.45900e+01 -2.19354e+01
        21    21     1  1.91400e+01 -2.43054e+01 -2.54454e+01
        22    22     1  1.04200e+01 -2.94954e+01 -2.95654e+01
        23    23     1 -7.37545e+00  2.08500e+01  2.58700e+01
        24    24     1  1.25600e+01  2.80000e-01 -1.38054e+01
        25    25     1 -2.11055e+01  1.01500e+01  3.10000e+01
        26    26     1  2.78800e+01 -1.10254e+01  1.86300e+01
        27    27     1  2.17000e+00 -3.01454e+01  1.67700e+01
        28    28     1  2.76700e+01  1.44600e+01 -1.37954e+01
        29    29     1  2.15200e+01 -3.45545e+00  4.45000e+00
        30    30     1 -8.15545e+00  1.89500e+01 -2.73954e+01
        31    31     1 -5.89545e+00 -1.45954e+01  2.62100e+01
        32    32     1  2.29600e+01 -1.23154e+01  2.91800e+01
        33    33     1  4.87000e+00 -2.65754e+01  8.54000e+00
        34    34     1  1.93000e+00 -1.43554e+01  1.85200e+01
        35    35     1 -2.78355e+01 -2.84754e+01 -2.38454e+01
        36    36     1  3.08000e+00 -2.54354e+01  1.99500e+01
        37    37     1  2.12700e+01 -6.71545e+00  1.28000e+00
        38    38     1 -3.45545e+00 -2.41754e+01  1.49600e+01
        39    39     1  2.54700e+01  1.63000e+01  6.99000e+00
        40    40     1 -1.80855e+01  2.44800e+01  4.97000e+00
        41    41     1  1.28400e+01 -1.15446e-01 -2.87954e+01
        42    42     1 -7.86545e+00  2.17000e+00  1.67100e+01
        43    43     1  2.42300e+01 -8.29545e+00  2.04200e+01
        44    44     1 -4.35545e+00  4.68000e+00  2.66200e+01
        45    45     1 -1.53655e+01 -1.15154e+01  1.35000e+00
        46    46     1 -2.67255e+01 -2.33054e+01 -3.01254e+01
        47    47     1  1.13800e+01 -3.05554e+01 -2.18054e+01
        48    48     1  2.05100e+01  1.55100e+01 -6.31545e+00
        49    49     1 -7.45545e+00  2.28000e+00 -2.04754e+01
        50    50     1 -6.11545e+00  2.97900e+01 -2.21154e+01
        51    51     1 -1.21355e+01  2.64200e+01  1.95100e+01
        52    52     1  1.78800e+01  1.04000e+00  2.19500e+01
        53    53     1 -1.64755e+01  1.01300e+01  1.40700e+01
        54    54     1 -1.92955e+01 -2.53654e+01 -2.21754e+01
        55    55     1  2.55800e+01 -2.55154e+01  3.60000e-01
        56    56     1  1.79800e+01  1.51100e+01  2.99700e+01
        57    57     1  2.65400e+01  2.17200e+01  2.76100e+01
        58    58     1 -3.43545e+00  9.65000e+00  2.66700e+01
        59    59     1 -1.77455e+01  3.02400e+01  1.95100e+01
        60    60     1  2.93400e+01  3.01500e+01 -7.77545e+00
        61    61     1  1.95600e+01 -1.14354e+01 -2.76154e+01
        62    62     1  2.69600e+01 -1.91054e+01  1.92300e+01
        63    63     1 -2.29855e+01  1.28800e+01  2.24600e+01
        64    64     1  2.91000e+01 -9.55446e-01  1.35600e+01
        65    65     1  2.06800e+01 -1.73545e+00 -1.27454e+01
        66    66     1 -5.86545e+00 -1.14854e+01  1.16000e+01
        67    67     1  2.67700e+01 -2.98654e+01 -1.12545e+00
        68    68     1 -1.23655e+01 -2.27554e+01 -2.15654e+01
        69    69     1 -4.60545e+00  2.12800e+01 -7.00000e-02
        70    70     1 -5.55450e-01 -7.06545e+00  1.73000e+01
        71    71     1 -5.79545e+00 -1.63354e+01 -2.29654e+01
        72    72     1  4.00000e-02  1.56000e+00  1.93200e+01
        73    73     1  3.02400e+01 -1.67854e+01 -2.48154e+01
        74    74     1 -3.09355e+01  1.86700e+01 -1.22454e+01
        75    75     1 -1.19955e+01 -8.34545e+00  2.04400e+01
        76    76     1  3.89000e+00 -2.16854e+01  1.56300e+01
        77    77     1  2.14900e+01 -1.14254e+01  8.10000e-01
        78    78     1  2.74400e+01  1.13900e+01 -2.49545e+00
        79    79     1 -2.99545e+00 -1.55154e+01 -1.94554e+01
        80    80     1  2.07000e+00  9.21000e+00 -1.05154e+01
        81    81     1  6.50000e-01  2.59100e+01 -2.39854e+01
        82    82     1 -1.04255e+01  1.96100e+01  8.64000e+00
        83    83     1  8.40000e+00 -1.56954e+01  8.10000e-01
        84    84     1  7.39000e+00 -2.82254e+01 -4.90545e+00
        85    85     1  1.14500e+01 -1.95054e+01 -7.24545e+00
        86    86     1  2.47300e+01 -4.21545e+00 -1.81254e+01
        87    87     1  1.06900e+01  1.46200e+01 -1.34754e+01
        88    88     1  6.61000e+00  2.26100e+01 -1.62454e+01
        89    89     1  1.64000e+01  2.74400e+01  8.31000e+00
        90    90     1 -6.37545e+00 -4.54457e-02 -4.79545e+00
        91    91     1  2.96500e+01 -2.74154e+01 -1.73854e+01
        92    92     1  1.20600e+01  9.85000e+00 -6.06545e+00
        93    93     1  2.11300e+01  4.90000e-01  9.35000e+00
        94    94     1 -2.94255e+01 -2.17554e+01 -1.88354e+01
        95    95     1  9.67000e+00 -1.47154e+01 -1.30854e+01
        96    96     1 -1.04355e+01  1.95200e+01  3.58000e+00
        97    97     1  1.39600e+01 -7.77545e+00  2.75700e+01
        98    98     1  1.22700e+01  4.36000e+00 -7.43545e+00
        99    99     1 -3.38545e+00  1.87500e+01  2.47000e+01
       100   100     1 -1.34055e+01 -2.84054e+01 -2.52554e+01
       101   101     1  1.13900e+01 -7.85545e+00  1.70300e+01
       102   102     1 -4.00000e-01  2.16200e+01 -1.14954e+01
       103   103     1  6.01000e+00 -5.74545e+00 -3.00854e+01
       104   104     1 -1.96655e+01 -1.18854e+01 -2.29854e+01
       105   105     1  2.12000e+00 -2.43654e+01  2.36400e+01
       106   106     1 -2.53545e+00 -2.06554e+01  2.50000e+00
       107   107     1 -3.06555e+01 -1.93654e+01  2.53600e+01
       108   108     1  2.62600e+01  1.55000e+01 -3.03054e+01
       109   109     1 -1.65055e+01 -5.86545e+00 -5.13545e+00
       110   110     1 -1.66055e+01 -2.46754e+01 -1.04554e+01
       111   111     1 -2.04545e+00  2.36200e+01  3.02600e+01
       112   112     1  7.06000e+00  2.82900e+01 -2.83545e+00
       113   113     1  2.48200e+01 -2.12545e+00 -2.29854e+01
       114   114     1 -2.89655e+01  2.78300e+01  6.81000e+00
       115   115     1  1.70900e+01  1.87200e+01  1.21000e+01
       116   116     1 -1.67855e+01  4.83000e+00  1.19600e+01
       117   117     1  2.31900e+01 -2.17554e+01 -2.28054e+01
       118   118     1  1.88400e+01  1.95000e+01  2.83400e+01
       119   119     1 -9.95545e+00  1.46300e+01 -3.17545e+00
       120   120     1  1.72000e+01 -2.67354e+01 -2.82654e+01
       121   121     1  2.95000e+00 -1.74354e+01  1.54900e+01
       122   122     1  8.31000e+00 -3.22545e+00 -2.01254e+01
       123   123     1  2.75400e+01  6.82000e+00  1.73800e+01
       124   124     1  2.94000e+01  2.36900e+01  2.82500e+01
       125   125     1  1.44600e+01 -4.81545e+00  5.55000e+00
       126   126     1 -2.36545e+00  3.55000e+00 -1.71154e+01
       127   127     1  1.93600e+01  1.67700e+01  2.56200e+01
       128   128     1 -9.42545e+00  2.30900e+01 -1.49154e+01
       129   129     1  3.28000e+00 -2.20454e+01 -7.81545e+00
       130   130     1 -9.65545e+00  1.68700e+01 -8.51545e+00
       131   131     1 -2.03155e+01  2.34000e+01 -1.09754e+01
       132   132     1  2.63100e+01 -8.29545e+00 -4.80545e+00
       133   133     1  1.92100e+01 -2.67954e+01  1.41700e+01
       134   134     1  4.99000e+00  1.44600e+01  2.29400e+01
       135   135     1  4.54000e+00  1.01600e+01  3.10900e+01
       136   136     1 -2.98255e+01 -1.41354e+01  6.76000e+00
       137   137     1 -1.96355e+01  9.70000e+00 -1.20254e+01
       138   138     1  4.51000e+00 -2.61354e+01  4.06000e+00
       139   139     1  2.83500e+01 -9.33545e+00  2.76000e+00
       140   140     1  1.62900e+01 -2.42454e+01 -9.21545e+00
       141   141     1  1.90800e+01  6.11000e+00  3.07600e+01
       142   142     1  6.91000e+00  1.34300e+01 -1.55654e+01
       143   143     1 -1.40455e+01  6.54000e+00 -1.42654e+01
       144   144     1 -2.58055e+01 -1.85754e+01 -5.04545e+00
       145   145     1 -1.53545e+00 -6.00000e-02 -1.42154e+01
       146   146     1  2.66500e+01 -1.94754e+01  2.72900e+01
       147   147     1  2.43000e+00  9.24000e+00 -2.74854e+01
       148   148     1  1.48300e+01  1.95700e+01 -9.12545e+00
       149   149     1 -9.55450e-01  9.74000e+00  3.86000e+00
       150   150     1 -2.44755e+01  2.04500e+01  2.88900e+01
       151   151     1  1.95300e+01 -2.43854e+01 -2.16545e+00
       152   152     1 -1.09455e+01  2.69200e+01  3.77000e+00
       153   153     1  1.53800e+01 -3.76545e+00  3.07900e+01
       154   154     1  1.67600e+01  1.62700e+01  3.40000e-01
       155   155     1  8.93000e+00  1.94500e+01 -1.11354e+01
       156   156     1 -6.31545e+00  1.26100e+01 -4.73545e+00
       157   157     1  2.10000e+00 -1.34854e+01  7.48000e+00
       158   158     1 -2.89155e+01 -1.09154e+01 -6.11545e+00
       159   159     1  2.63300e+01  1.57700e+01  1.93100e+01
       160   160     1 -2.52545e+00 -3.48545e+00  3.57000e+00
       161   161     1  1.42800e+01 -7.95446e-01 -9.53545e+00
       162   162     1  1.22800e+01 -2.67154e+01 -2.48654e+01
       163   163     1  8.20000e+00  2.65600e+01  2.05400e+01
       164   164     1 -1.84545e+00 -2.55854e+01  2.31200e+01
       165   165     1 -7.61545e+00  2.56100e+01 -2.44854e+01
       166   166     1  2.30000e+01 -1.11754e+01  5.15000e+00
       167   167     1 -1.33545e+00 -2.37554e+01  2.01200e+01
       168   168     1 -9.42545e+00 -5.70545e+00 -1.97854e+01
       169   169     1 -1.70855e+01  1.65100e+01  2.09000e+01
       170   170     1  1.31000e+00  1.66400e+01  2.15700e+01
       171   171     1 -1.45055e+01  1.04700e+01 -1.30545e+00
       172   172     1  9.88000e+00  1.13000e+01 -1.25354e+01
       173   173     1  1.04600e+01 -2.47354e+01 -1.17545e+00
       174   174     1 -1.69545e+00  1.84100e+01  5.75000e+00
       175   175     1  2.24600e+01 -1.59354e+01  1.91400e+01
       176   176     1 -8.75545e+00  1.22500e+01  1.82900e+01
       177   177     1  4.01000e+00 -2.14754e+01  2.28400e+01
       178   178     1 -1.66955e+01  6.24554e-01  5.77000e+00
       179   179     1 -1.31655e+01  9.33000e+00 -2.86754e+01
       180   180     1  1.70300e+01 -2.79654e+01  2.25900e+01
       181   181     1  1.10000e+01  2.78400e+01 -3.04854e+01
       182   182     1 -7.71545e+00 -5.27545e+00  6.51000e+00
       183   183     1 -2.44855e+01 -2.84954e+01  2.70500e+01
       184   184     1 -1.43555e+01  2.45000e+00  2.09200e+01
       185   185     1  2.78600e+01 -2.01545e+00  4.68000e+00
       186   186     1  2.29200e+01 -1.75654e+01  2.57100e+01
       187   187     1  3.00000e+00 -1.10454e+01 -1.75545e+00
       188   188     1  3.09800e+01 -7.41545e+00 -1.94054e+01
       189   189     1  1.22700e+01  5.92000e+00  1.33000e+00
       190   190     1 -2.61355e+01  1.75800e+01 -2.44754e+01
       191   191     1  1.57000e+01  1.72800e+01  1.98700e+01
       192   192     1  7.09000e+00 -1.20054e+01 -1.01054e+01
       193   193     1  6.83000e+00  2.39000e+01  3.05700e+01
       194   194     1  3.03100e+01 -7.11545e+00 -1.39254e+01
       195   195     1 -2.43255e+01 -1.14554e+01  2.51400e+01
       196   196     1 -1.70855e+01 -2.04954e+01 -1.11354e+01
       197   197     1 -2.27255e+01  2.68300e+01 -2.55254e+01
       198   198     1  2.93800e+01 -1.77545e+00 -1.87754e+01
       199   199     1 -2.14545e+00 -2.81654e+01  1.86900e+01
       200   200     1  6.96000e+00  1.00100e+01  2.71700e+01
       201   201     1 -1.53255e+01  5.22000e+00  8.90000e-01
       202   202     1  1.84900e+01  2.95800e+01 -2.82254e+01
       203   203     1 -2.42255e+01 -2.38054e+01  8.18000e+00
       204   204     1  2.15000e+00  1.13700e+01  2.53400e+01
       205   205     1 -1.88355e+01 -3.03254e+01 -2.76954e+01
       206   206     1  1.58300e+01 -2.00654e+01  1.22200e+01
       207   207     1 -2.68655e+01  3.56000e+00 -2.15054e+01
       208   208     1  8.45000e+00 -1.15446e-01  2.97500e+01
       209   209     1 -2.89555e+01  9.44000e+00 -5.89545e+00
       210   210     1 -7.37545e+00 -1.25154e+01 -3.03654e+01
       211   211     1 -2.91155e+01 -2.54654e+01  1.57700e+01
       212   212     1 -2.90555e+01 -1.25545e+00 -3.02554e+01
       213   213     1 -9.68545e+00  1.88500e+01 -1.45554e+01
       214   214     1  2.84200e+01 -1.89154e+01 -3.01554e+01
       215   215     1  9.65000e+00 -6.89545e+00  2.45500e+01
       216   216     1 -2.42755e+01 -1.45154e+01 -1.51054e+01
       217   217     1 -1.12155e+01  1.82700e+01  1.68400e+01
       218   218     1 -2.43255e+01 -2.32854e+01  2.69500e+01
       219   219     1  2.04900e+01 -3.00754e+01 -9.01545e+00
       220   220     1  2.49500e+01 -1.10254e+01 -9.03545e+00
       221   221     1 -1.34455e+01  1.81900e+01 -6.45445e-01
       222   222     1  1.57400e+01  2.45800e+01  1.83100e+01
       223   223     1 -2.14155e+01  9.58000e+00  1.14600e+01
       224   224     1  1.68200e+01 -7.32545e+00 -2.60754e+01
       225   225     1  2.89500e+01  1.17700e+01  9.22000e+00
       226   226     1  1.03000e+00  1.80600e+01 -2.96054e+01
       227   227     1  1.92900e+01  2.09600e+01 -1.11654e+01
       228   228     1  1.32400e+01  1.29500e+01 -2.67054e+01
       229   229     1  2.60400e+01  1.60700e+01  3.47000e+00
       230   230     1  5.60000e+00  1.22900e+01 -2.65954e+01
       231   231     1  1.96100e+01  1.44800e+01  1.66200e+01
       232   232     1  3.03000e+00  1.65900e+01 -2.13454e+01
       233   233     1  3.11100e+01  1.77400e+01  3.69000e+00
       234   234     1  2.03700e+01  1.44100e+01 -7.25445e-01
       235   235     1  2.51400e+01 -5.76545e+00  2.88700e+01
       236   236     1  5.56000e+00 -3.17545e+00 -4.09545e+00
       237   237     1  1.46000e+01 -2.76354e+01 -2.15354e+01
       238   238     1 -2.10000e-01  3.08100e+01 -2.98545e+00
       239   239     1  2.19600e+01  9.17000e+00  2.89400e+01
       240   240     1 -3.02555e+01  1.78900e+01 -2.30654e+01
       241   241     1 -1.64855e+01  3.58000e+00  7.26000e+00
       242   242     1  2.94800e+01 -3.02254e+01  7.30000e+00
       243   243     1 -1.79655e+01  2.97600e+01  4.83000e+00
       244   244     1 -2.35655e+01  1.11300e+01  2.88000e+01
       245   245     1  5.73000e+00 -7.06545e+00 -9.55545e+00
       246   246     1 -2.15155e+01 -2.51054e+01  2.76900e+01
       247   247     1  2.63900e+01  1.94100e+01  1.39500e+01
       248   248     1 -1.89855e+01  1.64200e+01  7.29000e+00
       249   249     1  1.73800e+01 -1.07054e+01 -5.63545e+00
       250   250     1 -8.08545e+00 -9.68545e+00  1.06000e+00
       251   251     1  2.44200e+01  2.75200e+01 -1.28654e+01
       252   252     1 -1.02655e+01 -1.51554e+01 -2.30954e+01
       253   253     1 -1.41155e+01 -7.46545e+00  1.69800e+01
       254   254     1  1.96000e+01 -1.03754e+01  2.81800e+01
       255   255     1 -2.89545e+00 -2.15354e+01 -3.06545e+00
       256   256     1  2.18400e+01 -2.93854e+01  4.10000e+00
       257   257     1 -1.09955e+01  1.53800e+01  2.07500e+01
       258   258     1  2.11900e+01  2.80600e+01  1.14500e+01
       259   259     1  8.66000e+00  1.14900e+01  1.67500e+01
       260   260     1 -1.59255e+01 -1.73954e+01  7.80000e+00
       261   261     1 -1.97755e+01 -2.67754e+01 -3.04854e+01
       262   262     1 -8.69545e+00 -1.61554e+01  2.01900e+01
       263   263     1  2.66100e+01  5.44000e+00  2.13300e+01
       264   264     1 -1.24055e+01 -2.69254e+01 -1.21354e+01
       265   265     1 -2.18655e+01 -1.06854e+01  1.32700e+01
       266   266     1 -1.08055e+01  3.52000e+00 -2.70054e+01
       267   267     1  1.15800e+01 -2.67154e+01  1.77900e+01
       268   268     1 -1.47955e+01 -2.53754e+01 -2.37354e+01
       269   269     1 -1.29055e+01  6.56000e+00 -2.51054e+01
       270   270     1  2.06000e+01  2.95900e+01 -3.10854e+01
       271   271     1  1.76300e+01  1.65700e+01  9.29000e+00
       272   272     1  2.33000e+00 -1.81554e+01 -1.51354e+01
       273   273     1 -2.61955e+01 -3.96545e+00  1.46500e+01
       274   274     1 -2.81455e+01 -1.76545e+00  6.58000e+00
       275   275     1 -2.35545e+00  1.43200e+01  2.95400e+01
       276   276     1  9.70000e+00 -2.13854e+01  1.55500e+01
       277   277     1 -1.59455e+01  5.44000e+00  2.09100e+01
       278   278     1  1.19000e+00  1.47700e+01  1.14500e+01
       279   279     1 -2.93755e+01  6.87000e+00  1.19600e+01
       280   280     1 -9.41545e+00  1.63700e+01  3.09200e+01
       281   281     1  7.25000e+00  8.46000e+00  2.04000e+00
       282   282     1 -1.22455e+01 -2.06954e+01  6.37000e+00
       283   283     1  2.22900e+01  3.00700e+01  2.53900e+01
       284   284     1 -8.90545e+00  2.02200e+01 -2.36954e+01
       285   285     1 -3.06755e+01 -2.74854e+01  3.35000e+00
       286   286     1  2.61000e+01  1.75600e+01  2.89100e+01
       287   287     1 -1.28255e+01 -1.38545e+00 -2.94754e+01
       288   288     1 -1.61755e+01 -1.09545e+00 -2.48654e+01
       289   289     1 -9.85545e+00 -1.40054e+01 -1.51054e+01
       290   290     1  1.39000e+01  4.77000e+00  5.77000e+00
       291   291     1 -1.84755e+01  1.66600e+01  2.86300e+01
       292   292     1 -1.42655e+01  3.02500e+01  1.89000e+00
       293   293     1  7.72000e+00  7.29000e+00 -1.14254e+01
       294   294     1 -6.12545e+00  3.54000e+00  1.30100e+01
       295   295     1 -2.31555e+01 -2.60545e+00 -2.92554e+01
       296   296     1  2.89800e+01  2.88700e+01  3.04100e+01
       297   297     1  2.43600e+01 -7.75446e-01  1.21200e+01
       298   298     1 -2.73355e+01  3.07000e+00  1.39800e+01
       299   299     1  1.19000e+01 -2.84754e+01 -1.70754e+01
       300   300     1  1.30300e+01  2.12200e+01  2.86600e+01
       301   301     1 -4.75545e+00  2.55000e+00  2.20700e+01
       302   302     1 -1.79355e+01  2.91500e+01  9.04000e+00
       303   303     1 -2.77855e+01  1.29400e+01 -2.89554e+01
       304   304     1  1.97200e+01  1.70300e+01 -2.76954e+01
       305   305     1 -9.37545e+00 -2.93254e+01  2.23400e+01
       306   306     1  2.52500e+01  2.64600e+01  2.63400e+01
       307   307     1  2.64400e+01 -1.30545e+00 -1.25754e+01
       308   308     1  2.91000e+01 -2.27754e+01 -2.74854e+01
       309   309     1 -1.26955e+01 -2.56454e+01  2.03000e+00
       310   310     1  1.32000e+00  9.31000e+00  1.39100e+01
       311   311     1 -4.90000e-01 -7.72545e+00 -7.09545e+00
       312   312     1  1.04000e+00 -2.77545e+00 -2.27254e+01
       313   313     1  1.72900e+01 -6.57545e+00 -1.28754e+01
       314   314     1 -2.89355e+01  6.59000e+00  2.80200e+01
       315   315     1 -1.10855e+01  2.34900e+01  1.62000e+01
       316   316     1 -1.64055e+01 -9.88545e+00  2.38500e+01
       317   317     1  1.27300e+01 -8.04545e+00 -2.20554e+01
       318   318     1 -3.01855e+01  6.00000e+00 -1.65545e+00
       319   319     1 -5.89545e+00 -5.75446e-01  1.14200e+01
       320   320     1  2.35700e+01 -2.12354e+01  2.71900e+01
       321   321     1  2.05800e+01 -2.24154e+01 -1.20354e+01
       322   322     1  1.61300e+01 -2.61854e+01  8.20000e+00
       323   323     1 -7.84545e+00  2.75100e+01  2.51500e+01
       324   324     1 -2.06755e+01 -1.37554e+01 -1.83254e+01
       325   325     1  2.29700e+01  3.05500e+01 -1.26545e+00
       326   326     1  1.23300e+01 -1.86554e+01 -1.91554e+01
       327   327     1  1.38100e+01  2.07000e+00 -2.25445e-01
       328   328     1  5.98000e+00  6.22000e+00  1.08900e+01
       329   329     1 -2.29155e+01  2.31900e+01 -2.93054e+01
       330   330     1 -1.92255e+01  2.32100e+01 -1.67354e+01
       331   331     1 -2.95255e+01 -1.81854e+01 -1.54154e+01
       332   332     1 -2.24755e+01  3.28000e+00  2.39100e+01
       333   333     1 -1.91655e+01  2.93700e+01  2.58000e+01
       334   334     1 -2.39855e+01  3.13000e+00 -3.13545e+00
       335   335     1 -2.30055e+01 -3.57545e+00 -3.14545e+00
       336   336     1  3.03200e+01 -2.05654e+01 -2.30254e+01
       337   337     1  2.81000e+01 -1.28854e+01 -6.35445e-01
       338   338     1  5.79000e+00 -7.01545e+00  1.42700e+01
       339   339     1  1.50700e+01  1.92100e+01  1.57000e+01
       340   340     1 -1.69255e+01 -2.18754e+01  2.23400e+01
       341   341     1 -1.14155e+01  1.39700e+01  1.26600e+01
       342   342     1  2.81900e+01 -2.97654e+01 -1.48454e+01
       343   343     1  2.59800e+01  7.38000e+00 -2.26954e+01
       344   344     1  9.13000e+00 -2.89254e+01  1.98400e+01
       345   345     1 -1.40055e+01  1.45000e+01  9.41000e+00
       346   346     1 -2.69455e+01  1.15200e+01 -9.94545e+00
       347   347     1  1.20400e+01  3.00600e+01 -1.36545e+00
       348   348     1  2.90000e+00  2.30400e+01  2.66700e+01
       349   349     1  1.48900e+01  9.89000e+00 -1.42154e+01
       350   350     1 -1.34955e+01  1.81000e+01  4.59000e+00
       351   351     1  5.16000e+00 -4.54545e+00 -1.74354e+01
       352   352     1 -1.68555e+01 -2.70545e+00 -2.86654e+01
       353   353     1 -1.52655e+01 -2.50554e+01 -8.15445e-01
       354   354     1 -2.33755e+01 -1.99254e+01 -1.92254e+01
       355   355     1  1.37900e+01  1.21100e+01 -9.66545e+00
       356   356     1  2.97700e+01  7.78000e+00 -1.27054e+01
       357   357     1  1.58700e+01 -1.82754e+01 -1.08054e+01
       358   358     1 -3.77545e+00  2.01800e+01 -1.69154e+01
       359   359     1 -1.89545e+00 -4.41545e+00  8.80000e+00
       360   360     1 -1.71455e+01 -1.48854e+01  1.34500e+01
       361   361     1  1.00400e+01 -1.40054e+01 -2.72054e+01
       362   362     1 -9.92545e+00  2.28400e+01  2.09300e+01
       363   363     1 -2.93355e+01 -1.18154e+01 -1.52554e+01
       364   364     1  1.02600e+01 -1.37154e+01 -7.84545e+00
       365   365     1  7.91000e+00  1.78800e+01  2.18400e+01
       366   366     1  3.08000e+00 -2.03654e+01  2.70900e+01
       367   367     1 -2.78545e+00 -2.92454e+01  2.87000e+01
       368   368     1  1.61000e+00 -8.31545e+00 -2.40754e+01
       369   369     1 -1.31255e+01 -1.38354e+01 -2.65054e+01
       370   370     1  1.84000e+00 -2.36754e+01  2.78500e+01
       371   371     1  2.81600e+01 -2.74354e+01 -9.37545e+00
       372   372     1  2.83900e+01  2.14800e+01 -1.45354e+01
       373   373     1  1.78000e+01  2.32000e+01 -8.50545e+00
       374   374     1 -1.59155e+01  7.13000e+00 -2.66554e+01
       375   375     1  2.97300e+01  2.19400e+01 -2.70354e+01
       376   376     1  6.18000e+00  2.33000e+01 -1.20554e+01
       377   377     1 -8.86545e+00 -2.58354e+01 -2.72754e+01
       378   378     1 -5.01545e+00 -2.90954e+01  2.74000e+00
       379   379     1 -1.64755e+01 -1.01554e+01 -2.39654e+01
       380   380     1  3.07500e+01  1.17300e+01 -1.84654e+01
       381   381     1 -1.40755e+01  1.85000e+01  2.21800e+01
       382   382     1  2.21300e+01  2.73100e+01  2.76000e+01
       383   383     1  1.48000e+01 -1.10654e+01 -1.30354e+01
       384   384     1  2.03200e+01  2.32000e+00 -2.70545e+00
       385   385     1  2.44600e+01  2.27900e+01  1.36000e+00
       386   386     1 -3.13545e+00 -1.61154e+01  6.87000e+00
       387   387     1  1.57500e+01  1.15900e+01  1.98200e+01
       388   388     1  1.22700e+01  2.71800e+01  2.28300e+01
       389   389     1  1.32300e+01  2.62300e+01 -1.31554e+01
       390   390     1  1.71700e+01 -1.90654e+01 -3.10454e+01
       391   391     1  3.65000e+00  2.84500e+01 -4.05445e-01
       392   392     1  5.36000e+00 -1.36254e+01 -6.50545e+00
       393   393     1  2.73000e+01 -2.25054e+01  1.75800e+01
       394   394     1  2.47400e+01 -1.51854e+01  3.05000e+01
       395   395     1 -1.65555e+01  1.74200e+01 -1.17854e+01
       396   396     1  1.17700e+01 -1.60545e+00 -1.42545e+00
       397   397     1 -2.81055e+01  1.98400e+01 -6.14545e+00
       398   398     1 -1.39055e+01  2.89000e+01  2.26300e+01
       399   399     1 -9.55545e+00 -6.10545e+00  2.81600e+01
       400   400     1  9.96000e+00 -1.67454e+01  2.24900e+01
       401   401     1 -1.40355e+01 -1.66154e+01  2.04000e+01
       402   402     1 -4.74545e+00  1.50000e-01 -1.89254e+01
       403   403     1 -1.74255e+01  2.13500e+01  2.41800e+01
       404   404     1  3.10200e+01 -2.70754e+01 -5.74545e+00
       405   405     1 -1.11855e+01 -1.30545e+00 -1.69854e+01
       406   406     1  1.95300e+01  2.47300e+01 -2.55754e+01
       407   407     1  2.55900e+01 -1.43754e+01  2.60300e+01
       408   408     1 -2.59155e+01  1.75500e+01 -2.95954e+01
       409   409     1  1.74000e+01 -1.65554e+01  3.45000e+00
       410   410     1 -1.09055e+01 -1.05254e+01 -2.94654e+01
       411   411     1  2.39500e+01  1.00900e+01 -8.27545e+00
       412   412     1 -2.39255e+01  1.56200e+01 -9.03545e+00
       413   413     1  2.03600e+01  8.71000e+00 -1.41545e+00
       414   414     1 -5.93545e+00  1.80400e+01 -1.24254e+01
       415   415     1 -2.29055e+01 -2.88854e+01  9.03000e+00
       416   416     1  3.34000e+00 -1.36054e+01 -9.39545e+00
       417   417     1  2.39300e+01 -2.87054e+01  2.77600e+01
       418   418     1 -2.04655e+01 -2.44454e+01  2.12000e+00
       419   419     1  1.83100e+01 -1.29754e+01  1.98000e+00
       420   420     1  2.04400e+01 -2.71954e+01  2.11300e+01
       421   421     1 -2.02255e+01  6.04000e+00  1.85100e+01
       422   422     1  1.11600e+01  1.35900e+01  2.02700e+01
       423   423     1 -1.86545e+00 -2.87754e+01 -2.98545e+00
       424   424     1 -4.90545e+00 -1.79154e+01  2.02000e+01
       425   425     1 -4.58545e+00  7.26000e+00  2.01000e+00
       426   426     1 -2.60255e+01  8.34000e+00 -1.23754e+01
       427   427     1  3.96000e+00  1.41600e+01 -5.36545e+00
       428   428     1  7.55000e+00  2.75300e+01  5.51000e+00
       429   429     1 -9.11545e+00  2.47200e+01  2.81500e+01
       430   430     1 -5.67545e+00 -4.90545e+00 -1.82254e+01
       431   431     1  3.08800e+01 -2.53754e+01 -2.98054e+01
       432   432     1 -1.29255e+01 -1.05854e+01 -2.38254e+01
       433   433     1 -1.84755e+01  6.93000e+00  1.51900e+01
       434   434     1 -1.75545e+00 -3.14545e+00 -1.25654e+01
       435   435     1  1.74550e-01 -1.92654e+01  5.84000e+00
       436   436     1 -4.75450e-01 -1.91254e+01 -5.50545e+00
       437   437     1  2.87300e+01  1.62000e+01 -1.62654e+01
       438   438     1  2.37500e+01  7.45543e-02 -1.90654e+01
       439   439     1  3.02500e+01  1.41600e+01  1.30000e+01
       440   440     1  1.28000e+01  9.87000e+00 -2.23054e+01
       441   441     1  1.92500e+01 -2.02054e+01  2.67000e+01
       442   442     1  1.18000e+01 -4.72545e+00 -2.83554e+01
       443   443     1  1.79900e+01 -3.03454e+01  4.59000e+00
       444   444     1 -2.33255e+01  1.14200e+01  2.49000e+00
       445   445     1  2.68200e+01  1.52600e+01 -4.15445e-01
       446   446     1  2.51000e+01 -9.06545e+00  2.62500e+01
       447   447     1  3.36000e+00 -2.23754e+01 -1.52054e+01
       448   448     1 -1.67255e+01 -1.59354e+01  8.90000e-01
       449   449     1 -9.29545e+00 -2.35654e+01  7.09000e+00
       450   450     1 -1.52255e+01  3.45543e-02  2.90200e+01
       451   451     1 -2.24955e+01 -9.39545e+00  5.71000e+00
       452   452     1  5.22000e+00 -1.71954e+01  9.30000e-01
       453   453     1 -2.45555e+01  1.88000e+00  1.85600e+01
       454   454     1  1.07300e+01 -2.77545e+00  4.40000e+00
       455   455     1 -2.38155e+01 -6.46545e+00 -6.15445e-01
       456   456     1  2.52500e+01 -2.39954e+01  2.03900e+01
       457   457     1 -2.41155e+01 -2.30000e-01  1.48500e+01
       458   458     1 -3.08355e+01  2.68300e+01  2.30000e-01
       459   459     1 -2.82055e+01 -2.22254e+01  8.23000e+00
       460   460     1  1.31600e+01 -2.17254e+01  8.13000e+00
       461   461     1 -1.11255e+01  5.62000e+00  1.06900e+01
       462   462     1 -1.74545e+00  1.12400e+01  3.30000e-01
       463   463     1 -1.32255e+01  1.10500e+01  2.50300e+01
       464   464     1  2.86500e+01  9.85000e+00 -2.96854e+01
       465   465     1 -2.61655e+01 -1.54654e+01 -3.08354e+01
       466   466     1 -7.26545e+00  7.11000e+00  2.40500e+01
       467   467     1  2.22600e+01 -1.61854e+01 -1.93354e+01
       468   468     1  1.85900e+01 -1.38545e+00  1.08900e+01
       469   469     1  2.00300e+01  2.43100e+01  9.93000e+00
       470   470     1  1.22700e+01 -1.39754e+01  8.80000e+00
       471   471     1 -2.46955e+01 -2.68554e+01  3.00400e+01
       472   472     1  2.93600e+01 -2.97654e+01  1.18900e+01
       473   473     1 -2.76455e+01 -2.70854e+01 -2.44545e+00
       474   474     1 -1.95355e+01 -8.05545e+00  2.08800e+01
       475   475     1  5.95000e+00 -1.98545e+00 -2.96254e+01
       476   476     1  2.15100e+01 -9.19545e+00  1.19600e+01
       477   477     1 -1.02355e+01  5.13000e+00  2.42400e+01