24
Lattice = "4.69519042969 0.0 0.0 0.0 3.31999993324 0.0 0.0 0.0 53.1199989319" Properties=species:S:1:pos:R:3:forces:R:3 energy=-279.068761 stress="-2699.74 -3225.67 0.0 -3225.67 -11966.73 0.0 0.0 0.0 8811.74"
Ta 2.34759 1.66 0.09121 0.0 0.0 0.002389
Ta 0.0 0.0 0.09121 0.0 0.0 0.002389
Ta 0.0 1.66 2.3361 0.0 0.0 -0.010927
Ta 2.34759 0.0 2.3361 0.0 0.0 -0.010927
Ta 2.34759 1.66 4.68536 0.0 0.0 -0.004142
Ta 0.0 0.0 4.68536 0.0 0.0 -0.004142
Ta 0.0 1.66 7.03392 0.0 0.0 0.078092
Ta 2.34759 0.0 7.03392 0.0 0.0 0.078092
Ta 2.34759 1.66 9.38594 0.0 0.0 -0.152903
Ta 0.0 0.0 9.38594 0.0 0.0 -0.152903
Ta 0.0 1.66 11.73648 0.0 0.0 -0.861147
Ta 2.34759 0.0 11.73648 0.0 0.0 -0.861147
Ta 3.52139 2.49 14.08712 0.0 0.0 0.861147
Ta 1.1738 0.83 14.08712 0.0 0.0 0.861147
Ta 1.1738 2.49 16.43764 0.0 0.0 0.152903
Ta 3.52139 0.83 16.43764 0.0 0.0 0.152903
Ta 3.52139 2.49 18.78966 0.0 0.0 -0.078092
Ta 1.1738 0.83 18.78966 0.0 0.0 -0.078092
Ta 1.1738 2.49 21.13823 0.0 0.0 0.004142
Ta 3.52139 0.83 21.13823 0.0 0.0 0.004142
Ta 3.52139 2.49 23.48739 0.0 0.0 0.010927
Ta 1.1738 0.83 23.48739 0.0 0.0 0.010927
Ta 1.1738 2.49 25.73229 0.0 0.0 -0.002389
Ta 3.52139 0.83 25.73229 0.0 0.0 -0.002389
24
Lattice = "4.69519042969 0.0 0.0 0.0 3.31999993324 0.0 0.0 0.0 53.1199989319" Properties=species:S:1:pos:R:3:forces:R:3 energy=-279.784296 stress="-9310.84 -724.11 -1802.3100000000002 -724.11 -7581.28 -1731.35 -1802.3100000000002 -1731.35 -145.04"
Ta 2.34759 1.66 0.09121 -0.000195 -0.00161 0.000812
Ta 0.0 0.0 0.09121 -0.000195 -0.00161 0.000812
Ta 0.0 1.66 2.3361 -0.000284 0.000353 -0.002185
Ta 2.34759 0.0 2.3361 -0.000284 0.000353 -0.002185
Ta 2.34759 1.66 4.68536 0.008799 -0.00141 -0.002306
Ta 0.0 0.0 4.68536 0.008799 -0.00141 -0.002306
Ta 0.0 1.66 7.03392 -0.006695 0.021282 0.017658
Ta 2.34759 0.0 7.03392 -0.006695 0.021282 0.017658
Ta 2.34759 1.66 9.38594 -0.014885 -0.089566 0.000145
Ta 0.0 0.0 9.38594 -0.014885 -0.089566 0.000145
Ta 0.0 1.66 11.73648 0.220002 0.367425 -0.11205
Ta 2.34759 0.0 11.73648 0.220002 0.367425 -0.11205
Ta 2.58235 1.826 14.08712 -0.220002 -0.367425 0.11205
Ta 0.23476 0.166 14.08712 -0.220002 -0.367425 0.11205
Ta 0.23476 1.826 16.43764 0.014885 0.089566 -0.000145
Ta 2.58235 0.166 16.43764 0.014885 0.089566 -0.000145
Ta 2.58235 1.826 18.78966 0.006695 -0.021282 -0.017658
Ta 0.23476 0.166 18.78966 0.006695 -0.021282 -0.017658
Ta 0.23476 1.826 21.13823 -0.008799 0.00141 0.002306
Ta 2.58235 0.166 21.13823 -0.008799 0.00141 0.002306
Ta 2.58235 1.826 23.48739 0.000284 -0.000353 0.002185
Ta 0.23476 0.166 23.48739 0.000284 -0.000353 0.002185
Ta 0.23476 1.826 25.73229 0.000195 0.00161 -0.000812
Ta 2.58235 0.166 25.73229 0.000195 0.00161 -0.000812
24
Lattice = "4.69519042969 0.0 0.0 0.0 3.31999993324 0.0 0.0 0.0 53.1199989319" Properties=species:S:1:pos:R:3:forces:R:3 energy=-279.901657 stress="-9711.95 0.0 0.0 0.0 -7971.759999999999 0.0 0.0 0.0 -387.39"
Ta 2.34759 1.66 0.09122 0.0 0.0 -2.1e-05
Ta 0.0 0.0 0.09122 0.0 0.0 -2.1e-05
Ta 0.0 1.66 2.33609 0.0 0.0 0.000332
Ta 2.34759 0.0 2.33609 0.0 0.0 0.000332
Ta 2.34759 1.66 4.68537 0.0 0.0 0.000393
Ta 0.0 0.0 4.68537 0.0 0.0 0.000393
Ta 0.0 1.66 7.03419 0.0 0.0 8.4e-05
Ta 2.34759 0.0 7.03419 0.0 0.0 8.4e-05
Ta 2.34759 1.66 9.38555 0.0 0.0 -0.000286
Ta 0.0 0.0 9.38555 0.0 0.0 -0.000286
Ta 0.0 1.66 11.73665 0.0 0.0 -0.000509
Ta 2.34759 0.0 11.73665 0.0 0.0 -0.000509
Ta 4.69519 0.0 14.08695 0.0 0.0 0.000509
Ta 2.3476 1.66 14.08695 0.0 0.0 0.000509
Ta 2.3476 0.0 16.43803 0.0 0.0 0.000286
Ta 4.69519 1.66 16.43803 0.0 0.0 0.000286
Ta 4.69519 0.0 18.78939 0.0 0.0 -8.4e-05
Ta 2.3476 1.66 18.78939 0.0 0.0 -8.4e-05
Ta 2.3476 0.0 21.13822 0.0 0.0 -0.000393
Ta 4.69519 1.66 21.13822 0.0 0.0 -0.000393
Ta 4.69519 0.0 23.4874 0.0 0.0 -0.000332
Ta 2.3476 1.66 23.4874 0.0 0.0 -0.000332
Ta 2.3476 0.0 25.73228 0.0 0.0 2.1e-05
Ta 4.69519 1.66 25.73228 0.0 0.0 2.1e-05
24
Lattice = "4.69519042969 0.0 0.0 0.0 3.31999993324 0.0 0.0 0.0 53.1199989319" Properties=species:S:1:pos:R:3:forces:R:3 energy=-279.584238 stress="-8455.84 -1472.71 2162.92 -1472.71 -8121.589999999999 1800.64 2162.92 1800.64 -338.96"
Ta 2.34759 1.66 0.07452 -0.000101 0.002118 -0.001067
Ta 0.0 0.0 0.07452 -0.000101 0.002118 -0.001067
Ta 0.0 1.66 2.31914 0.000559 -0.002302 0.001125
Ta 2.34759 0.0 2.31914 0.000559 -0.002302 0.001125
Ta 2.34759 1.66 4.6683 -0.011564 0.001165 -0.001122
Ta 0.0 0.0 4.6683 -0.011564 0.001165 -0.001122
Ta 0.0 1.66 7.0214 0.010839 -0.033575 -0.000333
Ta 2.34759 0.0 7.0214 0.010839 -0.033575 -0.000333
Ta 2.34759 1.66 9.36328 0.008027 0.132954 0.000561
Ta 0.0 0.0 9.36328 0.008027 0.132954 0.000561
Ta 0.0 1.66 11.70268 -0.232266 -0.441609 -0.001106
Ta 2.34759 0.0 11.70268 -0.232266 -0.441609 -0.001106
Ta 4.22567 2.988 14.12092 0.232266 0.441609 0.001106
Ta 1.87808 1.328 14.12092 0.232266 0.441609 0.001106
Ta 1.87808 2.988 16.4603 -0.008027 -0.132954 -0.000561
Ta 4.22567 1.328 16.4603 -0.008027 -0.132954 -0.000561
Ta 4.22567 2.988 18.80218 -0.010839 0.033575 0.000333
Ta 1.87808 1.328 18.80218 -0.010839 0.033575 0.000333
Ta 1.87808 2.988 21.15529 0.011564 -0.001165 0.001122
Ta 4.22567 1.328 21.15529 0.011564 -0.001165 0.001122
Ta 4.22567 2.988 23.50435 -0.000559 0.002302 -0.001125
Ta 1.87808 1.328 23.50435 -0.000559 0.002302 -0.001125
Ta 1.87808 2.988 25.74898 0.000101 -0.002118 0.001067
Ta 4.22567 1.328 25.74898 0.000101 -0.002118 0.001067
24
Lattice = "4.69519042969 0.0 0.0 0.0 3.31999993324 0.0 0.0 0.0 53.1199989319" Properties=species:S:1:pos:R:3:forces:R:3 energy=-279.784283 stress="-9315.08 -723.62 1802.65 -723.62 -7584.349999999999 1731.7800000000002 1802.65 1731.7800000000002 -137.97"
Ta 2.34759 1.66 0.09121 0.000196 0.00161 0.000943
Ta 0.0 0.0 0.09121 0.000196 0.00161 0.000943
Ta 0.0 1.66 2.3361 0.000284 -0.000353 -0.002245
Ta 2.34759 0.0 2.3361 0.000284 -0.000353 -0.002245
Ta 2.34759 1.66 4.68536 -0.008799 0.00141 -0.002392
Ta 0.0 0.0 4.68536 -0.008799 0.00141 -0.002392
Ta 0.0 1.66 7.03392 0.006694 -0.021282 0.017465
Ta 2.34759 0.0 7.03392 0.006694 -0.021282 0.017465
Ta 2.34759 1.66 9.38594 0.014872 0.089556 -4.7e-05
Ta 0.0 0.0 9.38594 0.014872 0.089556 -4.7e-05
Ta 0.0 1.66 11.73648 -0.219937 -0.367391 -0.112068
Ta 2.34759 0.0 11.73648 -0.219937 -0.367391 -0.112068
Ta 4.46043 3.154 14.08712 0.219937 0.367391 0.112068
Ta 2.11284 1.494 14.08712 0.219937 0.367391 0.112068
Ta 2.11284 3.154 16.43764 -0.014872 -0.089556 4.7e-05
Ta 4.46043 1.494 16.43764 -0.014872 -0.089556 4.7e-05
Ta 4.46043 3.154 18.78966 -0.006694 0.021282 -0.017465
Ta 2.11284 1.494 18.78966 -0.006694 0.021282 -0.017465
Ta 2.11284 3.154 21.13823 0.008799 -0.00141 0.002392
Ta 4.46043 1.494 21.13823 0.008799 -0.00141 0.002392
Ta 4.46043 3.154 23.48739 -0.000284 0.000353 0.002245
Ta 2.11284 1.494 23.48739 -0.000284 0.000353 0.002245
Ta 2.11284 3.154 25.73229 -0.000196 -0.00161 -0.000943
Ta 4.46043 1.494 25.73229 -0.000196 -0.00161 -0.000943
24
Lattice = "4.69519042969 0.0 0.0 0.0 3.31999993324 0.0 0.0 0.0 53.1199989319" Properties=species:S:1:pos:R:3:forces:R:3 energy=-279.302158 stress="-5999.0 -2091.5499999999997 -2060.3199999999997 -2091.5499999999997 -8316.509999999998 -1933.87 -2060.3199999999997 -1933.87 4767.089999999999"
Ta 2.34759 1.66 0.09121 0.000338 -0.000764 0.003013
Ta 0.0 0.0 0.09121 0.000338 -0.000764 0.003013
Ta 0.0 1.66 2.3361 -0.000192 0.002217 -0.008533
Ta 2.34759 0.0 2.3361 -0.000192 0.002217 -0.008533
Ta 2.34759 1.66 4.68536 0.007402 -0.005681 -0.01113
Ta 0.0 0.0 4.68536 0.007402 -0.005681 -0.01113
Ta 0.0 1.66 7.03392 -0.010084 0.035505 0.068653
Ta 2.34759 0.0 7.03392 -0.010084 0.035505 0.068653
Ta 2.34759 1.66 9.38594 0.009421 -0.162853 -0.055133
Ta 0.0 0.0 9.38594 0.009421 -0.162853 -0.055133
Ta 0.0 1.66 11.73648 0.194592 0.543144 -0.645035
Ta 2.34759 0.0 11.73648 0.194592 0.543144 -0.645035
Ta 3.05187 2.158 14.08712 -0.194592 -0.543144 0.645035
Ta 0.70428 0.498 14.08712 -0.194592 -0.543144 0.645035
Ta 0.70428 2.158 16.43764 -0.009421 0.162853 0.055133
Ta 3.05187 0.498 16.43764 -0.009421 0.162853 0.055133
Ta 3.05187 2.158 18.78966 0.010084 -0.035505 -0.068653
Ta 0.70428 0.498 18.78966 0.010084 -0.035505 -0.068653
Ta 0.70428 2.158 21.13823 -0.007402 0.005681 0.01113
Ta 3.05187 0.498 21.13823 -0.007402 0.005681 0.01113
Ta 3.05187 2.158 23.48739 0.000192 -0.002217 0.008533
Ta 0.70428 0.498 23.48739 0.000192 -0.002217 0.008533
Ta 0.70428 2.158 25.73229 -0.000338 0.000764 -0.003013
Ta 3.05187 0.498 25.73229 -0.000338 0.000764 -0.003013
24
Lattice = "4.69519042969 0.0 0.0 0.0 3.31999993324 0.0 0.0 0.0 53.1199989319" Properties=species:S:1:pos:R:3:forces:R:3 energy=-279.55564 stress="-7951.990000000001 -1470.47 -2323.28 -1470.47 -7087.54 -2242.19 -2323.28 -2242.19 1393.38"
Ta 2.34759 1.66 0.09121 6.8e-05 -0.00218 0.002247
Ta 0.0 0.0 0.09121 6.8e-05 -0.00218 0.002247
Ta 0.0 1.66 2.3361 -0.000373 0.001531 -0.005318
Ta 2.34759 0.0 2.3361 -0.000373 0.001531 -0.005318
Ta 2.34759 1.66 4.68536 0.011743 -0.002192 -0.00859
Ta 0.0 0.0 4.68536 0.011743 -0.002192 -0.00859
Ta 0.0 1.66 7.03392 -0.010535 0.038081 0.052269
Ta 2.34759 0.0 7.03392 -0.010535 0.038081 0.052269
Ta 2.34759 1.66 9.38594 -0.00905 -0.147322 -0.015198
Ta 0.0 0.0 9.38594 -0.00905 -0.147322 -0.015198
Ta 0.0 1.66 11.73648 0.255618 0.52958 -0.348689
Ta 2.34759 0.0 11.73648 0.255618 0.52958 -0.348689
Ta 2.81711 1.992 14.08712 -0.255618 -0.52958 0.348689
Ta 0.46952 0.332 14.08712 -0.255618 -0.52958 0.348689
Ta 0.46952 1.992 16.43764 0.00905 0.147322 0.015198
Ta 2.81711 0.332 16.43764 0.00905 0.147322 0.015198
Ta 2.81711 1.992 18.78966 0.010535 -0.038081 -0.052269
Ta 0.46952 0.332 18.78966 0.010535 -0.038081 -0.052269
Ta 0.46952 1.992 21.13823 -0.011743 0.002192 0.00859
Ta 2.81711 0.332 21.13823 -0.011743 0.002192 0.00859
Ta 2.81711 1.992 23.48739 0.000373 -0.001531 0.005318
Ta 0.46952 0.332 23.48739 0.000373 -0.001531 0.005318
Ta 0.46952 1.992 25.73229 -6.8e-05 0.00218 -0.002247
Ta 2.81711 0.332 25.73229 -6.8e-05 0.00218 -0.002247
24
Lattice = "4.69519042969 0.0 0.0 0.0 3.31999993324 0.0 0.0 0.0 53.1199989319" Properties=species:S:1:pos:R:3:forces:R:3 energy=-279.246939 stress="-7247.110000000001 -2088.01 900.26 -2088.01 -12867.95 522.24 900.26 522.24 -343.87"
Ta 2.34759 1.66 0.0313 -0.000299 2.9e-05 0.000555
Ta 0.0 0.0 0.0313 -0.000299 2.9e-05 0.000555
Ta 0.0 1.66 2.27588 0.000225 -0.001627 0.00115
Ta 2.34759 0.0 2.27588 0.000225 -0.001627 0.00115
Ta 2.34759 1.66 4.62506 -0.002747 0.002713 0.000254
Ta 0.0 0.0 4.62506 -0.002747 0.002713 0.000254
Ta 0.0 1.66 6.98061 0.004373 -0.018318 9.6e-05
Ta 2.34759 0.0 6.98061 0.004373 -0.018318 9.6e-05
Ta 2.34759 1.66 9.31312 -0.010337 0.080996 -2e-06
Ta 0.0 0.0 9.31312 -0.010337 0.080996 -2e-06
Ta 0.0 1.66 11.6666 -0.064509 -0.216178 0.000109
Ta 2.34759 0.0 11.6666 -0.064509 -0.216178 0.000109
Ta 3.75615 2.656 14.157 0.064509 0.216178 -0.000109
Ta 1.40856 0.996 14.157 0.064509 0.216178 -0.000109
Ta 1.40856 2.656 16.51046 0.010337 -0.080996 2e-06
Ta 3.75615 0.996 16.51046 0.010337 -0.080996 2e-06
Ta 3.75615 2.656 18.84297 -0.004373 0.018318 -9.6e-05
Ta 1.40856 0.996 18.84297 -0.004373 0.018318 -9.6e-05
Ta 1.40856 2.656 21.19853 0.002747 -0.002713 -0.000254
Ta 3.75615 0.996 21.19853 0.002747 -0.002713 -0.000254
Ta 3.75615 2.656 23.54761 -0.000225 0.001627 -0.00115
Ta 1.40856 0.996 23.54761 -0.000225 0.001627 -0.00115
Ta 1.40856 2.656 25.7922 0.000299 -2.9e-05 -0.000555
Ta 3.75615 0.996 25.7922 0.000299 -2.9e-05 -0.000555
24
Lattice = "4.69519042969 0.0 0.0 0.0 3.31999993324 0.0 0.0 0.0 53.1199989319" Properties=species:S:1:pos:R:3:forces:R:3 energy=-279.302157 stress="-5999.4800000000005 -2091.2000000000003 2059.81 -2091.2000000000003 -8317.08 1933.52 2059.81 1933.52 4766.58"
Ta 2.34759 1.66 0.09121 -0.000338 0.000764 0.003027
Ta 0.0 0.0 0.09121 -0.000338 0.000764 0.003027
Ta 0.0 1.66 2.3361 0.000192 -0.002217 -0.008526
Ta 2.34759 0.0 2.3361 0.000192 -0.002217 -0.008526
Ta 2.34759 1.66 4.68536 -0.007402 0.005681 -0.011124
Ta 0.0 0.0 4.68536 -0.007402 0.005681 -0.011124
Ta 0.0 1.66 7.03392 0.010084 -0.035505 0.068661
Ta 2.34759 0.0 7.03392 0.010084 -0.035505 0.068661
Ta 2.34759 1.66 9.38594 -0.009421 0.162854 -0.055124
Ta 0.0 0.0 9.38594 -0.009421 0.162854 -0.055124
Ta 0.0 1.66 11.73648 -0.194591 -0.543144 -0.645027
Ta 2.34759 0.0 11.73648 -0.194591 -0.543144 -0.645027
Ta 3.99091 2.822 14.08712 0.194591 0.543144 0.645027
Ta 1.64332 1.162 14.08712 0.194591 0.543144 0.645027
Ta 1.64332 2.822 16.43764 0.009421 -0.162854 0.055124
Ta 3.99091 1.162 16.43764 0.009421 -0.162854 0.055124
Ta 3.99091 2.822 18.78966 -0.010084 0.035505 -0.068661
Ta 1.64332 1.162 18.78966 -0.010084 0.035505 -0.068661
Ta 1.64332 2.822 21.13823 0.007402 -0.005681 0.011124
Ta 3.99091 1.162 21.13823 0.007402 -0.005681 0.011124
Ta 3.99091 2.822 23.48739 -0.000192 0.002217 0.008526
Ta 1.64332 1.162 23.48739 -0.000192 0.002217 0.008526
Ta 1.64332 2.822 25.73229 0.000338 -0.000764 -0.003027
Ta 3.99091 1.162 25.73229 0.000338 -0.000764 -0.003027
24
Lattice = "4.69519042969 0.0 0.0 0.0 3.31999993324 0.0 0.0 0.0 53.1199989319" Properties=species:S:1:pos:R:3:forces:R:3 energy=-279.246935 stress="-7243.7300000000005 -2085.2 -898.75 -2085.2 -12860.99 -521.24 -898.75 -521.24 -339.14"
Ta 2.34759 1.66 0.03138 0.000299 -3.1e-05 0.000674
Ta 0.0 0.0 0.03138 0.000299 -3.1e-05 0.000674
Ta 0.0 1.66 2.276 -0.000225 0.001628 -0.00088
Ta 2.34759 0.0 2.276 -0.000225 0.001628 -0.00088
Ta 2.34759 1.66 4.62485 0.002741 -0.002715 0.000469
Ta 0.0 0.0 4.62485 0.002741 -0.002715 0.000469
Ta 0.0 1.66 6.98003 -0.004361 0.018297 0.002362
Ta 2.34759 0.0 6.98003 -0.004361 0.018297 0.002362
Ta 2.34759 1.66 9.31271 0.010328 -0.080927 0.000615
Ta 0.0 0.0 9.31271 0.010328 -0.080927 0.000615
Ta 0.0 1.66 11.66645 0.064416 0.215971 0.000489
Ta 2.34759 0.0 11.66645 0.064416 0.215971 0.000489
Ta 3.28663 2.324 14.15715 -0.064416 -0.215971 -0.000489
Ta 0.93904 0.664 14.15715 -0.064416 -0.215971 -0.000489
Ta 0.93904 2.324 16.51087 -0.010328 0.080927 -0.000615
Ta 3.28663 0.664 16.51087 -0.010328 0.080927 -0.000615
Ta 3.28663 2.324 18.84355 0.004361 -0.018297 -0.002362
Ta 0.93904 0.664 18.84355 0.004361 -0.018297 -0.002362
Ta 0.93904 2.324 21.19874 -0.002741 0.002715 -0.000469
Ta 3.28663 0.664 21.19874 -0.002741 0.002715 -0.000469
Ta 3.28663 2.324 23.54749 0.000225 -0.001628 0.00088
Ta 0.93904 0.664 23.54749 0.000225 -0.001628 0.00088
Ta 0.93904 2.324 25.79212 -0.000299 3.1e-05 -0.000674
Ta 3.28663 0.664 25.79212 -0.000299 3.1e-05 -0.000674
24
Lattice = "4.69519042969 0.0 0.0 0.0 3.31999993324 0.0 0.0 0.0 53.1199989319" Properties=species:S:1:pos:R:3:forces:R:3 energy=-279.896025 stress="-9869.42 0.0 0.0 0.0 -8124.2 0.0 0.0 0.0 -554.5600000000001"
Ta 2.34759 1.66 0.09121 0.0 0.0 0.000102
Ta 0.0 0.0 0.09121 0.0 0.0 0.000102
Ta 0.0 1.66 2.3361 0.0 0.0 -0.000104
Ta 2.34759 0.0 2.3361 0.0 0.0 -0.000104
Ta 2.34759 1.66 4.68536 0.0 0.0 0.000115
Ta 0.0 0.0 4.68536 0.0 0.0 0.000115
Ta 0.0 1.66 7.03392 0.0 0.0 0.002828
Ta 2.34759 0.0 7.03392 0.0 0.0 0.002828
Ta 2.34759 1.66 9.38594 0.0 0.0 -0.004132
Ta 0.0 0.0 9.38594 0.0 0.0 -0.004132
Ta 0.0 1.66 11.73648 0.0 0.0 0.001736
Ta 2.34759 0.0 11.73648 0.0 0.0 0.001736
Ta 2.34759 1.66 14.08712 0.0 0.0 -0.001736
Ta 0.0 0.0 14.08712 0.0 0.0 -0.001736
Ta 0.0 1.66 16.43764 0.0 0.0 0.004132
Ta 2.34759 0.0 16.43764 0.0 0.0 0.004132
Ta 2.34759 1.66 18.78966 0.0 0.0 -0.002828
Ta 0.0 0.0 18.78966 0.0 0.0 -0.002828
Ta 0.0 1.66 21.13823 0.0 0.0 -0.000115
Ta 2.34759 0.0 21.13823 0.0 0.0 -0.000115
Ta 2.34759 1.66 23.48739 0.0 0.0 0.000104
Ta 0.0 0.0 23.48739 0.0 0.0 0.000104
Ta 0.0 1.66 25.73229 0.0 0.0 -0.000102
Ta 2.34759 0.0 25.73229 0.0 0.0 -0.000102
24
Lattice = "4.69519042969 0.0 0.0 0.0 3.31999993324 0.0 0.0 0.0 53.1199989319" Properties=species:S:1:pos:R:3:forces:R:3 energy=-279.584237 stress="-8428.63 -1472.9 -2164.32 -1472.9 -8091.21 -1800.0100000000002 -2164.32 -1800.0100000000002 -288.22999999999996"
Ta 2.34759 1.66 0.07506 0.000102 -0.002133 -0.000914
Ta 0.0 0.0 0.07506 0.000102 -0.002133 -0.000914
Ta 0.0 1.66 2.31974 -0.000559 0.002291 0.000397
Ta 2.34759 0.0 2.31974 -0.000559 0.002291 0.000397
Ta 2.34759 1.66 4.6688 0.011573 -0.001165 -0.000831
Ta 0.0 0.0 4.6688 0.011573 -0.001165 -0.000831
Ta 0.0 1.66 7.02184 -0.010852 0.033591 -0.000593
Ta 2.34759 0.0 7.02184 -0.010852 0.033591 -0.000593
Ta 2.34759 1.66 9.36366 -0.008031 -0.133014 -0.000394
Ta 0.0 0.0 9.36366 -0.008031 -0.133014 -0.000394
Ta 0.0 1.66 11.70273 0.232392 0.441681 -0.000156
Ta 2.34759 0.0 11.70273 0.232392 0.441681 -0.000156
Ta 2.81711 1.992 14.12087 -0.232392 -0.441681 0.000156
Ta 0.46952 0.332 14.12087 -0.232392 -0.441681 0.000156
Ta 0.46952 1.992 16.45992 0.008031 0.133014 0.000394
Ta 2.81711 0.332 16.45992 0.008031 0.133014 0.000394
Ta 2.81711 1.992 18.80174 0.010852 -0.033591 0.000593
Ta 0.46952 0.332 18.80174 0.010852 -0.033591 0.000593
Ta 0.46952 1.992 21.15479 -0.011573 0.001165 0.000831
Ta 2.81711 0.332 21.15479 -0.011573 0.001165 0.000831
Ta 2.81711 1.992 23.50375 0.000559 -0.002291 -0.000397
Ta 0.46952 0.332 23.50375 0.000559 -0.002291 -0.000397
Ta 0.46952 1.992 25.74844 -0.000102 0.002133 0.000914
Ta 2.81711 0.332 25.74844 -0.000102 0.002133 0.000914
24
Lattice = "4.69519042969 0.0 0.0 0.0 3.31999993324 0.0 0.0 0.0 53.1199989319" Properties=species:S:1:pos:R:3:forces:R:3 energy=-279.124427 stress="-3757.0899999999997 -2887.24 902.0 -2887.24 -10640.1 866.64 902.0 866.64 7774.740000000001"
Ta 2.34759 1.66 0.09121 -0.000483 -0.000237 0.002307
Ta 0.0 0.0 0.09121 -0.000483 -0.000237 0.002307
Ta 0.0 1.66 2.3361 8.9e-05 -0.001539 -0.010324
Ta 2.34759 0.0 2.3361 8.9e-05 -0.001539 -0.010324
Ta 2.34759 1.66 4.68536 -0.003111 0.003535 -0.007613
Ta 0.0 0.0 4.68536 -0.003111 0.003535 -0.007613
Ta 0.0 1.66 7.03392 0.007146 -0.021127 0.073738
Ta 2.34759 0.0 7.03392 0.007146 -0.021127 0.073738
Ta 2.34759 1.66 9.38594 -0.013663 0.107342 -0.116996
Ta 0.0 0.0 9.38594 -0.013663 0.107342 -0.116996
Ta 0.0 1.66 11.73648 -0.067743 -0.32857 -0.821304
Ta 2.34759 0.0 11.73648 -0.067743 -0.32857 -0.821304
Ta 3.75615 2.656 14.08712 0.067743 0.32857 0.821304
Ta 1.40856 0.996 14.08712 0.067743 0.32857 0.821304
Ta 1.40856 2.656 16.43764 0.013663 -0.107342 0.116996
Ta 3.75615 0.996 16.43764 0.013663 -0.107342 0.116996
Ta 3.75615 2.656 18.78966 -0.007146 0.021127 -0.073738
Ta 1.40856 0.996 18.78966 -0.007146 0.021127 -0.073738
Ta 1.40856 2.656 21.13823 0.003111 -0.003535 0.007613
Ta 3.75615 0.996 21.13823 0.003111 -0.003535 0.007613
Ta 3.75615 2.656 23.48739 -8.9e-05 0.001539 0.010324
Ta 1.40856 0.996 23.48739 -8.9e-05 0.001539 0.010324
Ta 1.40856 2.656 25.73229 0.000483 0.000237 -0.002307
Ta 3.75615 0.996 25.73229 0.000483 0.000237 -0.002307
24
Lattice = "4.69519042969 0.0 0.0 0.0 3.31999993324 0.0 0.0 0.0 53.1199989319" Properties=species:S:1:pos:R:3:forces:R:3 energy=-279.379366 stress="-7763.09 -1797.51 1889.74 -1797.51 -10164.59 1320.57 1889.74 1320.57 34.12"
Ta 2.34759 1.66 0.05376 -0.000259 0.002166 -0.001263
Ta 0.0 0.0 0.05376 -0.000259 0.002166 -0.001263
Ta 0.0 1.66 2.29821 0.000506 -0.00178 0.000245
Ta 2.34759 0.0 2.29821 0.000506 -0.00178 0.000245
Ta 2.34759 1.66 4.64698 -0.007327 0.004782 -0.001824
Ta 0.0 0.0 4.64698 -0.007327 0.004782 -0.001824
Ta 0.0 1.66 7.00162 0.008163 -0.030937 -0.001313
Ta 2.34759 0.0 7.00162 0.008163 -0.030937 -0.001313
Ta 2.34759 1.66 9.33764 -0.007098 0.132381 -0.001661
Ta 0.0 0.0 9.33764 -0.007098 0.132381 -0.001661
Ta 0.0 1.66 11.67998 -0.168672 -0.393164 0.000838
Ta 2.34759 0.0 11.67998 -0.168672 -0.393164 0.000838
Ta 3.99091 2.822 14.14362 0.168672 0.393164 -0.000838
Ta 1.64332 1.162 14.14362 0.168672 0.393164 -0.000838
Ta 1.64332 2.822 16.48594 0.007098 -0.132381 0.001661
Ta 3.99091 1.162 16.48594 0.007098 -0.132381 0.001661
Ta 3.99091 2.822 18.82196 -0.008163 0.030937 0.001313
Ta 1.64332 1.162 18.82196 -0.008163 0.030937 0.001313
Ta 1.64332 2.822 21.17661 0.007327 -0.004782 0.001824
Ta 3.99091 1.162 21.17661 0.007327 -0.004782 0.001824
Ta 3.99091 2.822 23.52528 -0.000506 0.00178 -0.000245
Ta 1.64332 1.162 23.52528 -0.000506 0.00178 -0.000245
Ta 1.64332 2.822 25.76974 0.000259 -0.002166 0.001263
Ta 3.99091 1.162 25.76974 0.000259 -0.002166 0.001263
24
Lattice = "4.69519042969 0.0 0.0 0.0 3.31999993324 0.0 0.0 0.0 53.1199989319" Properties=species:S:1:pos:R:3:forces:R:3 energy=-279.37937 stress="-7778.34 -1797.1200000000001 -1889.07 -1797.1200000000001 -10180.85 -1319.78 -1889.07 -1319.78 5.64"
Ta 2.34759 1.66 0.0535 0.000258 -0.00217 -0.000937
Ta 0.0 0.0 0.0535 0.000258 -0.00217 -0.000937
Ta 0.0 1.66 2.29801 -0.000506 0.00178 -2.1e-05
Ta 2.34759 0.0 2.29801 -0.000506 0.00178 -2.1e-05
Ta 2.34759 1.66 4.64678 0.007324 -0.004781 -0.001649
Ta 0.0 0.0 4.64678 0.007324 -0.004781 -0.001649
Ta 0.0 1.66 7.00147 -0.00816 0.030933 -0.001233
Ta 2.34759 0.0 7.00147 -0.00816 0.030933 -0.001233
Ta 2.34759 1.66 9.33754 0.0071 -0.132353 -0.001629
Ta 0.0 0.0 9.33754 0.0071 -0.132353 -0.001629
Ta 0.0 1.66 11.67995 0.168627 0.393088 0.00081
Ta 2.34759 0.0 11.67995 0.168627 0.393088 0.00081
Ta 3.05187 2.158 14.14365 -0.168627 -0.393088 -0.00081
Ta 0.70428 0.498 14.14365 -0.168627 -0.393088 -0.00081
Ta 0.70428 2.158 16.48604 -0.0071 0.132353 0.001629
Ta 3.05187 0.498 16.48604 -0.0071 0.132353 0.001629
Ta 3.05187 2.158 18.82211 0.00816 -0.030933 0.001233
Ta 0.70428 0.498 18.82211 0.00816 -0.030933 0.001233
Ta 0.70428 2.158 21.17681 -0.007324 0.004781 0.001649
Ta 3.05187 0.498 21.17681 -0.007324 0.004781 0.001649
Ta 3.05187 2.158 23.52548 0.000506 -0.00178 2.1e-05
Ta 0.70428 0.498 23.52548 0.000506 -0.00178 2.1e-05
Ta 0.70428 2.158 25.77 -0.000258 0.00217 0.000937
Ta 3.05187 0.498 25.77 -0.000258 0.00217 0.000937
24
Lattice = "4.69519042969 0.0 0.0 0.0 3.31999993324 0.0 0.0 0.0 53.1199989319" Properties=species:S:1:pos:R:3:forces:R:3 energy=-279.124427 stress="-3756.4 -2886.7400000000002 -901.71 -2886.7400000000002 -10639.47 -867.12 -901.71 -867.12 7774.14"
Ta 2.34759 1.66 0.09121 0.000483 0.000237 0.002314
Ta 0.0 0.0 0.09121 0.000483 0.000237 0.002314
Ta 0.0 1.66 2.3361 -8.8e-05 0.001538 -0.010267
Ta 2.34759 0.0 2.3361 -8.8e-05 0.001538 -0.010267
Ta 2.34759 1.66 4.68536 0.003111 -0.003535 -0.007607
Ta 0.0 0.0 4.68536 0.003111 -0.003535 -0.007607
Ta 0.0 1.66 7.03392 -0.007146 0.021127 0.073723
Ta 2.34759 0.0 7.03392 -0.007146 0.021127 0.073723
Ta 2.34759 1.66 9.38594 0.013663 -0.10734 -0.116992
Ta 0.0 0.0 9.38594 0.013663 -0.10734 -0.116992
Ta 0.0 1.66 11.73648 0.067747 0.328568 -0.821295
Ta 2.34759 0.0 11.73648 0.067747 0.328568 -0.821295
Ta 3.28663 2.324 14.08712 -0.067747 -0.328568 0.821295
Ta 0.93904 0.664 14.08712 -0.067747 -0.328568 0.821295
Ta 0.93904 2.324 16.43764 -0.013663 0.10734 0.116992
Ta 3.28663 0.664 16.43764 -0.013663 0.10734 0.116992
Ta 3.28663 2.324 18.78966 0.007146 -0.021127 -0.073723
Ta 0.93904 0.664 18.78966 0.007146 -0.021127 -0.073723
Ta 0.93904 2.324 21.13823 -0.003111 0.003535 0.007607
Ta 3.28663 0.664 21.13823 -0.003111 0.003535 0.007607
Ta 3.28663 2.324 23.48739 8.8e-05 -0.001538 0.010267
Ta 0.93904 0.664 23.48739 8.8e-05 -0.001538 0.010267
Ta 0.93904 2.324 25.73229 -0.000483 -0.000237 -0.002314
Ta 3.28663 0.664 25.73229 -0.000483 -0.000237 -0.002314
24
Lattice = "4.69519042969 0.0 0.0 0.0 3.31999993324 0.0 0.0 0.0 53.1199989319" Properties=species:S:1:pos:R:3:forces:R:3 energy=-279.901657 stress="-9712.87 0.0 0.0 0.0 -7972.25 0.0 0.0 0.0 -388.31"
Ta 2.34759 1.66 0.09122 0.0 0.0 -1.6e-05
Ta 0.0 0.0 0.09122 0.0 0.0 -1.6e-05
Ta 0.0 1.66 2.33609 0.0 0.0 0.000319
Ta 2.34759 0.0 2.33609 0.0 0.0 0.000319
Ta 2.34759 1.66 4.68537 0.0 0.0 0.0004
Ta 0.0 0.0 4.68537 0.0 0.0 0.0004
Ta 0.0 1.66 7.03419 0.0 0.0 9.3e-05
Ta 2.34759 0.0 7.03419 0.0 0.0 9.3e-05
Ta 2.34759 1.66 9.38555 0.0 0.0 -0.000298
Ta 0.0 0.0 9.38555 0.0 0.0 -0.000298
Ta 0.0 1.66 11.73665 0.0 0.0 -0.000507
Ta 2.34759 0.0 11.73665 0.0 0.0 -0.000507
Ta 2.34759 1.66 14.08695 0.0 0.0 0.000507
Ta 0.0 0.0 14.08695 0.0 0.0 0.000507
Ta 0.0 1.66 16.43803 0.0 0.0 0.000298
Ta 2.34759 0.0 16.43803 0.0 0.0 0.000298
Ta 2.34759 1.66 18.78939 0.0 0.0 -9.3e-05
Ta 0.0 0.0 18.78939 0.0 0.0 -9.3e-05
Ta 0.0 1.66 21.13822 0.0 0.0 -0.0004
Ta 2.34759 0.0 21.13822 0.0 0.0 -0.0004
Ta 2.34759 1.66 23.4874 0.0 0.0 -0.000319
Ta 0.0 0.0 23.4874 0.0 0.0 -0.000319
Ta 0.0 1.66 25.73228 0.0 0.0 1.6e-05
Ta 2.34759 0.0 25.73228 0.0 0.0 1.6e-05
24
Lattice = "4.69519042969 0.0 0.0 0.0 3.31999993324 0.0 0.0 0.0 53.1199989319" Properties=species:S:1:pos:R:3:forces:R:3 energy=-279.79264 stress="-9277.630000000001 -706.52 -1762.12 -706.52 -7720.29 -1609.51 -1762.12 -1609.51 -420.21999999999997"
Ta 2.34759 1.66 0.0871 -0.000184 -0.001656 0.000674
Ta 0.0 0.0 0.0871 -0.000184 -0.001656 0.000674
Ta 0.0 1.66 2.332 -0.000294 0.000423 0.000306
Ta 2.34759 0.0 2.332 -0.000294 0.000423 0.000306
Ta 2.34759 1.66 4.68156 0.008643 -0.001357 -0.001853
Ta 0.0 0.0 4.68156 0.008643 -0.001357 -0.001853
Ta 0.0 1.66 7.03137 -0.006924 0.020397 -0.000275
Ta 2.34759 0.0 7.03137 -0.006924 0.020397 -0.000275
Ta 2.34759 1.66 9.38022 -0.01463 -0.087628 0.000622
Ta 0.0 0.0 9.38022 -0.01463 -0.087628 0.000622
Ta 0.0 1.66 11.72434 0.214497 0.348769 -0.000686
Ta 2.34759 0.0 11.72434 0.214497 0.348769 -0.000686
Ta 2.58235 1.826 14.09926 -0.214497 -0.348769 0.000686
Ta 0.23476 0.166 14.09926 -0.214497 -0.348769 0.000686
Ta 0.23476 1.826 16.44336 0.01463 0.087628 -0.000622
Ta 2.58235 0.166 16.44336 0.01463 0.087628 -0.000622
Ta 2.58235 1.826 18.79221 0.006924 -0.020397 0.000275
Ta 0.23476 0.166 18.79221 0.006924 -0.020397 0.000275
Ta 0.23476 1.826 21.14203 -0.008643 0.001357 0.001853
Ta 2.58235 0.166 21.14203 -0.008643 0.001357 0.001853
Ta 2.58235 1.826 23.49149 0.000294 -0.000423 -0.000306
Ta 0.23476 0.166 23.49149 0.000294 -0.000423 -0.000306
Ta 0.23476 1.826 25.7364 0.000184 0.001656 -0.000674
Ta 2.58235 0.166 25.7364 0.000184 0.001656 -0.000674
24
Lattice = "4.69519042969 0.0 0.0 0.0 3.31999993324 0.0 0.0 0.0 53.1199989319" Properties=species:S:1:pos:R:3:forces:R:3 energy=-279.896025 stress="-9868.86 0.0 0.0 0.0 -8124.259999999999 0.0 0.0 0.0 -554.9"
Ta 2.34759 1.66 0.09121 0.0 0.0 0.000107
Ta 0.0 0.0 0.09121 0.0 0.0 0.000107
Ta 0.0 1.66 2.3361 0.0 0.0 -9.8e-05
Ta 2.34759 0.0 2.3361 0.0 0.0 -9.8e-05
Ta 2.34759 1.66 4.68536 0.0 0.0 0.000111
Ta 0.0 0.0 4.68536 0.0 0.0 0.000111
Ta 0.0 1.66 7.03392 0.0 0.0 0.002832
Ta 2.34759 0.0 7.03392 0.0 0.0 0.002832
Ta 2.34759 1.66 9.38594 0.0 0.0 -0.004127
Ta 0.0 0.0 9.38594 0.0 0.0 -0.004127
Ta 0.0 1.66 11.73648 0.0 0.0 0.001737
Ta 2.34759 0.0 11.73648 0.0 0.0 0.001737
Ta 4.69519 0.0 14.08712 0.0 0.0 -0.001737
Ta 2.3476 1.66 14.08712 0.0 0.0 -0.001737
Ta 2.3476 0.0 16.43764 0.0 0.0 0.004127
Ta 4.69519 1.66 16.43764 0.0 0.0 0.004127
Ta 4.69519 0.0 18.78966 0.0 0.0 -0.002832
Ta 2.3476 1.66 18.78966 0.0 0.0 -0.002832
Ta 2.3476 0.0 21.13823 0.0 0.0 -0.000111
Ta 4.69519 1.66 21.13823 0.0 0.0 -0.000111
Ta 4.69519 0.0 23.48739 0.0 0.0 9.8e-05
Ta 2.3476 1.66 23.48739 0.0 0.0 9.8e-05
Ta 2.3476 0.0 25.73229 0.0 0.0 -0.000107
Ta 4.69519 1.66 25.73229 0.0 0.0 -0.000107
24
Lattice = "4.69519042969 0.0 0.0 0.0 3.31999993324 0.0 0.0 0.0 53.1199989319" Properties=species:S:1:pos:R:3:forces:R:3 energy=-279.206496 stress="-6761.16 -2211.9399999999996 0.0 -2211.9399999999996 -14026.06 0.0 0.0 0.0 -201.45"
Ta 2.34759 1.66 0.026 0.0 0.0 -0.000166
Ta 0.0 0.0 0.026 0.0 0.0 -0.000166
Ta 0.0 1.66 2.2705 0.0 0.0 -0.000442
Ta 2.34759 0.0 2.2705 0.0 0.0 -0.000442
Ta 2.34759 1.66 4.61955 0.0 0.0 -0.001018
Ta 0.0 0.0 4.61955 0.0 0.0 -0.001018
Ta 0.0 1.66 6.97451 0.0 0.0 0.001141
Ta 2.34759 0.0 6.97451 0.0 0.0 0.001141
Ta 2.34759 1.66 9.30496 0.0 0.0 0.000143
Ta 0.0 0.0 9.30496 0.0 0.0 0.000143
Ta 0.0 1.66 11.66343 0.0 0.0 0.002124
Ta 2.34759 0.0 11.66343 0.0 0.0 0.002124
Ta 3.52139 2.49 14.16017 0.0 0.0 -0.002124
Ta 1.1738 0.83 14.16017 0.0 0.0 -0.002124
Ta 1.1738 2.49 16.51862 0.0 0.0 -0.000143
Ta 3.52139 0.83 16.51862 0.0 0.0 -0.000143
Ta 3.52139 2.49 18.84907 0.0 0.0 -0.001141
Ta 1.1738 0.83 18.84907 0.0 0.0 -0.001141
Ta 1.1738 2.49 21.20404 0.0 0.0 0.001018
Ta 3.52139 0.83 21.20404 0.0 0.0 0.001018
Ta 3.52139 2.49 23.55299 0.0 0.0 0.000442
Ta 1.1738 0.83 23.55299 0.0 0.0 0.000442
Ta 1.1738 2.49 25.7975 0.0 0.0 0.000166
Ta 3.52139 0.83 25.7975 0.0 0.0 0.000166
24
Lattice = "4.69519042969 0.0 0.0 0.0 3.31999993324 0.0 0.0 0.0 53.1199989319" Properties=species:S:1:pos:R:3:forces:R:3 energy=-279.55564 stress="-7951.26 -1470.33 2322.88 -1470.33 -7086.45 2241.6200000000003 2322.88 2241.6200000000003 1394.24"
Ta 2.34759 1.66 0.09121 -6.8e-05 0.00218 0.002238
Ta 0.0 0.0 0.09121 -6.8e-05 0.00218 0.002238
Ta 0.0 1.66 2.3361 0.000372 -0.001531 -0.005316
Ta 2.34759 0.0 2.3361 0.000372 -0.001531 -0.005316
Ta 2.34759 1.66 4.68536 -0.011743 0.002192 -0.008604
Ta 0.0 0.0 4.68536 -0.011743 0.002192 -0.008604
Ta 0.0 1.66 7.03392 0.010535 -0.038081 0.05226
Ta 2.34759 0.0 7.03392 0.010535 -0.038081 0.05226
Ta 2.34759 1.66 9.38594 0.00905 0.147322 -0.015204
Ta 0.0 0.0 9.38594 0.00905 0.147322 -0.015204
Ta 0.0 1.66 11.73648 -0.255617 -0.52958 -0.348696
Ta 2.34759 0.0 11.73648 -0.255617 -0.52958 -0.348696
Ta 4.22567 2.988 14.08712 0.255617 0.52958 0.348696
Ta 1.87808 1.328 14.08712 0.255617 0.52958 0.348696
Ta 1.87808 2.988 16.43764 -0.00905 -0.147322 0.015204
Ta 4.22567 1.328 16.43764 -0.00905 -0.147322 0.015204
Ta 4.22567 2.988 18.78966 -0.010535 0.038081 -0.05226
Ta 1.87808 1.328 18.78966 -0.010535 0.038081 -0.05226
Ta 1.87808 2.988 21.13823 0.011743 -0.002192 0.008604
Ta 4.22567 1.328 21.13823 0.011743 -0.002192 0.008604
Ta 4.22567 2.988 23.48739 -0.000372 0.001531 0.005316
Ta 1.87808 1.328 23.48739 -0.000372 0.001531 0.005316
Ta 1.87808 2.988 25.73229 6.8e-05 -0.00218 -0.002238
Ta 4.22567 1.328 25.73229 6.8e-05 -0.00218 -0.002238
24
Lattice = "4.69519042969 0.0 0.0 0.0 3.31999993324 0.0 0.0 0.0 53.1199989319" Properties=species:S:1:pos:R:3:forces:R:3 energy=-279.79264 stress="-9276.56 -705.96 1761.7 -705.96 -7718.9800000000005 1609.3500000000001 1761.7 1609.3500000000001 -417.65000000000003"
Ta 2.34759 1.66 0.08713 0.000184 0.001656 0.000681
Ta 0.0 0.0 0.08713 0.000184 0.001656 0.000681
Ta 0.0 1.66 2.33202 0.000294 -0.000424 0.000309
Ta 2.34759 0.0 2.33202 0.000294 -0.000424 0.000309
Ta 2.34759 1.66 4.68158 -0.008643 0.001357 -0.001844
Ta 0.0 0.0 4.68158 -0.008643 0.001357 -0.001844