8
Lattice = "6.7 0.0 0.0 0.0 6.7 0.0 0.0 0.0 6.7" Properties=species:S:1:pos:R:3:forces:R:3 energy=-66.990732 stress="-312387.88 0.0 -0.0 0.0 -312387.88 0.0 -0.0 0.0 -312387.88"
Ta 0.0 0.0 0.0 0.0 0.0 0.0
Ta 3.35 3.35 3.35 0.0 0.0 0.0
Ta 1.675 3.35 0.0 0.0 0.0 0.0
Ta 5.025 3.35 0.0 0.0 0.0 0.0
Ta 0.0 1.675 3.35 0.0 0.0 0.0
Ta 0.0 5.025 3.35 0.0 0.0 0.0
Ta 3.35 0.0 1.675 0.0 0.0 0.0
Ta 3.35 0.0 5.025 0.0 0.0 0.0
8
Lattice = "4.6 0.0 0.0 0.0 4.6 0.0 0.0 0.0 4.6" Properties=species:S:1:pos:R:3:forces:R:3 energy=-72.957807 stress="1835613.98 0.0 -0.0 0.0 1835613.98 0.0 -0.0 0.0 1835613.98"
Ta 0.0 0.0 0.0 0.0 0.0 0.0
Ta 2.3 2.3 2.3 0.0 0.0 0.0
Ta 1.15 2.3 0.0 0.0 0.0 0.0
Ta 3.45 2.3 0.0 0.0 0.0 0.0
Ta 0.0 1.15 2.3 0.0 0.0 0.0
Ta 0.0 3.45 2.3 0.0 0.0 0.0
Ta 2.3 0.0 1.15 0.0 0.0 0.0
Ta 2.3 0.0 3.45 0.0 0.0 0.0
8
Lattice = "5.2 0.0 0.0 0.0 5.2 0.0 0.0 0.0 5.2" Properties=species:S:1:pos:R:3:forces:R:3 energy=-94.145745 stress="145354.31 0.0 0.0 0.0 145354.31 -0.0 0.0 -0.0 145354.31"
Ta 0.0 0.0 0.0 0.0 0.0 0.0
Ta 2.6 2.6 2.6 0.0 0.0 0.0
Ta 1.3 2.6 0.0 0.0 0.0 0.0
Ta 3.9 2.6 0.0 0.0 0.0 0.0
Ta 0.0 1.3 2.6 0.0 0.0 0.0
Ta 0.0 3.9 2.6 0.0 0.0 0.0
Ta 2.6 0.0 1.3 0.0 0.0 0.0
Ta 2.6 0.0 3.9 0.0 0.0 0.0
8
Lattice = "5.3 0.0 0.0 0.0 5.3 0.0 0.0 0.0 5.3" Properties=species:S:1:pos:R:3:forces:R:3 energy=-94.554682 stress="18038.98 0.0 -0.0 0.0 18038.98 -0.0 -0.0 -0.0 18038.98"
Ta 0.0 0.0 0.0 0.0 0.0 0.0
Ta 2.65 2.65 2.65 0.0 0.0 0.0
Ta 1.325 2.65 0.0 0.0 0.0 0.0
Ta 3.975 2.65 0.0 0.0 0.0 0.0
Ta 0.0 1.325 2.65 0.0 0.0 0.0
Ta 0.0 3.975 2.65 0.0 0.0 0.0
Ta 2.65 0.0 1.325 0.0 0.0 0.0
Ta 2.65 0.0 3.975 0.0 0.0 0.0
8
Lattice = "4.7 0.0 0.0 0.0 4.7 0.0 0.0 0.0 4.7" Properties=species:S:1:pos:R:3:forces:R:3 energy=-79.438363 stress="1385239.49 0.0 0.0 0.0 1385239.49 0.0 0.0 0.0 1385239.49"
Ta 0.0 0.0 0.0 0.0 0.0 0.0
Ta 2.35 2.35 2.35 0.0 0.0 0.0
Ta 1.175 2.35 0.0 0.0 0.0 0.0
Ta 3.525 2.35 0.0 0.0 0.0 0.0
Ta 0.0 1.175 2.35 0.0 0.0 0.0
Ta 0.0 3.525 2.35 0.0 0.0 0.0
Ta 2.35 0.0 1.175 0.0 0.0 0.0
Ta 2.35 0.0 3.525 0.0 0.0 0.0
8
Lattice = "6.6 0.0 0.0 0.0 6.6 0.0 0.0 0.0 6.6" Properties=species:S:1:pos:R:3:forces:R:3 energy=-69.627817 stress="-324717.99 0.0 0.0 0.0 -324717.99 0.0 0.0 0.0 -324717.99"
Ta 0.0 0.0 0.0 0.0 0.0 0.0
Ta 3.3 3.3 3.3 0.0 0.0 0.0
Ta 1.65 3.3 0.0 0.0 0.0 0.0
Ta 4.95 3.3 0.0 0.0 0.0 0.0
Ta 0.0 1.65 3.3 0.0 0.0 0.0
Ta 0.0 4.95 3.3 0.0 0.0 0.0
Ta 3.3 0.0 1.65 0.0 0.0 0.0
Ta 3.3 0.0 4.95 0.0 0.0 0.0
8
Lattice = "6.1 0.0 0.0 0.0 6.1 0.0 0.0 0.0 6.1" Properties=species:S:1:pos:R:3:forces:R:3 energy=-82.604907 stress="-350351.07 0.0 0.0 0.0 -350351.07 0.0 0.0 0.0 -350351.07"
Ta 0.0 0.0 0.0 0.0 0.0 0.0
Ta 3.05 3.05 3.05 0.0 0.0 0.0
Ta 1.525 3.05 0.0 0.0 0.0 0.0
Ta 4.575 3.05 0.0 0.0 0.0 0.0
Ta 0.0 1.525 3.05 0.0 0.0 0.0
Ta 0.0 4.575 3.05 0.0 0.0 0.0
Ta 3.05 0.0 1.525 0.0 0.0 0.0
Ta 3.05 0.0 4.575 0.0 0.0 0.0
8
Lattice = "4.0 0.0 0.0 0.0 4.0 0.0 0.0 0.0 4.0" Properties=species:S:1:pos:R:3:forces:R:3 energy=14.89048 stress="8403695.620000001 0.0 0.0 0.0 8403695.620000001 0.0 0.0 0.0 8403695.620000001"
Ta 0.0 0.0 0.0 0.0 0.0 0.0
Ta 2.0 2.0 2.0 0.0 0.0 0.0
Ta 1.0 2.0 0.0 0.0 0.0 0.0
Ta 3.0 2.0 0.0 0.0 0.0 0.0
Ta 0.0 1.0 2.0 0.0 0.0 0.0
Ta 0.0 3.0 2.0 0.0 0.0 0.0
Ta 2.0 0.0 1.0 0.0 0.0 0.0
Ta 2.0 0.0 3.0 0.0 0.0 0.0
8
Lattice = "5.4 0.0 0.0 0.0 5.4 0.0 0.0 0.0 5.4" Properties=species:S:1:pos:R:3:forces:R:3 energy=-94.367599 stress="-83756.66 -0.0 0.0 -0.0 -83756.66 -0.0 0.0 -0.0 -83756.66"
Ta 0.0 0.0 0.0 0.0 0.0 0.0
Ta 2.7 2.7 2.7 0.0 0.0 0.0
Ta 1.35 2.7 0.0 0.0 0.0 0.0
Ta 4.05 2.7 0.0 0.0 0.0 0.0
Ta 0.0 1.35 2.7 0.0 0.0 0.0
Ta 0.0 4.05 2.7 0.0 0.0 0.0
Ta 2.7 0.0 1.35 0.0 0.0 0.0
Ta 2.7 0.0 4.05 0.0 0.0 0.0
8
Lattice = "5.8 0.0 0.0 0.0 5.8 0.0 0.0 0.0 5.8" Properties=species:S:1:pos:R:3:forces:R:3 energy=-89.248227 stress="-305522.26 0.0 0.0 0.0 -305522.26 -0.0 0.0 -0.0 -305522.26"
Ta 0.0 0.0 0.0 0.0 0.0 0.0
Ta 2.9 2.9 2.9 0.0 0.0 0.0
Ta 1.45 2.9 0.0 0.0 0.0 0.0
Ta 4.35 2.9 0.0 0.0 0.0 0.0
Ta 0.0 1.45 2.9 0.0 0.0 0.0
Ta 0.0 4.35 2.9 0.0 0.0 0.0
Ta 2.9 0.0 1.45 0.0 0.0 0.0
Ta 2.9 0.0 4.35 0.0 0.0 0.0
8
Lattice = "5.9 0.0 0.0 0.0 5.9 0.0 0.0 0.0 5.9" Properties=species:S:1:pos:R:3:forces:R:3 energy=-87.211997 stress="-328516.14999999997 -0.0 0.0 -0.0 -328516.14999999997 0.0 0.0 0.0 -328516.14999999997"
Ta 0.0 0.0 0.0 0.0 0.0 0.0
Ta 2.95 2.95 2.95 0.0 0.0 0.0
Ta 1.475 2.95 0.0 0.0 0.0 0.0
Ta 4.425 2.95 0.0 0.0 0.0 0.0
Ta 0.0 1.475 2.95 0.0 0.0 0.0
Ta 0.0 4.425 2.95 0.0 0.0 0.0
Ta 2.95 0.0 1.475 0.0 0.0 0.0
Ta 2.95 0.0 4.425 0.0 0.0 0.0
8
Lattice = "5.5 0.0 0.0 0.0 5.5 0.0 0.0 0.0 5.5" Properties=species:S:1:pos:R:3:forces:R:3 energy=-93.66897 stress="-164011.68000000002 -0.0 0.0 -0.0 -164011.68000000002 0.0 0.0 0.0 -164011.68000000002"
Ta 0.0 0.0 0.0 0.0 0.0 0.0
Ta 2.75 2.75 2.75 0.0 0.0 0.0
Ta 1.375 2.75 0.0 0.0 0.0 0.0
Ta 4.125 2.75 0.0 0.0 0.0 0.0
Ta 0.0 1.375 2.75 0.0 0.0 0.0
Ta 0.0 4.125 2.75 0.0 0.0 0.0
Ta 2.75 0.0 1.375 0.0 0.0 0.0
Ta 2.75 0.0 4.125 0.0 0.0 0.0
8
Lattice = "4.1 0.0 0.0 0.0 4.1 0.0 0.0 0.0 4.1" Properties=species:S:1:pos:R:3:forces:R:3 energy=-7.989166 stress="6580211.09 0.0 0.0 0.0 6580211.09 0.0 0.0 0.0 6580211.09"
Ta 0.0 0.0 0.0 0.0 0.0 0.0
Ta 2.05 2.05 2.05 0.0 0.0 0.0
Ta 1.025 2.05 0.0 0.0 0.0 0.0
Ta 3.075 2.05 0.0 0.0 0.0 0.0
Ta 0.0 1.025 2.05 0.0 0.0 0.0
Ta 0.0 3.075 2.05 0.0 0.0 0.0
Ta 2.05 0.0 1.025 0.0 0.0 0.0
Ta 2.05 0.0 3.075 0.0 0.0 0.0
8
Lattice = "6.0 0.0 0.0 0.0 6.0 0.0 0.0 0.0 6.0" Properties=species:S:1:pos:R:3:forces:R:3 energy=-84.982834 stress="-342905.56 0.0 -0.0 0.0 -342905.56 -0.0 -0.0 -0.0 -342905.56"
Ta 0.0 0.0 0.0 0.0 0.0 0.0
Ta 3.0 3.0 3.0 0.0 0.0 0.0
Ta 1.5 3.0 0.0 0.0 0.0 0.0
Ta 4.5 3.0 0.0 0.0 0.0 0.0
Ta 0.0 1.5 3.0 0.0 0.0 0.0
Ta 0.0 4.5 3.0 0.0 0.0 0.0
Ta 3.0 0.0 1.5 0.0 0.0 0.0
Ta 3.0 0.0 4.5 0.0 0.0 0.0
8
Lattice = "5.6 0.0 0.0 0.0 5.6 0.0 0.0 0.0 5.6" Properties=species:S:1:pos:R:3:forces:R:3 energy=-92.536373 stress="-225855.3 0.0 -0.0 0.0 -225855.3 0.0 -0.0 0.0 -225855.3"
Ta 0.0 0.0 0.0 0.0 0.0 0.0
Ta 2.8 2.8 2.8 0.0 0.0 0.0
Ta 1.4 2.8 0.0 0.0 0.0 0.0
Ta 4.2 2.8 0.0 0.0 0.0 0.0
Ta 0.0 1.4 2.8 0.0 0.0 0.0
Ta 0.0 4.2 2.8 0.0 0.0 0.0
Ta 2.8 0.0 1.4 0.0 0.0 0.0
Ta 2.8 0.0 4.2 0.0 0.0 0.0
8
Lattice = "4.2 0.0 0.0 0.0 4.2 0.0 0.0 0.0 4.2" Properties=species:S:1:pos:R:3:forces:R:3 energy=-26.77612 stress="5138714.33 -0.0 -0.0 -0.0 5138714.33 0.0 -0.0 0.0 5138714.33"
Ta 0.0 0.0 0.0 0.0 0.0 0.0
Ta 2.1 2.1 2.1 0.0 0.0 0.0
Ta 1.05 2.1 0.0 0.0 0.0 0.0
Ta 3.15 2.1 0.0 0.0 0.0 0.0
Ta 0.0 1.05 2.1 0.0 0.0 0.0
Ta 0.0 3.15 2.1 0.0 0.0 0.0
Ta 2.1 0.0 1.05 0.0 0.0 0.0
Ta 2.1 0.0 3.15 0.0 0.0 0.0
8
Lattice = "6.3 0.0 0.0 0.0 6.3 0.0 0.0 0.0 6.3" Properties=species:S:1:pos:R:3:forces:R:3 energy=-77.544107 stress="-349968.45 0.0 0.0 0.0 -349968.45 0.0 0.0 0.0 -349968.45"
Ta 0.0 0.0 0.0 0.0 0.0 0.0
Ta 3.15 3.15 3.15 0.0 0.0 0.0
Ta 1.575 3.15 0.0 0.0 0.0 0.0
Ta 4.725 3.15 0.0 0.0 0.0 0.0
Ta 0.0 1.575 3.15 0.0 0.0 0.0
Ta 0.0 4.725 3.15 0.0 0.0 0.0
Ta 3.15 0.0 1.575 0.0 0.0 0.0
Ta 3.15 0.0 4.725 0.0 0.0 0.0
8
Lattice = "6.2 0.0 0.0 0.0 6.2 0.0 0.0 0.0 6.2" Properties=species:S:1:pos:R:3:forces:R:3 energy=-80.114217 stress="-352410.12 0.0 0.0 0.0 -352410.12 0.0 0.0 0.0 -352410.12"
Ta 0.0 0.0 0.0 0.0 0.0 0.0
Ta 3.1 3.1 3.1 0.0 0.0 0.0
Ta 1.55 3.1 0.0 0.0 0.0 0.0
Ta 4.65 3.1 0.0 0.0 0.0 0.0
Ta 0.0 1.55 3.1 0.0 0.0 0.0
Ta 0.0 4.65 3.1 0.0 0.0 0.0
Ta 3.1 0.0 1.55 0.0 0.0 0.0
Ta 3.1 0.0 4.65 0.0 0.0 0.0
8
Lattice = "4.3 0.0 0.0 0.0 4.3 0.0 0.0 0.0 4.3" Properties=species:S:1:pos:R:3:forces:R:3 energy=-42.143041 stress="4001608.1 -0.0 -0.0 -0.0 4001608.1 -0.0 -0.0 -0.0 4001608.1"
Ta 0.0 0.0 0.0 0.0 0.0 0.0
Ta 2.15 2.15 2.15 0.0 0.0 0.0
Ta 1.075 2.15 0.0 0.0 0.0 0.0
Ta 3.225 2.15 0.0 0.0 0.0 0.0
Ta 0.0 1.075 2.15 0.0 0.0 0.0
Ta 0.0 3.225 2.15 0.0 0.0 0.0
Ta 2.15 0.0 1.075 0.0 0.0 0.0
Ta 2.15 0.0 3.225 0.0 0.0 0.0
8
Lattice = "5.7 0.0 0.0 0.0 5.7 0.0 0.0 0.0 5.7" Properties=species:S:1:pos:R:3:forces:R:3 energy=-91.040671 stress="-272236.58 -0.0 0.0 -0.0 -272236.58 -0.0 0.0 -0.0 -272236.58"
Ta 0.0 0.0 0.0 0.0 0.0 0.0
Ta 2.85 2.85 2.85 0.0 0.0 0.0
Ta 1.425 2.85 0.0 0.0 0.0 0.0
Ta 4.275 2.85 0.0 0.0 0.0 0.0
Ta 0.0 1.425 2.85 0.0 0.0 0.0
Ta 0.0 4.275 2.85 0.0 0.0 0.0
Ta 2.85 0.0 1.425 0.0 0.0 0.0
Ta 2.85 0.0 4.275 0.0 0.0 0.0
8
Lattice = "4.8 0.0 0.0 0.0 4.8 0.0 0.0 0.0 4.8" Properties=species:S:1:pos:R:3:forces:R:3 energy=-84.499231 stress="1025744.96 -0.0 -0.0 -0.0 1025744.96 -0.0 -0.0 -0.0 1025744.96"
Ta 0.0 0.0 0.0 0.0 0.0 0.0
Ta 2.4 2.4 2.4 0.0 0.0 0.0
Ta 1.2 2.4 0.0 0.0 0.0 0.0
Ta 3.6 2.4 0.0 0.0 0.0 0.0
Ta 0.0 1.2 2.4 0.0 0.0 0.0
Ta 0.0 3.6 2.4 0.0 0.0 0.0
Ta 2.4 0.0 1.2 0.0 0.0 0.0
Ta 2.4 0.0 3.6 0.0 0.0 0.0
8
Lattice = "6.9 0.0 0.0 0.0 6.9 0.0 0.0 0.0 6.9" Properties=species:S:1:pos:R:3:forces:R:3 energy=-61.825173 stress="-284789.87 -0.0 -0.0 -0.0 -284789.87 -0.0 -0.0 -0.0 -284789.87"
Ta 0.0 0.0 0.0 0.0 0.0 0.0
Ta 3.45 3.45 3.45 0.0 0.0 0.0
Ta 1.725 3.45 0.0 0.0 0.0 0.0
Ta 5.175 3.45 0.0 0.0 0.0 0.0
Ta 0.0 1.725 3.45 0.0 0.0 0.0
Ta 0.0 5.175 3.45 0.0 0.0 0.0
Ta 3.45 0.0 1.725 0.0 0.0 0.0
Ta 3.45 0.0 5.175 0.0 0.0 0.0
8
Lattice = "5.0 0.0 0.0 0.0 5.0 0.0 0.0 0.0 5.0" Properties=species:S:1:pos:R:3:forces:R:3 energy=-91.156873 stress="496748.23 -0.0 0.0 -0.0 496748.23 0.0 0.0 0.0 496748.23"
Ta 0.0 0.0 0.0 0.0 0.0 0.0
Ta 2.5 2.5 2.5 0.0 0.0 0.0
Ta 1.25 2.5 0.0 0.0 0.0 0.0
Ta 3.75 2.5 0.0 0.0 0.0 0.0
Ta 0.0 1.25 2.5 0.0 0.0 0.0
Ta 0.0 3.75 2.5 0.0 0.0 0.0
Ta 2.5 0.0 1.25 0.0 0.0 0.0
Ta 2.5 0.0 3.75 0.0 0.0 0.0
8
Lattice = "4.4 0.0 0.0 0.0 4.4 0.0 0.0 0.0 4.4" Properties=species:S:1:pos:R:3:forces:R:3 energy=-54.658744 stress="3103602.33 0.0 -0.0 0.0 3103602.33 -0.0 -0.0 -0.0 3103602.33"
Ta 0.0 0.0 0.0 0.0 0.0 0.0
Ta 2.2 2.2 2.2 0.0 0.0 0.0
Ta 1.1 2.2 0.0 0.0 0.0 0.0
Ta 3.3 2.2 0.0 0.0 0.0 0.0
Ta 0.0 1.1 2.2 0.0 0.0 0.0
Ta 0.0 3.3 2.2 0.0 0.0 0.0
Ta 2.2 0.0 1.1 0.0 0.0 0.0
Ta 2.2 0.0 3.3 0.0 0.0 0.0
8
Lattice = "6.5 0.0 0.0 0.0 6.5 0.0 0.0 0.0 6.5" Properties=species:S:1:pos:R:3:forces:R:3 energy=-72.277255 stress="-335267.83999999997 -0.0 -0.0 -0.0 -335267.83999999997 -0.0 -0.0 -0.0 -335267.83999999997"
Ta 0.0 0.0 0.0 0.0 0.0 0.0
Ta 3.25 3.25 3.25 0.0 0.0 0.0
Ta 1.625 3.25 0.0 0.0 0.0 0.0
Ta 4.875 3.25 0.0 0.0 0.0 0.0
Ta 0.0 1.625 3.25 0.0 0.0 0.0
Ta 0.0 4.875 3.25 0.0 0.0 0.0
Ta 3.25 0.0 1.625 0.0 0.0 0.0
Ta 3.25 0.0 4.875 0.0 0.0 0.0
8
Lattice = "6.4 0.0 0.0 0.0 6.4 0.0 0.0 0.0 6.4" Properties=species:S:1:pos:R:3:forces:R:3 energy=-74.923334 stress="-344004.72000000003 -0.0 -0.0 -0.0 -344004.72000000003 -0.0 -0.0 -0.0 -344004.72000000003"
Ta 0.0 0.0 0.0 0.0 0.0 0.0
Ta 3.2 3.2 3.2 0.0 0.0 0.0
Ta 1.6 3.2 0.0 0.0 0.0 0.0
Ta 4.8 3.2 0.0 0.0 0.0 0.0
Ta 0.0 1.6 3.2 0.0 0.0 0.0
Ta 0.0 4.8 3.2 0.0 0.0 0.0
Ta 3.2 0.0 1.6 0.0 0.0 0.0
Ta 3.2 0.0 4.8 0.0 0.0 0.0
8
Lattice = "4.5 0.0 0.0 0.0 4.5 0.0 0.0 0.0 4.5" Properties=species:S:1:pos:R:3:forces:R:3 energy=-64.798066 stress="2398125.0500000003 0.0 0.0 0.0 2398125.0500000003 0.0 0.0 0.0 2398125.0500000003"
Ta 0.0 0.0 0.0 0.0 0.0 0.0
Ta 2.25 2.25 2.25 0.0 0.0 0.0
Ta 1.125 2.25 0.0 0.0 0.0 0.0
Ta 3.375 2.25 0.0 0.0 0.0 0.0
Ta 0.0 1.125 2.25 0.0 0.0 0.0
Ta 0.0 3.375 2.25 0.0 0.0 0.0
Ta 2.25 0.0 1.125 0.0 0.0 0.0
Ta 2.25 0.0 3.375 0.0 0.0 0.0
8
Lattice = "5.1 0.0 0.0 0.0 5.1 0.0 0.0 0.0 5.1" Properties=species:S:1:pos:R:3:forces:R:3 energy=-93.048342 stress="302698.75 0.0 -0.0 0.0 302698.75 -0.0 -0.0 -0.0 302698.75"
Ta 0.0 0.0 0.0 0.0 0.0 0.0
Ta 2.55 2.55 2.55 0.0 0.0 0.0
Ta 1.275 2.55 0.0 0.0 0.0 0.0
Ta 3.825 2.55 0.0 0.0 0.0 0.0
Ta 0.0 1.275 2.55 0.0 0.0 0.0
Ta 0.0 3.825 2.55 0.0 0.0 0.0
Ta 2.55 0.0 1.275 0.0 0.0 0.0
Ta 2.55 0.0 3.825 0.0 0.0 0.0
8
Lattice = "6.8 0.0 0.0 0.0 6.8 0.0 0.0 0.0 6.8" Properties=species:S:1:pos:R:3:forces:R:3 energy=-64.38702 stress="-298814.67 0.0 0.0 0.0 -298814.67 0.0 0.0 0.0 -298814.67"
Ta 0.0 0.0 0.0 0.0 0.0 0.0
Ta 3.4 3.4 3.4 0.0 0.0 0.0
Ta 1.7 3.4 0.0 0.0 0.0 0.0
Ta 5.1 3.4 0.0 0.0 0.0 0.0
Ta 0.0 1.7 3.4 0.0 0.0 0.0
Ta 0.0 5.1 3.4 0.0 0.0 0.0
Ta 3.4 0.0 1.7 0.0 0.0 0.0
Ta 3.4 0.0 5.1 0.0 0.0 0.0
8
Lattice = "4.9 0.0 0.0 0.0 4.9 0.0 0.0 0.0 4.9" Properties=species:S:1:pos:R:3:forces:R:3 energy=-88.352871 stress="734688.7400000001 0.0 0.0 0.0 734688.7400000001 -0.0 0.0 -0.0 734688.7400000001"
Ta 0.0 0.0 0.0 0.0 0.0 0.0
Ta 2.45 2.45 2.45 0.0 0.0 0.0
Ta 1.225 2.45 0.0 0.0 0.0 0.0
Ta 3.675 2.45 0.0 0.0 0.0 0.0
Ta 0.0 1.225 2.45 0.0 0.0 0.0
Ta 0.0 3.675 2.45 0.0 0.0 0.0
Ta 2.45 0.0 1.225 0.0 0.0 0.0
Ta 2.45 0.0 3.675 0.0 0.0 0.0
