LAMMPS (12 Apr 2014)
# created by fftool

units real
boundary p p p

atom_style full
bond_style harmonic
angle_style harmonic
dihedral_style opls
special_bonds lj/coul 0.0 0.0 0.5

read_data data.0.lmp
  orthogonal box = (-13.4438 -13.4438 -13.4438) to (13.4438 13.4438 13.4438)
  1 by 2 by 3 MPI processor grid
  reading atoms ...
  1090 atoms
  scanning bonds ...
  1 = max bonds/atom
  scanning angles ...
  10 = max angles/atom
  scanning dihedrals ...
  12 = max dihedrals/atom
  reading bonds ...
  729 bonds
  reading angles ...
  377 angles
  reading dihedrals ...
  16 dihedrals
  5 = max # of 1-2 neighbors
  4 = max # of 1-3 neighbors
  8 = max # of 1-4 neighbors
  9 = max # of special neighbors
# read_restart restart.*.lmp
# reset_timestep 0

pair_style hybrid lj/cut/coul/long 10.0 10.0   lj/cut/coul/long/soft 1 0.5 10.0 10.0 10.0
pair_modify tail no
kspace_style pppm 1.0e-4

pair_coeff    1    1  none  # C-CO C-CO
pair_coeff    1    2  none  # C-CO C-D
pair_coeff    1    3  none  # C-CO H-D
pair_coeff    1    4  none  # C-CO H-H1
pair_coeff    1    5  none  # C-CO OHD-
pair_coeff    1    6  none  # C-CO HOD-
pair_coeff    1    7  lj/cut/coul/long    0.0000   1.0000  # C-CO Hw
pair_coeff    1    8  lj/cut/coul/long    0.1013   3.3286  # C-CO Ow
pair_coeff    2    2  none  # C-D C-D
pair_coeff    2    3  none  # C-D H-D
pair_coeff    2    4  none  # C-D H-H1
pair_coeff    2    5  none  # C-D OHD-
pair_coeff    2    6  none  # C-D HOD-
pair_coeff    2    7  lj/cut/coul/long/soft    0.0000   1.0000  1.0  # C-D Hw
pair_coeff    2    8  lj/cut/coul/long/soft    0.1013   3.3286  1.0  # C-D Ow
pair_coeff    3    3  none  # H-D H-D
pair_coeff    3    4  lj/cut/coul/long/soft    0.0300   2.5000  1.0  # H-D H-H1
pair_coeff    3    5  none  # H-D OHD-
pair_coeff    3    6  none  # H-D HOD-
pair_coeff    3    7  lj/cut/coul/long/soft    0.0000   1.0000  1.0  # H-D Hw
pair_coeff    3    8  lj/cut/coul/long/soft    0.0683   2.8131  1.0  # H-D Ow
pair_coeff    4    4  none  # H-H1 H-H1
pair_coeff    4    5  none  # H-H1 OHD-
pair_coeff    4    6  lj/cut/coul/long/soft    0.0000   1.0000  0.0 # H-H1 HOD-
pair_coeff    4    7  lj/cut/coul/long    0.0000   1.0000  # H-H1 Hw
pair_coeff    4    8  lj/cut/coul/long    0.0683   2.8131  # H-H1 Ow
pair_coeff    5    5  none  # OHD- OHD-
pair_coeff    5    6  none  # OHD- HOD-
pair_coeff    5    7  lj/cut/coul/long/soft    0.0000   1.0000  0.0  # OHD- Hw
pair_coeff    5    8  lj/cut/coul/long/soft    0.1625   3.1427  0.0  # OHD- Ow
pair_coeff    6    6  none  # HOD- HOD-
pair_coeff    6    7  lj/cut/coul/long/soft    0.0000   1.0000  0.0  # HOD- Hw
pair_coeff    6    8  lj/cut/coul/long/soft    0.0000   1.7792  0.0  # HOD- Ow
pair_coeff    7    7  lj/cut/coul/long    0.0000   1.0000  # Hw Hw
pair_coeff    7    8  lj/cut/coul/long    0.0000   1.0000  # Hw Ow
pair_coeff    8    8  lj/cut/coul/long    0.1554   3.1655  # Ow Ow

variable nsteps equal 2500000
variable nprint equal ${nsteps}/500
variable nprint equal 2500000/500
variable ndump equal ${nsteps}/100
variable ndump equal 2500000/100
# variable nrestart equal ${nsteps}/10

variable temp equal 300.0
variable press equal 1.0

neighbor 2.0 bin

timestep 2.0

velocity all create ${temp} 12345
velocity all create 300 12345

thermo_style multi
thermo ${nprint}
thermo 5000

fix fSHAKE all shake 0.0001 20 ${nprint} b 2 4 5 a 6
fix fSHAKE all shake 0.0001 20 5000 b 2 4 5 a 6
  1 = # of size 2 clusters
  0 = # of size 3 clusters
  2 = # of size 4 clusters
  360 = # of frozen angles

fix fNPT all npt temp ${temp} ${temp} 100 iso ${press} ${press} 500
fix fNPT all npt temp 300 ${temp} 100 iso ${press} ${press} 500
fix fNPT all npt temp 300 300 100 iso ${press} ${press} 500
fix fNPT all npt temp 300 300 100 iso 1 ${press} 500
fix fNPT all npt temp 300 300 100 iso 1 1 500

run 250000
PPPM initialization ...
  G vector (1/distance) = 0.270213
  grid = 15 15 15
  stencil order = 5
  estimated absolute RMS force accuracy = 0.0169033
  estimated relative force accuracy = 5.09037e-05
  using double precision FFTs
  3d grid and FFT values/proc = 3696 675
SHAKE stats (type/ave/delta) on step 0
  2 1.09 4.99625e-06
  4 0.945001 0
  5 1 1.58341e-05
  6 109.47 0.0012593
Memory usage per processor = 8.7571 Mbytes
---------------- Step        0 ----- CPU =      0.0000 (sec) ----------------
TotEng   =       737.0308 KinEng   =       973.8306 Temp     =       449.5872 
PotEng   =      -236.7999 E_bond   =         0.0000 E_angle  =         0.3094 
E_dihed  =         0.0001 E_impro  =         0.0000 E_vdwl   =      -192.9285 
E_coul   =     19402.7702 E_long   =    -19446.9511 Press    =      2835.8188 
Volume   =     19438.0383 
SHAKE stats (type/ave/delta) on step 5000
  2 1.09001 8.28191e-07
  4 0.94501 0
  5 1.00001 5.40714e-06
  6 109.47 0.000464832
---------------- Step     5000 ----- CPU =     15.5618 (sec) ----------------
TotEng   =     -3354.0459 KinEng   =       683.6080 Temp     =       315.6004 
PotEng   =     -4037.6540 E_bond   =         0.4799 E_angle  =         0.9780 
E_dihed  =         1.8376 E_impro  =         0.0000 E_vdwl   =       766.7181 
E_coul   =     14841.7016 E_long   =    -19649.3692 Press    =         9.7323 
Volume   =     10704.4524 
SHAKE stats (type/ave/delta) on step 10000
  2 1.09008 1.00811e-06
  4 0.945072 0
  5 1.00008 5.35231e-06
  6 109.47 0.000475573
---------------- Step    10000 ----- CPU =     32.3979 (sec) ----------------
TotEng   =     -3362.8232 KinEng   =       659.6212 Temp     =       304.5265 
PotEng   =     -4022.4444 E_bond   =         0.3631 E_angle  =         3.0795 
E_dihed  =         0.7941 E_impro  =         0.0000 E_vdwl   =       759.8344 
E_coul   =     14864.4785 E_long   =    -19650.9941 Press    =      -297.7004 
Volume   =     11001.9028 
SHAKE stats (type/ave/delta) on step 15000
  2 1.09005 2.02188e-07
  4 0.945043 0
  5 1.00005 3.72393e-06
  6 109.47 0.000357467
---------------- Step    15000 ----- CPU =     49.5134 (sec) ----------------
TotEng   =     -3344.4972 KinEng   =       644.0539 Temp     =       297.3395 
PotEng   =     -3988.5510 E_bond   =         0.1152 E_angle  =         5.4517 
E_dihed  =         0.1351 E_impro  =         0.0000 E_vdwl   =       752.1006 
E_coul   =     14903.2874 E_long   =    -19649.6410 Press    =       104.9043 
Volume   =     10717.3651 
SHAKE stats (type/ave/delta) on step 20000
  2 1.09001 3.43197e-07
  4 0.94501 0
  5 1.00001 5.12419e-06
  6 109.47 0.000411278
---------------- Step    20000 ----- CPU =     67.1059 (sec) ----------------
TotEng   =     -3309.9311 KinEng   =       634.0117 Temp     =       292.7034 
PotEng   =     -3943.9428 E_bond   =         0.6549 E_angle  =         1.2339 
E_dihed  =         1.4649 E_impro  =         0.0000 E_vdwl   =       766.6046 
E_coul   =     14936.4086 E_long   =    -19650.3097 Press    =       214.5901 
Volume   =     11091.3747 
SHAKE stats (type/ave/delta) on step 25000
  2 1.09004 9.44767e-07
  4 0.945034 0
  5 1.00004 7.71601e-06
  6 109.47 0.000758835
---------------- Step    25000 ----- CPU =     84.7998 (sec) ----------------
TotEng   =     -3338.0595 KinEng   =       640.1397 Temp     =       295.5325 
PotEng   =     -3978.1992 E_bond   =         0.0661 E_angle  =         3.7442 
E_dihed  =         0.8700 E_impro  =         0.0000 E_vdwl   =       775.9187 
E_coul   =     14890.8203 E_long   =    -19649.6185 Press    =       423.7909 
Volume   =     10944.7617 
SHAKE stats (type/ave/delta) on step 30000
  2 1.09007 4.21852e-07
  4 0.945056 0
  5 1.00006 9.44963e-06
  6 109.47 0.000665256
---------------- Step    30000 ----- CPU =    102.3755 (sec) ----------------
TotEng   =     -3391.5598 KinEng   =       616.2131 Temp     =       284.4863 
PotEng   =     -4007.7729 E_bond   =         0.3056 E_angle  =         2.1883 
E_dihed  =         0.7246 E_impro  =         0.0000 E_vdwl   =       754.9919 
E_coul   =     14885.3389 E_long   =    -19651.3222 Press    =      -662.2072 
Volume   =     11061.7817 
SHAKE stats (type/ave/delta) on step 35000
  2 1.08996 3.26781e-07
  4 0.944964 0
  5 0.999963 3.9358e-06
  6 109.47 0.000373719
---------------- Step    35000 ----- CPU =    120.4026 (sec) ----------------
TotEng   =     -3358.6341 KinEng   =       631.8835 Temp     =       291.7208 
PotEng   =     -3990.5175 E_bond   =         0.2743 E_angle  =         4.7829 
E_dihed  =         0.9861 E_impro  =         0.0000 E_vdwl   =       789.7555 
E_coul   =     14864.3189 E_long   =    -19650.6352 Press    =        41.6126 
Volume   =     11256.4284 
SHAKE stats (type/ave/delta) on step 40000
  2 1.08994 1.46769e-07
  4 0.944945 0
  5 0.999942 7.93499e-06
  6 109.47 0.0007454
---------------- Step    40000 ----- CPU =    138.0731 (sec) ----------------
TotEng   =     -3351.1067 KinEng   =       639.0888 Temp     =       295.0473 
PotEng   =     -3990.1954 E_bond   =         0.3839 E_angle  =         1.7442 
E_dihed  =         0.0891 E_impro  =         0.0000 E_vdwl   =       725.4727 
E_coul   =     14934.0757 E_long   =    -19651.9610 Press    =      -526.9546 
Volume   =     10908.5939 
SHAKE stats (type/ave/delta) on step 45000
  2 1.09003 3.51262e-07
  4 0.945027 0
  5 1.00003 5.21681e-06
  6 109.47 0.000455042
---------------- Step    45000 ----- CPU =    155.1258 (sec) ----------------
TotEng   =     -3311.0759 KinEng   =       650.4957 Temp     =       300.3135 
PotEng   =     -3961.5715 E_bond   =         0.0533 E_angle  =         2.2809 
E_dihed  =         1.0644 E_impro  =         0.0000 E_vdwl   =       787.3174 
E_coul   =     14898.9505 E_long   =    -19651.2380 Press    =       780.4593 
Volume   =     10928.0661 
SHAKE stats (type/ave/delta) on step 50000
  2 1.09003 1.55424e-06
  4 0.945026 0
  5 1.00003 5.91747e-06
  6 109.47 0.000496714
---------------- Step    50000 ----- CPU =    172.8356 (sec) ----------------
TotEng   =     -3405.5296 KinEng   =       605.1197 Temp     =       279.3649 
PotEng   =     -4010.6493 E_bond   =         0.1066 E_angle  =         3.1506 
E_dihed  =         0.8105 E_impro  =         0.0000 E_vdwl   =       713.9830 
E_coul   =     14920.1399 E_long   =    -19648.8399 Press    =      -986.0807 
Volume   =     10836.7154 
SHAKE stats (type/ave/delta) on step 55000
  2 1.08984 2.70595e-07
  4 0.944865 0
  5 0.999858 4.88512e-06
  6 109.47 0.000381783
---------------- Step    55000 ----- CPU =    190.9093 (sec) ----------------
TotEng   =     -3335.7217 KinEng   =       661.9364 Temp     =       305.5954 
PotEng   =     -3997.6581 E_bond   =         0.0220 E_angle  =         4.3308 
E_dihed  =         0.9005 E_impro  =         0.0000 E_vdwl   =       779.9565 
E_coul   =     14868.1627 E_long   =    -19651.0306 Press    =       413.5567 
Volume   =     10844.9303 
SHAKE stats (type/ave/delta) on step 60000
  2 1.08999 5.97122e-07
  4 0.944996 0
  5 0.999997 6.03831e-06
  6 109.47 0.000686328
---------------- Step    60000 ----- CPU =    208.1025 (sec) ----------------
TotEng   =     -3327.0969 KinEng   =       660.0552 Temp     =       304.7269 
PotEng   =     -3987.1521 E_bond   =         0.8225 E_angle  =         5.6257 
E_dihed  =         0.5016 E_impro  =         0.0000 E_vdwl   =       740.6608 
E_coul   =     14912.5846 E_long   =    -19647.3472 Press    =      -473.2737 
Volume   =     11096.9871 
SHAKE stats (type/ave/delta) on step 65000
  2 1.09007 8.25332e-07
  4 0.94506 0
  5 1.00006 7.0045e-06
  6 109.47 0.000583107
---------------- Step    65000 ----- CPU =    224.9658 (sec) ----------------
TotEng   =     -3408.2167 KinEng   =       612.6880 Temp     =       282.8589 
PotEng   =     -4020.9047 E_bond   =         0.8594 E_angle  =         6.5944 
E_dihed  =         1.6574 E_impro  =         0.0000 E_vdwl   =       768.4024 
E_coul   =     14852.1041 E_long   =    -19650.5225 Press    =      -188.4155 
Volume   =     10978.7646 
SHAKE stats (type/ave/delta) on step 70000
  2 1.09009 8.5687e-07
  4 0.945078 0
  5 1.00008 7.76019e-06
  6 109.47 0.000550077
---------------- Step    70000 ----- CPU =    242.1117 (sec) ----------------
TotEng   =     -3390.7158 KinEng   =       668.6482 Temp     =       308.6940 
PotEng   =     -4059.3640 E_bond   =         2.0285 E_angle  =         3.5723 
E_dihed  =         0.1116 E_impro  =         0.0000 E_vdwl   =       824.1538 
E_coul   =     14760.0387 E_long   =    -19649.2689 Press    =       638.7814 
Volume   =     10909.0596 
SHAKE stats (type/ave/delta) on step 75000
  2 1.08992 3.92282e-06
  4 0.944932 0
  5 0.999928 9.85224e-06
  6 109.47 0.000806091
---------------- Step    75000 ----- CPU =    259.2603 (sec) ----------------
TotEng   =     -3326.3563 KinEng   =       660.6461 Temp     =       304.9996 
PotEng   =     -3987.0023 E_bond   =         0.4199 E_angle  =         4.3101 
E_dihed  =         0.9664 E_impro  =         0.0000 E_vdwl   =       709.1912 
E_coul   =     14943.2447 E_long   =    -19645.1346 Press    =     -1045.4865 
Volume   =     11010.7935 
SHAKE stats (type/ave/delta) on step 80000
  2 1.08989 1.41585e-06
  4 0.944904 0
  5 0.9999 7.51051e-06
  6 109.47 0.000612755
---------------- Step    80000 ----- CPU =    276.4703 (sec) ----------------
TotEng   =     -3309.1676 KinEng   =       659.4792 Temp     =       304.4609 
PotEng   =     -3968.6468 E_bond   =         2.0108 E_angle  =         5.7642 
E_dihed  =         0.3411 E_impro  =         0.0000 E_vdwl   =       777.5091 
E_coul   =     14895.8826 E_long   =    -19650.1546 Press    =       242.6489 
Volume   =     11001.1983 
SHAKE stats (type/ave/delta) on step 85000
  2 1.08996 2.96327e-06
  4 0.944961 0
  5 0.99996 8.41247e-06
  6 109.47 0.000701393
---------------- Step    85000 ----- CPU =    293.6905 (sec) ----------------
TotEng   =     -3384.0361 KinEng   =       618.2097 Temp     =       285.4081 
PotEng   =     -4002.2458 E_bond   =         1.3690 E_angle  =         5.1838 
E_dihed  =         0.4598 E_impro  =         0.0000 E_vdwl   =       747.0303 
E_coul   =     14893.7266 E_long   =    -19650.0153 Press    =      -353.8847 
Volume   =     10934.6493 
SHAKE stats (type/ave/delta) on step 90000
  2 1.09002 1.24769e-06
  4 0.945015 0
  5 1.00002 6.08765e-06
  6 109.47 0.000520392
---------------- Step    90000 ----- CPU =    310.5981 (sec) ----------------
TotEng   =     -3382.1917 KinEng   =       651.2562 Temp     =       300.6646 
PotEng   =     -4033.4479 E_bond   =         0.6709 E_angle  =         6.8962 
E_dihed  =         0.1998 E_impro  =         0.0000 E_vdwl   =       780.5830 
E_coul   =     14827.2431 E_long   =    -19649.0409 Press    =        16.2704 
Volume   =     11043.7827 
SHAKE stats (type/ave/delta) on step 95000
  2 1.08994 7.76933e-07
  4 0.944947 0
  5 0.999945 5.97197e-06
  6 109.47 0.000487747
---------------- Step    95000 ----- CPU =    327.5650 (sec) ----------------
TotEng   =     -3354.6839 KinEng   =       629.3995 Temp     =       290.5741 
PotEng   =     -3984.0834 E_bond   =         1.5087 E_angle  =         4.0078 
E_dihed  =         1.3620 E_impro  =         0.0000 E_vdwl   =       771.4224 
E_coul   =     14887.2213 E_long   =    -19649.6055 Press    =        43.3436 
Volume   =     10885.3772 
SHAKE stats (type/ave/delta) on step 100000
  2 1.08993 2.38655e-06
  4 0.944939 0
  5 0.999936 8.40877e-06
  6 109.47 0.000774383
---------------- Step   100000 ----- CPU =    344.4656 (sec) ----------------
TotEng   =     -3368.4117 KinEng   =       634.6483 Temp     =       292.9973 
PotEng   =     -4003.0599 E_bond   =         3.5802 E_angle  =         4.0412 
E_dihed  =         1.5829 E_impro  =         0.0000 E_vdwl   =       808.6192 
E_coul   =     14826.3345 E_long   =    -19647.2178 Press    =      1077.8095 
Volume   =     10993.9730 
SHAKE stats (type/ave/delta) on step 105000
  2 1.08989 1.07731e-06
  4 0.944904 0
  5 0.999899 3.53588e-06
  6 109.47 0.000363903
---------------- Step   105000 ----- CPU =    361.5267 (sec) ----------------
TotEng   =     -3347.7531 KinEng   =       645.0285 Temp     =       297.7895 
PotEng   =     -3992.7815 E_bond   =         0.1983 E_angle  =         2.0272 
E_dihed  =         1.4923 E_impro  =         0.0000 E_vdwl   =       762.4437 
E_coul   =     14890.3386 E_long   =    -19649.2816 Press    =       -61.7665 
Volume   =     11123.6463 
SHAKE stats (type/ave/delta) on step 110000
  2 1.08991 6.82986e-07
  4 0.944919 0
  5 0.999915 3.9066e-06
  6 109.47 0.00040522
---------------- Step   110000 ----- CPU =    378.3727 (sec) ----------------
TotEng   =     -3316.4516 KinEng   =       648.9796 Temp     =       299.6136 
PotEng   =     -3965.4312 E_bond   =         0.3206 E_angle  =         3.0437 
E_dihed  =         0.7646 E_impro  =         0.0000 E_vdwl   =       783.9336 
E_coul   =     14897.9694 E_long   =    -19651.4631 Press    =       383.9889 
Volume   =     11111.1625 
SHAKE stats (type/ave/delta) on step 115000
  2 1.09002 2.02903e-06
  4 0.945013 0
  5 1.00001 6.82439e-06
  6 109.47 0.000650583
---------------- Step   115000 ----- CPU =    395.5907 (sec) ----------------
TotEng   =     -3293.3012 KinEng   =       690.5597 Temp     =       318.8098 
PotEng   =     -3983.8610 E_bond   =         0.1719 E_angle  =         5.9061 
E_dihed  =         0.0690 E_impro  =         0.0000 E_vdwl   =       764.2629 
E_coul   =     14896.0334 E_long   =    -19650.3043 Press    =       381.4598 
Volume   =     10797.4638 
SHAKE stats (type/ave/delta) on step 120000
  2 1.09004 6.77706e-07
  4 0.945036 0
  5 1.00004 4.74544e-06
  6 109.47 0.000427904
---------------- Step   120000 ----- CPU =    412.7091 (sec) ----------------
TotEng   =     -3369.6446 KinEng   =       651.4555 Temp     =       300.7566 
PotEng   =     -4021.1001 E_bond   =         1.6510 E_angle  =         5.3099 
E_dihed  =         0.6253 E_impro  =         0.0000 E_vdwl   =       751.0759 
E_coul   =     14870.9262 E_long   =    -19650.6884 Press    =      -428.2295 
Volume   =     11043.9712 
SHAKE stats (type/ave/delta) on step 125000
  2 1.09 3.83817e-06
  4 0.945 0
  5 1 6.45836e-06
  6 109.47 0.000698506
---------------- Step   125000 ----- CPU =    430.1702 (sec) ----------------
TotEng   =     -3301.3982 KinEng   =       646.4921 Temp     =       298.4652 
PotEng   =     -3947.8903 E_bond   =         0.6267 E_angle  =         6.0742 
E_dihed  =         0.4229 E_impro  =         0.0000 E_vdwl   =       714.0721 
E_coul   =     14982.2247 E_long   =    -19651.3109 Press    =      -490.0232 
Volume   =     10941.1052 
SHAKE stats (type/ave/delta) on step 130000
  2 1.09006 1.6549e-06
  4 0.945053 0
  5 1.00006 6.21817e-06
  6 109.47 0.000533381
---------------- Step   130000 ----- CPU =    447.5307 (sec) ----------------
TotEng   =     -3420.6850 KinEng   =       599.3010 Temp     =       276.6785 
PotEng   =     -4019.9860 E_bond   =         2.2410 E_angle  =         3.3364 
E_dihed  =         0.4715 E_impro  =         0.0000 E_vdwl   =       735.6483 
E_coul   =     14887.0377 E_long   =    -19648.7210 Press    =      -741.5765 
Volume   =     10837.9588 
SHAKE stats (type/ave/delta) on step 135000
  2 1.08991 3.15978e-06
  4 0.944916 0
  5 0.999915 9.78139e-06
  6 109.47 0.000801012
---------------- Step   135000 ----- CPU =    464.9882 (sec) ----------------
TotEng   =     -3392.1878 KinEng   =       641.7313 Temp     =       296.2673 
PotEng   =     -4033.9192 E_bond   =         1.4786 E_angle  =         4.7596 
E_dihed  =         0.1500 E_impro  =         0.0000 E_vdwl   =       807.6927 
E_coul   =     14800.7139 E_long   =    -19648.7140 Press    =       980.1387 
Volume   =     10767.9524 
SHAKE stats (type/ave/delta) on step 140000
  2 1.08994 1.74402e-07
  4 0.944949 0
  5 0.999947 4.43585e-06
  6 109.47 0.000406818
---------------- Step   140000 ----- CPU =    482.5554 (sec) ----------------
TotEng   =     -3273.9320 KinEng   =       662.9852 Temp     =       306.0795 
PotEng   =     -3936.9172 E_bond   =         0.8083 E_angle  =         3.9908 
E_dihed  =         0.2723 E_impro  =         0.0000 E_vdwl   =       713.2497 
E_coul   =     14994.4545 E_long   =    -19649.6927 Press    =      -830.5314 
Volume   =     11001.1616 
SHAKE stats (type/ave/delta) on step 145000
  2 1.09002 2.43032e-06
  4 0.945017 0
  5 1.00002 8.24299e-06
  6 109.47 0.000529566
---------------- Step   145000 ----- CPU =    500.1712 (sec) ----------------
TotEng   =     -3340.6528 KinEng   =       659.9184 Temp     =       304.6637 
PotEng   =     -4000.5713 E_bond   =         2.4279 E_angle  =         3.3008 
E_dihed  =         0.2371 E_impro  =         0.0000 E_vdwl   =       729.5639 
E_coul   =     14913.5256 E_long   =    -19649.6266 Press    =     -1026.7070 
Volume   =     10960.0590 
SHAKE stats (type/ave/delta) on step 150000
  2 1.0899 4.57602e-08
  4 0.944911 0
  5 0.999907 4.07138e-06
  6 109.47 0.000325138
---------------- Step   150000 ----- CPU =    517.9295 (sec) ----------------
TotEng   =     -3341.6702 KinEng   =       657.1387 Temp     =       303.3804 
PotEng   =     -3998.8089 E_bond   =         0.7359 E_angle  =         1.7851 
E_dihed  =         1.3124 E_impro  =         0.0000 E_vdwl   =       777.8366 
E_coul   =     14870.1765 E_long   =    -19650.6554 Press    =       412.0281 
Volume   =     10688.6866 
SHAKE stats (type/ave/delta) on step 155000
  2 1.09007 4.01621e-06
  4 0.945063 0
  5 1.00007 9.4019e-06
  6 109.47 0.000988707
---------------- Step   155000 ----- CPU =    535.3409 (sec) ----------------
TotEng   =     -3268.1824 KinEng   =       685.9467 Temp     =       316.6801 
PotEng   =     -3954.1291 E_bond   =         0.1634 E_angle  =         4.2250 
E_dihed  =         0.5435 E_impro  =         0.0000 E_vdwl   =       804.9119 
E_coul   =     14885.2183 E_long   =    -19649.1912 Press    =      1106.1563 
Volume   =     10881.4114 
SHAKE stats (type/ave/delta) on step 160000
  2 1.08999 2.40679e-07
  4 0.944989 1.66533e-15
  5 0.999989 3.64342e-06
  6 109.47 0.000393227
---------------- Step   160000 ----- CPU =    552.3729 (sec) ----------------
TotEng   =     -3344.2221 KinEng   =       649.9582 Temp     =       300.0654 
PotEng   =     -3994.1803 E_bond   =         0.1200 E_angle  =         2.9921 
E_dihed  =         0.7391 E_impro  =         0.0000 E_vdwl   =       732.8519 
E_coul   =     14919.1011 E_long   =    -19649.9845 Press    =     -1094.8825 
Volume   =     11217.2060 
SHAKE stats (type/ave/delta) on step 165000
  2 1.08996 3.09856e-07
  4 0.944963 0
  5 0.999962 4.81445e-06
  6 109.47 0.000430668
---------------- Step   165000 ----- CPU =    569.7709 (sec) ----------------
TotEng   =     -3372.7946 KinEng   =       634.9163 Temp     =       293.1210 
PotEng   =     -4007.7109 E_bond   =         0.0183 E_angle  =         2.5214 
E_dihed  =         0.2068 E_impro  =         0.0000 E_vdwl   =       795.1565 
E_coul   =     14844.9702 E_long   =    -19650.5841 Press    =       772.6463 
Volume   =     10815.0042 
SHAKE stats (type/ave/delta) on step 170000
  2 1.09014 8.41431e-06
  4 0.945123 0
  5 1.00013 1.75283e-05
  6 109.47 0.00194594
---------------- Step   170000 ----- CPU =    587.2414 (sec) ----------------
TotEng   =     -3293.0110 KinEng   =       674.3151 Temp     =       311.3102 
PotEng   =     -3967.3261 E_bond   =         1.1090 E_angle  =         1.5340 
E_dihed  =         0.0839 E_impro  =         0.0000 E_vdwl   =       755.1740 
E_coul   =     14924.5198 E_long   =    -19649.7467 Press    =       -12.4336 
Volume   =     11042.2954 
SHAKE stats (type/ave/delta) on step 175000
  2 1.09005 2.8015e-07
  4 0.945044 0
  5 1.00005 4.1323e-06
  6 109.47 0.00037117
---------------- Step   175000 ----- CPU =    604.4812 (sec) ----------------
TotEng   =     -3354.9597 KinEng   =       658.8993 Temp     =       304.1932 
PotEng   =     -4013.8590 E_bond   =         0.0548 E_angle  =         4.1504 
E_dihed  =         1.7996 E_impro  =         0.0000 E_vdwl   =       778.6539 
E_coul   =     14850.5151 E_long   =    -19649.0328 Press    =        85.1879 
Volume   =     10887.5972 
SHAKE stats (type/ave/delta) on step 180000
  2 1.0899 3.43169e-07
  4 0.944911 0
  5 0.999907 4.10871e-06
  6 109.47 0.00039223
---------------- Step   180000 ----- CPU =    621.8033 (sec) ----------------
TotEng   =     -3388.2749 KinEng   =       627.9050 Temp     =       289.8841 
PotEng   =     -4016.1799 E_bond   =         0.1967 E_angle  =         4.0101 
E_dihed  =         0.2173 E_impro  =         0.0000 E_vdwl   =       826.4748 
E_coul   =     14803.9250 E_long   =    -19651.0038 Press    =       732.6438 
Volume   =     11096.3903 
SHAKE stats (type/ave/delta) on step 185000
  2 1.08995 1.11857e-06
  4 0.944959 0
  5 0.999957 7.67936e-06
  6 109.47 0.00074596
---------------- Step   185000 ----- CPU =    638.7620 (sec) ----------------
TotEng   =     -3303.4276 KinEng   =       689.2313 Temp     =       318.1965 
PotEng   =     -3992.6589 E_bond   =         0.0279 E_angle  =         4.4099 
E_dihed  =         0.1738 E_impro  =         0.0000 E_vdwl   =       768.3534 
E_coul   =     14883.1164 E_long   =    -19648.7403 Press    =       421.9794 
Volume   =     10698.9744 
SHAKE stats (type/ave/delta) on step 190000
  2 1.08998 2.00377e-07
  4 0.944979 0
  5 0.999979 5.65583e-06
  6 109.47 0.000413439
---------------- Step   190000 ----- CPU =    655.9059 (sec) ----------------
TotEng   =     -3395.0549 KinEng   =       655.7597 Temp     =       302.7437 
PotEng   =     -4050.8145 E_bond   =         0.3446 E_angle  =         0.9518 
E_dihed  =         1.1669 E_impro  =         0.0000 E_vdwl   =       757.1329 
E_coul   =     14840.5175 E_long   =    -19650.9282 Press    =      -394.6404 
Volume   =     10945.8486 
SHAKE stats (type/ave/delta) on step 195000
  2 1.08988 1.81693e-07
  4 0.944896 0
  5 0.999891 4.43252e-06
  6 109.47 0.000479856
---------------- Step   195000 ----- CPU =    673.2620 (sec) ----------------
TotEng   =     -3293.3679 KinEng   =       648.5055 Temp     =       299.3947 
PotEng   =     -3941.8734 E_bond   =         0.0128 E_angle  =         3.4588 
E_dihed  =         0.2560 E_impro  =         0.0000 E_vdwl   =       757.1539 
E_coul   =     14946.9551 E_long   =    -19649.7102 Press    =       229.8832 
Volume   =     11079.8726 
SHAKE stats (type/ave/delta) on step 200000
  2 1.08993 1.66399e-06
  4 0.944939 0
  5 0.999936 1.72712e-05
  6 109.47 0.00141545
---------------- Step   200000 ----- CPU =    690.6214 (sec) ----------------
TotEng   =     -3307.7067 KinEng   =       675.3858 Temp     =       311.8045 
PotEng   =     -3983.0924 E_bond   =         0.7590 E_angle  =         3.1780 
E_dihed  =         1.1897 E_impro  =         0.0000 E_vdwl   =       736.7625 
E_coul   =     14925.2654 E_long   =    -19650.2470 Press    =      -824.5920 
Volume   =     11244.9094 
SHAKE stats (type/ave/delta) on step 205000
  2 1.0899 1.73113e-07
  4 0.944912 0
  5 0.999909 4.50848e-06
  6 109.47 0.000407986
---------------- Step   205000 ----- CPU =    708.0516 (sec) ----------------
TotEng   =     -3365.3500 KinEng   =       642.9188 Temp     =       296.8155 
PotEng   =     -4008.2687 E_bond   =         0.3066 E_angle  =         3.2040 
E_dihed  =         1.5316 E_impro  =         0.0000 E_vdwl   =       729.2433 
E_coul   =     14907.7453 E_long   =    -19650.2995 Press    =     -1006.1199 
Volume   =     11051.4361 
SHAKE stats (type/ave/delta) on step 210000
  2 1.09011 1.03048e-06
  4 0.945095 0
  5 1.0001 5.9152e-06
  6 109.47 0.000527031
---------------- Step   210000 ----- CPU =    725.2896 (sec) ----------------
TotEng   =     -3356.7102 KinEng   =       623.0210 Temp     =       287.6293 
PotEng   =     -3979.7312 E_bond   =         1.1008 E_angle  =         3.0091 
E_dihed  =         1.8701 E_impro  =         0.0000 E_vdwl   =       789.1019 
E_coul   =     14872.4863 E_long   =    -19647.2994 Press    =        42.8426 
Volume   =     11288.2512 
SHAKE stats (type/ave/delta) on step 215000
  2 1.08997 7.37669e-07
  4 0.944973 0
  5 0.999972 6.22719e-06
  6 109.47 0.00057019
---------------- Step   215000 ----- CPU =    742.7114 (sec) ----------------
TotEng   =     -3373.5417 KinEng   =       630.8001 Temp     =       291.2207 
PotEng   =     -4004.3418 E_bond   =         1.2056 E_angle  =         2.8841 
E_dihed  =         0.2994 E_impro  =         0.0000 E_vdwl   =       780.6936 
E_coul   =     14859.8421 E_long   =    -19649.2666 Press    =        97.5072 
Volume   =     10874.8490 
SHAKE stats (type/ave/delta) on step 220000
  2 1.09001 1.13377e-06
  4 0.945005 0
  5 1.00001 4.91932e-06
  6 109.47 0.000467838
---------------- Step   220000 ----- CPU =    760.2092 (sec) ----------------
TotEng   =     -3294.0388 KinEng   =       633.5485 Temp     =       292.4895 
PotEng   =     -3927.5872 E_bond   =         0.8088 E_angle  =         3.2398 
E_dihed  =         1.1405 E_impro  =         0.0000 E_vdwl   =       756.2711 
E_coul   =     14961.1384 E_long   =    -19650.1858 Press    =       491.8207 
Volume   =     10920.5141 
SHAKE stats (type/ave/delta) on step 225000
  2 1.09006 8.37672e-07
  4 0.945049 0
  5 1.00005 7.41365e-06
  6 109.47 0.000525007
---------------- Step   225000 ----- CPU =    777.9930 (sec) ----------------
TotEng   =     -3323.9482 KinEng   =       659.5207 Temp     =       304.4801 
PotEng   =     -3983.4689 E_bond   =         1.0264 E_angle  =         3.1200 
E_dihed  =         0.0867 E_impro  =         0.0000 E_vdwl   =       769.4208 
E_coul   =     14891.8960 E_long   =    -19649.0188 Press    =       287.4650 
Volume   =     10942.1884 
SHAKE stats (type/ave/delta) on step 230000
  2 1.08994 2.92846e-06
  4 0.944949 0
  5 0.999949 6.90733e-06
  6 109.47 0.000672505
---------------- Step   230000 ----- CPU =    795.0958 (sec) ----------------
TotEng   =     -3386.2074 KinEng   =       632.9638 Temp     =       292.2196 
PotEng   =     -4019.1712 E_bond   =         0.5513 E_angle  =         3.2446 
E_dihed  =         0.7565 E_impro  =         0.0000 E_vdwl   =       755.4762 
E_coul   =     14869.4456 E_long   =    -19648.6455 Press    =      -401.1553 
Volume   =     10881.5598 
SHAKE stats (type/ave/delta) on step 235000
  2 1.09005 8.74549e-07
  4 0.945039 0
  5 1.00004 4.94114e-06
  6 109.47 0.000437547
---------------- Step   235000 ----- CPU =    812.4488 (sec) ----------------
TotEng   =     -3325.2761 KinEng   =       660.6420 Temp     =       304.9978 
PotEng   =     -3985.9182 E_bond   =         0.9090 E_angle  =         5.4092 
E_dihed  =         0.2258 E_impro  =         0.0000 E_vdwl   =       796.4323 
E_coul   =     14860.0439 E_long   =    -19648.9384 Press    =       528.8893 
Volume   =     11130.2898 
SHAKE stats (type/ave/delta) on step 240000
  2 1.08995 9.41274e-07
  4 0.944956 0
  5 0.999954 4.07025e-06
  6 109.47 0.000443571
---------------- Step   240000 ----- CPU =    829.7391 (sec) ----------------
TotEng   =     -3389.8405 KinEng   =       604.2296 Temp     =       278.9539 
PotEng   =     -3994.0701 E_bond   =         0.1129 E_angle  =         2.9940 
E_dihed  =         0.5267 E_impro  =         0.0000 E_vdwl   =       758.6451 
E_coul   =     14892.3272 E_long   =    -19648.6759 Press    =      -112.5666 
Volume   =     10888.7557 
SHAKE stats (type/ave/delta) on step 245000
  2 1.08996 7.21929e-07
  4 0.944965 0
  5 0.999964 9.01051e-06
  6 109.47 0.0010099
---------------- Step   245000 ----- CPU =    847.0148 (sec) ----------------
TotEng   =     -3356.6324 KinEng   =       649.4467 Temp     =       299.8292 
PotEng   =     -4006.0791 E_bond   =         0.3144 E_angle  =         3.5791 
E_dihed  =         1.1641 E_impro  =         0.0000 E_vdwl   =       747.2695 
E_coul   =     14891.0073 E_long   =    -19649.4134 Press    =      -568.8098 
Volume   =     11074.3666 
SHAKE stats (type/ave/delta) on step 250000
  2 1.08997 9.29215e-07
  4 0.944974 0
  5 0.999973 4.8169e-06
  6 109.47 0.000437315
---------------- Step   250000 ----- CPU =    863.9602 (sec) ----------------
TotEng   =     -3371.0686 KinEng   =       655.6766 Temp     =       302.7054 
PotEng   =     -4026.7451 E_bond   =         0.6724 E_angle  =         0.9161 
E_dihed  =         0.2479 E_impro  =         0.0000 E_vdwl   =       808.3090 
E_coul   =     14813.4853 E_long   =    -19650.3758 Press    =      1081.5254 
Volume   =     10656.4564 
Loop time of 863.96 on 6 procs for 250000 steps with 1090 atoms

Pair  time (%) = 425.035 (49.1962)
Bond  time (%) = 1.40139 (0.162205)
Kspce time (%) = 139.118 (16.1024)
Neigh time (%) = 68.1138 (7.8839)
Comm  time (%) = 73.6823 (8.52844)
Outpt time (%) = 0.00301099 (0.00034851)
Other time (%) = 156.606 (18.1265)

Nlocal:    181.667 ave 198 max 165 min
Histogram: 1 1 0 1 0 0 1 0 1 1
Nghost:    4980.33 ave 5018 max 4934 min
Histogram: 1 0 0 1 0 0 3 0 0 1
Neighs:    67120.2 ave 77161 max 60922 min
Histogram: 2 0 1 0 1 1 0 0 0 1

Total # of neighbors = 402721
Ave neighs/atom = 369.469
Ave special neighs/atom = 2.05872
Neighbor list builds = 20601
Dangerous builds = 3238
reset_timestep 0


variable lambda equal ramp(0.0,1.0)
variable minusl equal 1.0-v_lambda
variable q1 equal  0.145*v_lambda-0.180*(1.0-v_lambda)
variable q2 equal -0.180*(1.0-v_lambda)
variable q3 equal  0.060*(1.0-v_lambda)
variable q4 equal  0.040*v_lambda+0.060*(1.0-v_lambda)
variable q5 equal -0.683*v_lambda
variable q6 equal  0.418*v_lambda

fix fADAPT all adapt/fep 125000     pair lj/cut/coul/long/soft lambda 2*3 7*8 v_minusl     pair lj/cut/coul/long/soft lambda 3 4 v_minusl     pair lj/cut/coul/long/soft lambda 4 6 v_lambda     pair lj/cut/coul/long/soft lambda 5*6 7*8 v_lambda     atom charge 1 v_q1     atom charge 2 v_q2     atom charge 3 v_q3     atom charge 4 v_q4     atom charge 5 v_q5     atom charge 6 v_q6     after yes

variable dlambda equal 0.05
variable minusdl equal -0.05
variable dq1 equal  0.145*v_dlambda+0.180*v_dlambda
variable dq2 equal  0.180*v_dlambda
variable dq3 equal -0.060*v_dlambda
variable dq4 equal  0.040*v_dlambda-0.060*v_dlambda
variable dq5 equal -0.683*v_dlambda
variable dq6 equal  0.418*v_dlambda

compute cFEP all fep ${temp}     pair lj/cut/coul/long/soft lambda 2*3 7*8 v_minusdl     pair lj/cut/coul/long/soft lambda 3 4 v_minusdl     pair lj/cut/coul/long/soft lambda 4 6 v_dlambda     pair lj/cut/coul/long/soft lambda 5*6 7*8 v_dlambda     atom charge 1 v_dq1     atom charge 2 v_dq2     atom charge 3 v_dq3     atom charge 4 v_dq4     atom charge 5 v_dq5     atom charge 6 v_dq6
compute cFEP all fep 300     pair lj/cut/coul/long/soft lambda 2*3 7*8 v_minusdl     pair lj/cut/coul/long/soft lambda 3 4 v_minusdl     pair lj/cut/coul/long/soft lambda 4 6 v_dlambda     pair lj/cut/coul/long/soft lambda 5*6 7*8 v_dlambda     atom charge 1 v_dq1     atom charge 2 v_dq2     atom charge 3 v_dq3     atom charge 4 v_dq4     atom charge 5 v_dq5     atom charge 6 v_dq6

fix fFEP all ave/time 25 4000 125000 c_cFEP[1] c_cFEP[2] file fep01.lmp

# compute cRDF all rdf 100 1 1
# fix fRDF all ave/time 20 100 ${nsteps} c_cRDF file rdf.lammps mode vector

compute cMSD all msd
fix fMSD all ave/time 1 1 ${ndump} c_cMSD[1] c_cMSD[2] c_cMSD[3] c_cMSD[4] file msd.lammps
fix fMSD all ave/time 1 1 25000 c_cMSD[1] c_cMSD[2] c_cMSD[3] c_cMSD[4] file msd.lammps

dump dCONF all custom ${ndump} dump.lammpstrj id mol type element x y z ix iy iz
dump dCONF all custom 25000 dump.lammpstrj id mol type element x y z ix iy iz
dump_modify dCONF element C C H H O H H O

# restart ${nrestart} restart.*.lmp

run ${nsteps}
run 2500000
PPPM initialization ...
  G vector (1/distance) = 0.26831
  grid = 12 12 12
  stencil order = 5
  estimated absolute RMS force accuracy = 0.0252954
  estimated relative force accuracy = 7.61763e-05
  using double precision FFTs
  3d grid and FFT values/proc = 2717 288
FEP settings ...
  temperature = 300.000000
  tail no
  lj/cut/coul/long/soft lambda 2-3 7-8
  lj/cut/coul/long/soft lambda 3-3 4-4
  lj/cut/coul/long/soft lambda 4-4 6-6
  lj/cut/coul/long/soft lambda 5-6 7-8
  1-1 charge
  2-2 charge
  3-3 charge
  4-4 charge
  5-5 charge
  6-6 charge
SHAKE stats (type/ave/delta) on step 0
  2 1.08997 9.29215e-07
  4 0.944974 0
  5 0.999973 4.8169e-06
  6 109.47 0.000437315
Memory usage per processor = 10.4991 Mbytes
---------------- Step        0 ----- CPU =      0.0000 (sec) ----------------
TotEng   =     -3371.0135 KinEng   =       655.6766 Temp     =       302.7054 
PotEng   =     -4026.6900 E_bond   =         0.6724 E_angle  =         0.9161 
E_dihed  =         0.2479 E_impro  =         0.0000 E_vdwl   =       808.3090 
E_coul   =     14675.3252 E_long   =    -19512.1606 Press    =      1080.5991 
Volume   =     10656.4564 
SHAKE stats (type/ave/delta) on step 5000
  2 1.09 1.16691e-07
  4 0.945002 0
  5 1 4.05557e-06
  6 109.47 0.000387944
---------------- Step     5000 ----- CPU =     15.4922 (sec) ----------------
TotEng   =     -3397.2891 KinEng   =       620.6703 Temp     =       286.5441 
PotEng   =     -4017.9594 E_bond   =         0.3173 E_angle  =         2.4182 
E_dihed  =         0.5160 E_impro  =         0.0000 E_vdwl   =       785.9697 
E_coul   =     14704.1222 E_long   =    -19511.3029 Press    =       273.1344 
Volume   =     10905.7013 
SHAKE stats (type/ave/delta) on step 10000
  2 1.08994 1.64381e-06
  4 0.94495 0
  5 0.999949 1.06989e-05
  6 109.47 0.000910004
---------------- Step    10000 ----- CPU =     30.7965 (sec) ----------------
TotEng   =     -3353.2012 KinEng   =       647.0957 Temp     =       298.7438 
PotEng   =     -4000.2969 E_bond   =         0.0882 E_angle  =         3.9950 
E_dihed  =         0.2601 E_impro  =         0.0000 E_vdwl   =       711.6234 
E_coul   =     14794.2911 E_long   =    -19510.5548 Press    =      -975.6212 
Volume   =     10962.9108 
SHAKE stats (type/ave/delta) on step 15000
  2 1.09008 1.86073e-06
  4 0.945068 0
  5 1.00007 8.89863e-06
  6 109.47 0.000816047
---------------- Step    15000 ----- CPU =     46.5743 (sec) ----------------
TotEng   =     -3375.0022 KinEng   =       634.7394 Temp     =       293.0393 
PotEng   =     -4009.7416 E_bond   =         0.1649 E_angle  =         3.9474 
E_dihed  =         0.5600 E_impro  =         0.0000 E_vdwl   =       770.5225 
E_coul   =     14727.6263 E_long   =    -19512.5628 Press    =      -190.2936 
Volume   =     11012.7669 
SHAKE stats (type/ave/delta) on step 20000
  2 1.09004 3.16251e-06
  4 0.945038 0
  5 1.00004 1.08834e-05
  6 109.47 0.000869397
---------------- Step    20000 ----- CPU =     62.2314 (sec) ----------------
TotEng   =     -3305.3239 KinEng   =       637.3817 Temp     =       294.2592 
PotEng   =     -3942.7057 E_bond   =         0.9438 E_angle  =         3.1662 
E_dihed  =         1.2728 E_impro  =         0.0000 E_vdwl   =       746.2285 
E_coul   =     14815.0488 E_long   =    -19509.3657 Press    =       -61.2623 
Volume   =     10938.2476 
SHAKE stats (type/ave/delta) on step 25000
  2 1.08998 1.75947e-06
  4 0.944984 0
  5 0.999983 1.04349e-05
  6 109.47 0.00100037
---------------- Step    25000 ----- CPU =     77.8304 (sec) ----------------
TotEng   =     -3378.8569 KinEng   =       637.2787 Temp     =       294.2116 
PotEng   =     -4016.1356 E_bond   =         1.2232 E_angle  =         2.3117 
E_dihed  =         1.0807 E_impro  =         0.0000 E_vdwl   =       776.1811 
E_coul   =     14713.5032 E_long   =    -19510.4355 Press    =      -445.7392 
Volume   =     11251.0246 
SHAKE stats (type/ave/delta) on step 30000
  2 1.08997 1.00059e-06
  4 0.944971 0
  5 0.99997 6.25831e-06
  6 109.47 0.000500862
---------------- Step    30000 ----- CPU =     95.0376 (sec) ----------------
TotEng   =     -3328.5389 KinEng   =       635.0403 Temp     =       293.1783 
PotEng   =     -3963.5792 E_bond   =         0.1137 E_angle  =         5.3151 
E_dihed  =         0.7802 E_impro  =         0.0000 E_vdwl   =       770.6840 
E_coul   =     14768.6674 E_long   =    -19509.1395 Press    =       -23.5172 
Volume   =     11283.1327 
SHAKE stats (type/ave/delta) on step 35000
  2 1.09005 6.61995e-07
  4 0.945039 0
  5 1.00004 4.25046e-06
  6 109.47 0.000356489
---------------- Step    35000 ----- CPU =    112.0709 (sec) ----------------
TotEng   =     -3368.4411 KinEng   =       649.6135 Temp     =       299.9062 
PotEng   =     -4018.0546 E_bond   =         1.1349 E_angle  =         3.6812 
E_dihed  =         0.1828 E_impro  =         0.0000 E_vdwl   =       787.3432 
E_coul   =     14701.5667 E_long   =    -19511.9634 Press    =       257.7123 
Volume   =     10988.2184 
SHAKE stats (type/ave/delta) on step 40000
  2 1.09001 3.49842e-06
  4 0.945004 0
  5 1.00001 1.45157e-05
  6 109.47 0.000787296
---------------- Step    40000 ----- CPU =    129.0809 (sec) ----------------
TotEng   =     -3364.5836 KinEng   =       658.3412 Temp     =       303.9355 
PotEng   =     -4022.9247 E_bond   =         0.5020 E_angle  =         3.7303 
E_dihed  =         1.4728 E_impro  =         0.0000 E_vdwl   =       778.2012 
E_coul   =     14705.7570 E_long   =    -19512.5882 Press    =       533.1673 
Volume   =     10677.3422 
SHAKE stats (type/ave/delta) on step 45000
  2 1.09002 1.30825e-06
  4 0.94502 0
  5 1.00002 6.40943e-06
  6 109.47 0.00058672
---------------- Step    45000 ----- CPU =    145.9834 (sec) ----------------
TotEng   =     -3340.3859 KinEng   =       652.0009 Temp     =       301.0084 
PotEng   =     -3992.3869 E_bond   =         1.2376 E_angle  =         2.8734 
E_dihed  =         0.1264 E_impro  =         0.0000 E_vdwl   =       754.6586 
E_coul   =     14761.1078 E_long   =    -19512.3907 Press    =       -73.9869 
Volume   =     10785.6085 
SHAKE stats (type/ave/delta) on step 50000
  2 1.09001 8.84108e-07
  4 0.945007 0
  5 1.00001 6.02348e-06
  6 109.47 0.000473291
---------------- Step    50000 ----- CPU =    163.1848 (sec) ----------------
TotEng   =     -3328.9077 KinEng   =       655.4982 Temp     =       302.6230 
PotEng   =     -3984.4059 E_bond   =         0.9214 E_angle  =         5.8033 
E_dihed  =         0.1574 E_impro  =         0.0000 E_vdwl   =       819.8576 
E_coul   =     14702.3622 E_long   =    -19513.5077 Press    =      1438.4696 
Volume   =     10885.5741 
SHAKE stats (type/ave/delta) on step 55000
  2 1.08997 2.96419e-06
  4 0.944975 0
  5 0.999973 5.95482e-06
  6 109.47 0.000621854
---------------- Step    55000 ----- CPU =    180.4265 (sec) ----------------
TotEng   =     -3378.2283 KinEng   =       663.0962 Temp     =       306.1308 
PotEng   =     -4041.3244 E_bond   =         0.4524 E_angle  =         0.8487 
E_dihed  =         0.4312 E_impro  =         0.0000 E_vdwl   =       753.6032 
E_coul   =     14715.6582 E_long   =    -19512.3180 Press    =      -530.5626 
Volume   =     10851.4543 
SHAKE stats (type/ave/delta) on step 60000
  2 1.0899 8.72362e-07
  4 0.944911 0
  5 0.999907 3.77517e-06
  6 109.47 0.000384255
---------------- Step    60000 ----- CPU =    197.6162 (sec) ----------------
TotEng   =     -3383.4320 KinEng   =       652.8343 Temp     =       301.3932 
PotEng   =     -4036.2664 E_bond   =         0.8477 E_angle  =         4.2891 
E_dihed  =         0.2475 E_impro  =         0.0000 E_vdwl   =       796.4487 
E_coul   =     14674.7215 E_long   =    -19512.8208 Press    =       249.3436 
Volume   =     10968.1202 
SHAKE stats (type/ave/delta) on step 65000
  2 1.08989 3.59017e-06
  4 0.944904 0
  5 0.999896 9.65934e-06
  6 109.47 0.000982048
---------------- Step    65000 ----- CPU =    215.0092 (sec) ----------------
TotEng   =     -3371.3817 KinEng   =       638.9704 Temp     =       294.9927 
PotEng   =     -4010.3521 E_bond   =         0.5107 E_angle  =         2.9775 
E_dihed  =         0.4888 E_impro  =         0.0000 E_vdwl   =       783.6030 
E_coul   =     14712.0976 E_long   =    -19510.0297 Press    =       176.2623 
Volume   =     11031.5386 
SHAKE stats (type/ave/delta) on step 70000
  2 1.08993 6.01376e-07
  4 0.944935 0
  5 0.999932 3.83762e-06
  6 109.47 0.000456032
---------------- Step    70000 ----- CPU =    232.2865 (sec) ----------------
TotEng   =     -3431.4339 KinEng   =       639.5764 Temp     =       295.2724 
PotEng   =     -4071.0103 E_bond   =         0.4670 E_angle  =         4.7290 
E_dihed  =         0.2452 E_impro  =         0.0000 E_vdwl   =       776.1376 
E_coul   =     14660.0248 E_long   =    -19512.6139 Press    =      -210.5534 
Volume   =     10912.7477 
SHAKE stats (type/ave/delta) on step 75000
  2 1.08989 6.11709e-07
  4 0.944901 0
  5 0.999896 3.89425e-06
  6 109.47 0.000438982
---------------- Step    75000 ----- CPU =    249.1906 (sec) ----------------
TotEng   =     -3400.8257 KinEng   =       635.1926 Temp     =       293.2486 
PotEng   =     -4036.0183 E_bond   =         0.6852 E_angle  =         4.4556 
E_dihed  =         1.3601 E_impro  =         0.0000 E_vdwl   =       787.5797 
E_coul   =     14682.8947 E_long   =    -19512.9936 Press    =        97.7090 
Volume   =     11096.5196 
SHAKE stats (type/ave/delta) on step 80000
  2 1.09016 4.7194e-06
  4 0.945139 0
  5 1.00015 8.41451e-06
  6 109.47 0.000796936
---------------- Step    80000 ----- CPU =    266.1977 (sec) ----------------
TotEng   =     -3353.2894 KinEng   =       646.5855 Temp     =       298.5083 
PotEng   =     -3999.8748 E_bond   =         1.9573 E_angle  =         4.2704 
E_dihed  =         1.2505 E_impro  =         0.0000 E_vdwl   =       720.1205 
E_coul   =     14783.4796 E_long   =    -19510.9531 Press    =      -932.9852 
Volume   =     10962.8642 
SHAKE stats (type/ave/delta) on step 85000
  2 1.08993 6.70224e-07
  4 0.944942 0
  5 0.999939 5.56685e-06
  6 109.47 0.00040591
---------------- Step    85000 ----- CPU =    282.8139 (sec) ----------------
TotEng   =     -3382.4529 KinEng   =       630.1106 Temp     =       290.9024 
PotEng   =     -4012.5635 E_bond   =         0.1977 E_angle  =         3.7242 
E_dihed  =         0.3789 E_impro  =         0.0000 E_vdwl   =       724.5138 
E_coul   =     14768.5916 E_long   =    -19509.9696 Press    =     -1443.1402 
Volume   =     11185.6646 
SHAKE stats (type/ave/delta) on step 90000
  2 1.09006 2.06574e-06
  4 0.945058 0
  5 1.00006 6.66194e-06
  6 109.47 0.000609314
---------------- Step    90000 ----- CPU =    299.3212 (sec) ----------------
TotEng   =     -3404.7912 KinEng   =       652.9085 Temp     =       301.4274 
PotEng   =     -4057.6997 E_bond   =         0.0976 E_angle  =         3.6948 
E_dihed  =         0.3424 E_impro  =         0.0000 E_vdwl   =       797.6886 
E_coul   =     14652.1613 E_long   =    -19511.6845 Press    =       336.1002 
Volume   =     10932.8638 
SHAKE stats (type/ave/delta) on step 95000
  2 1.09001 4.63326e-07
  4 0.945007 0
  5 1.00001 4.53606e-06
  6 109.47 0.000359815
---------------- Step    95000 ----- CPU =    316.0690 (sec) ----------------
TotEng   =     -3369.7267 KinEng   =       628.6288 Temp     =       290.2182 
PotEng   =     -3998.3554 E_bond   =         0.0167 E_angle  =         2.7403 
E_dihed  =         0.0450 E_impro  =         0.0000 E_vdwl   =       788.2342 
E_coul   =     14724.6480 E_long   =    -19514.0396 Press    =       241.0936 
Volume   =     11052.1964 
SHAKE stats (type/ave/delta) on step 100000
  2 1.09013 2.57947e-06
  4 0.945117 0
  5 1.00012 6.34093e-06
  6 109.47 0.000508259
---------------- Step   100000 ----- CPU =    332.8984 (sec) ----------------
TotEng   =     -3373.5686 KinEng   =       640.2886 Temp     =       295.6012 
PotEng   =     -4013.8572 E_bond   =         0.1762 E_angle  =         3.2351 
E_dihed  =         1.9328 E_impro  =         0.0000 E_vdwl   =       738.1254 
E_coul   =     14752.5030 E_long   =    -19509.8298 Press    =      -819.2435 
Volume   =     11000.2126 
SHAKE stats (type/ave/delta) on step 105000
  2 1.08998 5.04982e-07
  4 0.944985 0
  5 0.999985 4.71999e-06
  6 109.47 0.000385072
---------------- Step   105000 ----- CPU =    349.7049 (sec) ----------------
TotEng   =     -3329.8698 KinEng   =       671.5793 Temp     =       310.0471 
PotEng   =     -4001.4491 E_bond   =         0.2036 E_angle  =         1.7652 
E_dihed  =         1.0761 E_impro  =         0.0000 E_vdwl   =       741.7362 
E_coul   =     14764.4901 E_long   =    -19510.7202 Press    =      -367.4487 
Volume   =     10914.2346 
SHAKE stats (type/ave/delta) on step 110000
  2 1.09022 7.64171e-06
  4 0.945194 0
  5 1.0002 1.50723e-05
  6 109.47 0.00112379
---------------- Step   110000 ----- CPU =    366.6443 (sec) ----------------
TotEng   =     -3343.6953 KinEng   =       684.5343 Temp     =       316.0281 
PotEng   =     -4028.2295 E_bond   =         0.2815 E_angle  =         5.3275 
E_dihed  =         0.2886 E_impro  =         0.0000 E_vdwl   =       754.6691 
E_coul   =     14722.3530 E_long   =    -19511.1492 Press    =      -745.4725 
Volume   =     10941.4517 
SHAKE stats (type/ave/delta) on step 115000
  2 1.09004 1.68656e-06
  4 0.945035 0
  5 1.00004 9.69742e-06
  6 109.47 0.000552822
---------------- Step   115000 ----- CPU =    383.6664 (sec) ----------------
TotEng   =     -3284.5221 KinEng   =       628.9685 Temp     =       290.3751 
PotEng   =     -3913.4906 E_bond   =         0.8680 E_angle  =         8.0183 
E_dihed  =         1.2967 E_impro  =         0.0000 E_vdwl   =       717.9661 
E_coul   =     14871.1382 E_long   =    -19512.7779 Press    =      -871.5790 
Volume   =     11262.8944 
SHAKE stats (type/ave/delta) on step 120000
  2 1.09002 2.51126e-07
  4 0.945018 0
  5 1.00002 3.97181e-06
  6 109.47 0.000372215
---------------- Step   120000 ----- CPU =    400.7003 (sec) ----------------
TotEng   =     -3420.0976 KinEng   =       629.6622 Temp     =       290.6954 
PotEng   =     -4049.7598 E_bond   =         0.7673 E_angle  =         4.0931 
E_dihed  =         1.3341 E_impro  =         0.0000 E_vdwl   =       793.2688 
E_coul   =     14661.3432 E_long   =    -19510.5664 Press    =        54.1763 
Volume   =     10898.1399 
SHAKE stats (type/ave/delta) on step 125000
  2 1.08992 1.9666e-06
  4 0.944933 0
  5 0.99993 1.14579e-05
  6 109.47 0.00112649
---------------- Step   125000 ----- CPU =    417.5921 (sec) ----------------
TotEng   =     -3344.8601 KinEng   =       664.9613 Temp     =       306.9918 
PotEng   =     -4009.8214 E_bond   =         0.2687 E_angle  =         3.9016 
E_dihed  =         0.3025 E_impro  =         0.0000 E_vdwl   =       821.2973 
E_coul   =     14675.5203 E_long   =    -19511.1117 Press    =       851.1867 
Volume   =     11032.9837 
SHAKE stats (type/ave/delta) on step 130000
  2 1.09 4.31605e-07
  4 0.944999 0
  5 1 4.10334e-06
  6 109.47 0.000360378
---------------- Step   130000 ----- CPU =    433.2573 (sec) ----------------
TotEng   =     -3317.0472 KinEng   =       666.8142 Temp     =       307.8473 
PotEng   =     -3983.8613 E_bond   =         0.5737 E_angle  =         2.2814 
E_dihed  =         1.4423 E_impro  =         0.0000 E_vdwl   =       785.5579 
E_coul   =     14737.9620 E_long   =    -19511.6786 Press    =       275.7891 
Volume   =     11050.2582 
SHAKE stats (type/ave/delta) on step 135000
  2 1.08993 1.0324e-07
  4 0.944938 0
  5 0.999936 4.00168e-06
  6 109.47 0.000381482
---------------- Step   135000 ----- CPU =    448.8157 (sec) ----------------
TotEng   =     -3356.9234 KinEng   =       639.7787 Temp     =       295.3658 
PotEng   =     -3996.7021 E_bond   =         0.1589 E_angle  =         3.6455 
E_dihed  =         1.5565 E_impro  =         0.0000 E_vdwl   =       768.0773 
E_coul   =     14743.8738 E_long   =    -19514.0141 Press    =       334.2211 
Volume   =     10812.5171 
SHAKE stats (type/ave/delta) on step 140000
  2 1.08996 3.54364e-06
  4 0.944971 0
  5 0.999968 8.45291e-06
  6 109.47 0.000834713
---------------- Step   140000 ----- CPU =    464.5419 (sec) ----------------
TotEng   =     -3417.3886 KinEng   =       625.0661 Temp     =       288.5735 
PotEng   =     -4042.4547 E_bond   =         0.1323 E_angle  =         5.9527 
E_dihed  =         0.1083 E_impro  =         0.0000 E_vdwl   =       833.3873 
E_coul   =     14632.6978 E_long   =    -19514.7331 Press    =       638.0896 
Volume   =     11001.0612 
SHAKE stats (type/ave/delta) on step 145000
  2 1.08987 2.52369e-06
  4 0.944889 0
  5 0.999883 7.64735e-06
  6 109.47 0.000540758
---------------- Step   145000 ----- CPU =    479.4872 (sec) ----------------
TotEng   =     -3401.1257 KinEng   =       647.8002 Temp     =       299.0691 
PotEng   =     -4048.9260 E_bond   =         0.0038 E_angle  =         3.9682 
E_dihed  =         0.0784 E_impro  =         0.0000 E_vdwl   =       839.2913 
E_coul   =     14619.3126 E_long   =    -19511.5804 Press    =       942.3687 
Volume   =     10959.3654 
SHAKE stats (type/ave/delta) on step 150000
  2 1.09006 5.05664e-06
  4 0.945052 0
  5 1.00006 1.293e-05
  6 109.47 0.0010291
---------------- Step   150000 ----- CPU =    494.5589 (sec) ----------------
TotEng   =     -3355.8660 KinEng   =       632.9666 Temp     =       292.2209 
PotEng   =     -3988.8325 E_bond   =         1.1202 E_angle  =         5.4144 
E_dihed  =         0.5518 E_impro  =         0.0000 E_vdwl   =       768.2961 
E_coul   =     14746.7920 E_long   =    -19511.0070 Press    =      -213.0377 
Volume   =     11016.1851 
SHAKE stats (type/ave/delta) on step 155000
  2 1.08998 7.34001e-07
  4 0.944981 0
  5 0.999981 4.89451e-06
  6 109.47 0.000459302
---------------- Step   155000 ----- CPU =    511.6860 (sec) ----------------
TotEng   =     -3381.8726 KinEng   =       616.5167 Temp     =       284.6265 
PotEng   =     -3998.3894 E_bond   =         0.8030 E_angle  =         4.3553 
E_dihed  =         0.0863 E_impro  =         0.0000 E_vdwl   =       767.7159 
E_coul   =     14739.1812 E_long   =    -19510.5310 Press    =        87.2769 
Volume   =     10919.4180 
SHAKE stats (type/ave/delta) on step 160000
  2 1.08994 3.32403e-06
  4 0.944948 0
  5 0.999945 1.50659e-05
  6 109.47 0.00111724
---------------- Step   160000 ----- CPU =    528.2212 (sec) ----------------
TotEng   =     -3296.9420 KinEng   =       696.4698 Temp     =       321.5383 
PotEng   =     -3993.4118 E_bond   =         0.7596 E_angle  =         4.0995 
E_dihed  =         1.7638 E_impro  =         0.0000 E_vdwl   =       727.1386 
E_coul   =     14784.8983 E_long   =    -19512.0717 Press    =      -622.7612 
Volume   =     10918.5435 
SHAKE stats (type/ave/delta) on step 165000
  2 1.09017 8.56109e-07
  4 0.945145 0
  5 1.00015 8.97022e-06
  6 109.47 0.000828983
---------------- Step   165000 ----- CPU =    545.2619 (sec) ----------------
TotEng   =     -3353.1062 KinEng   =       653.1302 Temp     =       301.5298 
PotEng   =     -4006.2364 E_bond   =         0.9080 E_angle  =         4.2412 
E_dihed  =         0.8002 E_impro  =         0.0000 E_vdwl   =       773.2348 
E_coul   =     14726.0121 E_long   =    -19511.4327 Press    =      -221.5327 
Volume   =     11089.0012 
SHAKE stats (type/ave/delta) on step 170000
  2 1.09012 7.76656e-08
  4 0.9451 0
  5 1.00011 3.52511e-06
  6 109.47 0.00035189
---------------- Step   170000 ----- CPU =    562.4239 (sec) ----------------
TotEng   =     -3437.9764 KinEng   =       618.9946 Temp     =       285.7704 
PotEng   =     -4056.9710 E_bond   =         0.2887 E_angle  =         3.1143 
E_dihed  =         1.4985 E_impro  =         0.0000 E_vdwl   =       717.4619 
E_coul   =     14731.0049 E_long   =    -19510.3393 Press    =     -1613.7841 
Volume   =     10949.8432 
SHAKE stats (type/ave/delta) on step 175000
  2 1.09 3.78958e-06
  4 0.945002 0
  5 1 7.0714e-06
  6 109.47 0.000609983
---------------- Step   175000 ----- CPU =    579.2729 (sec) ----------------
TotEng   =     -3358.8415 KinEng   =       664.5103 Temp     =       306.7836 
PotEng   =     -4023.3518 E_bond   =         1.7314 E_angle  =         4.8238 
E_dihed  =         2.6318 E_impro  =         0.0000 E_vdwl   =       775.2502 
E_coul   =     14698.3433 E_long   =    -19506.1323 Press    =      -313.4391 
Volume   =     11078.6247 
SHAKE stats (type/ave/delta) on step 180000
  2 1.08995 8.72771e-07
  4 0.944957 0
  5 0.999955 6.65685e-06
  6 109.47 0.000439247
---------------- Step   180000 ----- CPU =    596.0401 (sec) ----------------
TotEng   =     -3333.1916 KinEng   =       643.5697 Temp     =       297.1160 
PotEng   =     -3976.7613 E_bond   =         1.9385 E_angle  =         3.0059 
E_dihed  =         1.0222 E_impro  =         0.0000 E_vdwl   =       771.5606 
E_coul   =     14758.8353 E_long   =    -19513.1237 Press    =        55.1479 
Volume   =     11197.4867 
SHAKE stats (type/ave/delta) on step 185000
  2 1.08989 2.0052e-06
  4 0.944909 0
  5 0.999904 7.59828e-06
  6 109.47 0.000628969
---------------- Step   185000 ----- CPU =    612.9252 (sec) ----------------
TotEng   =     -3357.8358 KinEng   =       643.1984 Temp     =       296.9446 
PotEng   =     -4001.0342 E_bond   =         0.0168 E_angle  =         3.6566 
E_dihed  =         0.6860 E_impro  =         0.0000 E_vdwl   =       806.7641 
E_coul   =     14698.3534 E_long   =    -19510.5111 Press    =       838.8344 
Volume   =     10950.1690 
SHAKE stats (type/ave/delta) on step 190000
  2 1.08991 9.32209e-07
  4 0.94492 0
  5 0.999916 5.60512e-06
  6 109.47 0.000508052
---------------- Step   190000 ----- CPU =    629.6683 (sec) ----------------
TotEng   =     -3419.1495 KinEng   =       612.8269 Temp     =       282.9230 
PotEng   =     -4031.9763 E_bond   =         0.3588 E_angle  =         3.6487 
E_dihed  =         0.2641 E_impro  =         0.0000 E_vdwl   =       756.5502 
E_coul   =     14718.7316 E_long   =    -19511.5298 Press    =      -890.2534 
Volume   =     11103.7764 
SHAKE stats (type/ave/delta) on step 195000
  2 1.08991 3.07379e-07
  4 0.944918 0
  5 0.999914 4.13258e-06
  6 109.47 0.000400219
---------------- Step   195000 ----- CPU =    646.4967 (sec) ----------------
TotEng   =     -3335.5009 KinEng   =       675.3413 Temp     =       311.7840 
PotEng   =     -4010.8422 E_bond   =         0.0666 E_angle  =         5.9266 
E_dihed  =         2.0243 E_impro  =         0.0000 E_vdwl   =       815.0282 
E_coul   =     14677.9432 E_long   =    -19511.8312 Press    =      1196.1663 
Volume   =     10726.2703 
SHAKE stats (type/ave/delta) on step 200000
  2 1.08999 3.3115e-06
  4 0.94499 0
  5 0.999991 7.32347e-06
  6 109.47 0.000647549
---------------- Step   200000 ----- CPU =    663.3624 (sec) ----------------
TotEng   =     -3300.6847 KinEng   =       668.3190 Temp     =       308.5420 
PotEng   =     -3969.0037 E_bond   =         0.4844 E_angle  =         5.5956 
E_dihed  =         0.7765 E_impro  =         0.0000 E_vdwl   =       719.7492 
E_coul   =     14815.9534 E_long   =    -19511.5628 Press    =      -596.0286 
Volume   =     10919.5678 
SHAKE stats (type/ave/delta) on step 205000
  2 1.09 2.81024e-06
  4 0.944997 0
  5 1 1.07654e-05
  6 109.47 0.00121095
---------------- Step   205000 ----- CPU =    680.3285 (sec) ----------------
TotEng   =     -3312.0295 KinEng   =       643.5258 Temp     =       297.0957 
PotEng   =     -3955.5553 E_bond   =         0.3085 E_angle  =         4.3343 
E_dihed  =         0.4721 E_impro  =         0.0000 E_vdwl   =       745.2796 
E_coul   =     14808.1889 E_long   =    -19514.1386 Press    =       -79.6444 
Volume   =     10916.2105 
SHAKE stats (type/ave/delta) on step 210000
  2 1.09002 3.13349e-06
  4 0.945019 0
  5 1.00002 7.03549e-06
  6 109.47 0.000638552
---------------- Step   210000 ----- CPU =    697.3880 (sec) ----------------
TotEng   =     -3346.1631 KinEng   =       641.9804 Temp     =       296.3823 
PotEng   =     -3988.1435 E_bond   =         0.6268 E_angle  =         3.9551 
E_dihed  =         2.6175 E_impro  =         0.0000 E_vdwl   =       740.1601 
E_coul   =     14775.0876 E_long   =    -19510.5907 Press    =      -309.3427 
Volume   =     10937.2124 
SHAKE stats (type/ave/delta) on step 215000
  2 1.08992 3.02027e-07
  4 0.944927 0
  5 0.999924 4.92211e-06
  6 109.47 0.000418437
---------------- Step   215000 ----- CPU =    714.5373 (sec) ----------------
TotEng   =     -3378.9223 KinEng   =       618.6503 Temp     =       285.6115 
PotEng   =     -3997.5725 E_bond   =         0.3729 E_angle  =         5.1600 
E_dihed  =         0.1258 E_impro  =         0.0000 E_vdwl   =       800.6910 
E_coul   =     14706.2526 E_long   =    -19510.1749 Press    =       693.5429 
Volume   =     11021.7680 
SHAKE stats (type/ave/delta) on step 220000
  2 1.09003 4.36421e-07
  4 0.945024 0
  5 1.00003 5.19759e-06
  6 109.47 0.000386422
---------------- Step   220000 ----- CPU =    731.8926 (sec) ----------------
TotEng   =     -3289.7780 KinEng   =       686.1284 Temp     =       316.7640 
PotEng   =     -3975.9064 E_bond   =         0.2292 E_angle  =         5.0022 
E_dihed  =         1.4067 E_impro  =         0.0000 E_vdwl   =       730.9466 
E_coul   =     14797.9823 E_long   =    -19511.4735 Press    =      -666.4237 
Volume   =     11160.2184 
SHAKE stats (type/ave/delta) on step 225000
  2 1.08991 1.71101e-06
  4 0.94492 0
  5 0.999916 7.25987e-06
  6 109.47 0.000558929
---------------- Step   225000 ----- CPU =    748.9705 (sec) ----------------
TotEng   =     -3376.2788 KinEng   =       657.2388 Temp     =       303.4266 
PotEng   =     -4033.5177 E_bond   =         0.1140 E_angle  =         3.0364 
E_dihed  =         0.1067 E_impro  =         0.0000 E_vdwl   =       846.6649 
E_coul   =     14628.7095 E_long   =    -19512.1491 Press    =       924.7643 
Volume   =     11217.3270 
SHAKE stats (type/ave/delta) on step 230000
  2 1.08994 2.83312e-07
  4 0.944948 0
  5 0.999946 4.97586e-06
  6 109.47 0.000424647
---------------- Step   230000 ----- CPU =    766.1984 (sec) ----------------
TotEng   =     -3345.5506 KinEng   =       668.9781 Temp     =       308.8463 
PotEng   =     -4014.5287 E_bond   =         0.1349 E_angle  =         2.3630 
E_dihed  =         0.1876 E_impro  =         0.0000 E_vdwl   =       731.2273 
E_coul   =     14762.3999 E_long   =    -19510.8414 Press    =      -853.7569 
Volume   =     10996.8828 
SHAKE stats (type/ave/delta) on step 235000
  2 1.08994 8.5225e-07
  4 0.944952 0
  5 0.99995 8.39018e-06
  6 109.47 0.00069453
---------------- Step   235000 ----- CPU =    783.3973 (sec) ----------------
TotEng   =     -3318.5746 KinEng   =       673.0842 Temp     =       310.7419 
PotEng   =     -3991.6589 E_bond   =         1.1039 E_angle  =         2.4564 
E_dihed  =         0.2128 E_impro  =         0.0000 E_vdwl   =       721.9958 
E_coul   =     14794.5584 E_long   =    -19511.9861 Press    =      -992.2632 
Volume   =     11104.4920 
SHAKE stats (type/ave/delta) on step 240000
  2 1.08998 1.90485e-06
  4 0.944986 0
  5 0.999986 7.70553e-06
  6 109.47 0.000763395
---------------- Step   240000 ----- CPU =    800.3143 (sec) ----------------
TotEng   =     -3340.6692 KinEng   =       636.8987 Temp     =       294.0362 
PotEng   =     -3977.5680 E_bond   =         0.5325 E_angle  =         2.7338 
E_dihed  =         0.2707 E_impro  =         0.0000 E_vdwl   =       710.6384 
E_coul   =     14821.9437 E_long   =    -19513.6871 Press    =     -1078.6760 
Volume   =     10935.4366 
SHAKE stats (type/ave/delta) on step 245000
  2 1.09002 8.28487e-07
  4 0.945018 0
  5 1.00002 7.43569e-06
  6 109.47 0.000672992
---------------- Step   245000 ----- CPU =    817.8267 (sec) ----------------
TotEng   =     -3359.0188 KinEng   =       636.5906 Temp     =       293.8940 
PotEng   =     -3995.6094 E_bond   =         0.3770 E_angle  =         2.4285 
E_dihed  =         0.9541 E_impro  =         0.0000 E_vdwl   =       786.0912 
E_coul   =     14723.0241 E_long   =    -19508.4843 Press    =       146.3068 
Volume   =     11000.2401 
SHAKE stats (type/ave/delta) on step 250000
  2 1.09011 7.86841e-07
  4 0.945097 0
  5 1.0001 5.99079e-06
  6 109.47 0.000599695
---------------- Step   250000 ----- CPU =    834.6626 (sec) ----------------
TotEng   =     -3306.1216 KinEng   =       654.4601 Temp     =       302.1438 
PotEng   =     -3960.5817 E_bond   =         0.0652 E_angle  =         2.7902 
E_dihed  =         0.5687 E_impro  =         0.0000 E_vdwl   =       774.4579 
E_coul   =     14771.5395 E_long   =    -19510.0031 Press    =       614.4735 
Volume   =     11044.7025 
SHAKE stats (type/ave/delta) on step 255000
  2 1.09 1.98754e-06
  4 0.945003 0
  5 1 6.59113e-06
  6 109.47 0.000661247
---------------- Step   255000 ----- CPU =    850.2363 (sec) ----------------
TotEng   =     -3323.0012 KinEng   =       676.7354 Temp     =       312.4276 
PotEng   =     -3999.7367 E_bond   =         0.2865 E_angle  =         3.0364 
E_dihed  =         0.9528 E_impro  =         0.0000 E_vdwl   =       751.4255 
E_coul   =     14755.4340 E_long   =    -19510.8719 Press    =      -428.1260 
Volume   =     10900.7920 
SHAKE stats (type/ave/delta) on step 260000
  2 1.09001 1.85913e-06
  4 0.945007 0
  5 1.00001 6.45621e-06
  6 109.47 0.000713545
---------------- Step   260000 ----- CPU =    866.0390 (sec) ----------------
TotEng   =     -3351.2206 KinEng   =       640.0097 Temp     =       295.4724 
PotEng   =     -3991.2302 E_bond   =         0.4156 E_angle  =         5.3551 
E_dihed  =         0.3383 E_impro  =         0.0000 E_vdwl   =       812.2610 
E_coul   =     14703.3165 E_long   =    -19512.9167 Press    =      1073.5822 
Volume   =     10889.1580 
SHAKE stats (type/ave/delta) on step 265000
  2 1.09002 2.9274e-06
  4 0.945018 0
  5 1.00002 8.46104e-06
  6 109.47 0.000685486
---------------- Step   265000 ----- CPU =    881.6759 (sec) ----------------
TotEng   =     -3348.9054 KinEng   =       657.0725 Temp     =       303.3498 
PotEng   =     -4005.9779 E_bond   =         1.0278 E_angle  =         4.0307 
E_dihed  =         0.6831 E_impro  =         0.0000 E_vdwl   =       783.0839 
E_coul   =     14714.4843 E_long   =    -19509.2877 Press    =       600.5071 
Volume   =     10918.2729 
SHAKE stats (type/ave/delta) on step 270000
  2 1.08999 5.70551e-07
  4 0.94499 0
  5 0.999991 4.13334e-06
  6 109.47 0.000370824
---------------- Step   270000 ----- CPU =    897.0224 (sec) ----------------
TotEng   =     -3323.0789 KinEng   =       646.3566 Temp     =       298.4026 
PotEng   =     -3969.4355 E_bond   =         0.2554 E_angle  =         5.8283 
E_dihed  =         0.6522 E_impro  =         0.0000 E_vdwl   =       748.7898 
E_coul   =     14786.0243 E_long   =    -19510.9854 Press    =      -195.9490 
Volume   =     11046.7120 
SHAKE stats (type/ave/delta) on step 275000
  2 1.09007 5.2832e-07
  4 0.945063 0
  5 1.00007 4.83014e-06
  6 109.47 0.000376957
---------------- Step   275000 ----- CPU =    912.7092 (sec) ----------------
TotEng   =     -3312.0526 KinEng   =       658.1700 Temp     =       303.8565 
PotEng   =     -3970.2226 E_bond   =         0.2551 E_angle  =         3.5246 
E_dihed  =         0.8077 E_impro  =         0.0000 E_vdwl   =       785.6046 
E_coul   =     14750.8115 E_long   =    -19511.2261 Press    =       671.2462 
Volume   =     11078.5899 
SHAKE stats (type/ave/delta) on step 280000
  2 1.09006 3.10544e-06
  4 0.945055 0
  5 1.00006 1.08457e-05
  6 109.47 0.000868875
---------------- Step   280000 ----- CPU =    929.4502 (sec) ----------------
TotEng   =     -3398.2937 KinEng   =       609.1173 Temp     =       281.2104 
PotEng   =     -4007.4110 E_bond   =         0.3429 E_angle  =         2.3868 
E_dihed  =         0.2113 E_impro  =         0.0000 E_vdwl   =       820.6517 
E_coul   =     14678.6638 E_long   =    -19509.6675 Press    =       930.0138 
Volume   =     10974.0804 
SHAKE stats (type/ave/delta) on step 285000
  2 1.08987 2.6457e-06
  4 0.944883 0
  5 0.999878 8.03661e-06
  6 109.47 0.000695007
---------------- Step   285000 ----- CPU =    946.3440 (sec) ----------------
TotEng   =     -3384.3120 KinEng   =       651.3564 Temp     =       300.7109 
PotEng   =     -4035.6684 E_bond   =         0.1865 E_angle  =         1.6615 
E_dihed  =         0.5115 E_impro  =         0.0000 E_vdwl   =       736.9026 
E_coul   =     14736.4632 E_long   =    -19511.3937 Press    =     -1034.5370 
Volume   =     11022.3972 
SHAKE stats (type/ave/delta) on step 290000
  2 1.09015 1.14126e-06
  4 0.945127 0
  5 1.00014 6.82178e-06
  6 109.47 0.000698171
---------------- Step   290000 ----- CPU =    962.8132 (sec) ----------------
TotEng   =     -3332.2955 KinEng   =       620.4546 Temp     =       286.4445 
PotEng   =     -3952.7500 E_bond   =         0.5937 E_angle  =         4.1426 
E_dihed  =         1.7007 E_impro  =         0.0000 E_vdwl   =       696.1062 
E_coul   =     14855.9956 E_long   =    -19511.2887 Press    =     -1236.5855 
Volume   =     11062.2758 
SHAKE stats (type/ave/delta) on step 295000
  2 1.08997 3.67619e-06
  4 0.944973 0
  5 0.99997 1.04995e-05
  6 109.47 0.000965328
---------------- Step   295000 ----- CPU =    979.6948 (sec) ----------------
TotEng   =     -3256.7481 KinEng   =       661.4652 Temp     =       305.3778 
PotEng   =     -3918.2132 E_bond   =         1.0636 E_angle  =         2.4867 
E_dihed  =         1.1270 E_impro  =         0.0000 E_vdwl   =       730.3392 
E_coul   =     14859.2909 E_long   =    -19512.5207 Press    =       -70.1528 
Volume   =     11065.2333 
SHAKE stats (type/ave/delta) on step 300000
  2 1.08998 8.09089e-07
  4 0.944979 0
  5 0.99998 5.70657e-06
  6 109.47 0.000685174
---------------- Step   300000 ----- CPU =    996.3067 (sec) ----------------
TotEng   =     -3387.7020 KinEng   =       635.4179 Temp     =       293.3526 
PotEng   =     -4023.1199 E_bond   =         0.2331 E_angle  =         4.2294 
E_dihed  =         0.3515 E_impro  =         0.0000 E_vdwl   =       800.0369 
E_coul   =     14682.5561 E_long   =    -19510.5269 Press    =       532.8735 
Volume   =     10912.2964 
SHAKE stats (type/ave/delta) on step 305000
  2 1.08994 1.50039e-06
  4 0.944944 0
  5 0.999942 4.6946e-06
  6 109.47 0.000437557
---------------- Step   305000 ----- CPU =   1013.0146 (sec) ----------------
TotEng   =     -3325.7310 KinEng   =       637.2271 Temp     =       294.1878 
PotEng   =     -3962.9582 E_bond   =         0.0255 E_angle  =         4.2143 
E_dihed  =         1.0860 E_impro  =         0.0000 E_vdwl   =       768.5151 
E_coul   =     14772.2463 E_long   =    -19509.0454 Press    =       274.0375 
Volume   =     11012.2435 
SHAKE stats (type/ave/delta) on step 310000
  2 1.09 9.51727e-07
  4 0.944998 0
  5 1 6.53716e-06
  6 109.47 0.000653634
---------------- Step   310000 ----- CPU =   1029.5112 (sec) ----------------
TotEng   =     -3316.8573 KinEng   =       659.4991 Temp     =       304.4701 
PotEng   =     -3976.3564 E_bond   =         0.7672 E_angle  =         2.9512 
E_dihed  =         0.0267 E_impro  =         0.0000 E_vdwl   =       736.2826 
E_coul   =     14796.3645 E_long   =    -19512.7487 Press    =      -242.1177 
Volume   =     10785.0379 
SHAKE stats (type/ave/delta) on step 315000
  2 1.08996 3.65023e-06
  4 0.944968 0
  5 0.999967 1.06647e-05
  6 109.47 0.000911396
---------------- Step   315000 ----- CPU =   1045.5465 (sec) ----------------
TotEng   =     -3405.1390 KinEng   =       635.0359 Temp     =       293.1762 
PotEng   =     -4040.1749 E_bond   =         0.1821 E_angle  =         3.0462 
E_dihed  =         0.1545 E_impro  =         0.0000 E_vdwl   =       807.1509 
E_coul   =     14660.8761 E_long   =    -19511.5847 Press    =       668.9048 
Volume   =     10867.8484 
SHAKE stats (type/ave/delta) on step 320000
  2 1.09006 6.72442e-07
  4 0.945055 0
  5 1.00006 4.45972e-06
  6 109.47 0.000437223
---------------- Step   320000 ----- CPU =   1061.7528 (sec) ----------------
TotEng   =     -3397.1039 KinEng   =       623.8499 Temp     =       288.0120 
PotEng   =     -4020.9538 E_bond   =         0.4950 E_angle  =         4.3228 
E_dihed  =         0.2769 E_impro  =         0.0000 E_vdwl   =       750.7171 
E_coul   =     14734.2640 E_long   =    -19511.0298 Press    =      -559.7701 
Volume   =     10985.0244 
SHAKE stats (type/ave/delta) on step 325000
  2 1.08992 2.70292e-06
  4 0.944934 0
  5 0.999931 1.52959e-05
  6 109.47 0.00125836
---------------- Step   325000 ----- CPU =   1078.6698 (sec) ----------------
TotEng   =     -3308.5200 KinEng   =       655.0608 Temp     =       302.4211 
PotEng   =     -3963.5808 E_bond   =         0.9290 E_angle  =         3.3162 
E_dihed  =         0.7250 E_impro  =         0.0000 E_vdwl   =       793.1479 
E_coul   =     14750.3455 E_long   =    -19512.0443 Press    =       682.1301 
Volume   =     10992.3907 
SHAKE stats (type/ave/delta) on step 330000
  2 1.09003 5.08815e-06
  4 0.945035 0
  5 1.00003 9.80196e-06
  6 109.47 0.000961528
---------------- Step   330000 ----- CPU =   1095.7075 (sec) ----------------
TotEng   =     -3337.6762 KinEng   =       686.9246 Temp     =       317.1316 
PotEng   =     -4024.6008 E_bond   =         0.7107 E_angle  =         4.4856 
E_dihed  =         0.8150 E_impro  =         0.0000 E_vdwl   =       777.4744 
E_coul   =     14703.6730 E_long   =    -19511.7594 Press    =        65.4497 
Volume   =     10951.1988 
SHAKE stats (type/ave/delta) on step 335000
  2 1.09002 4.75927e-07
  4 0.945022 0
  5 1.00002 6.28748e-06
  6 109.47 0.000406518
---------------- Step   335000 ----- CPU =   1113.2925 (sec) ----------------
TotEng   =     -3349.0671 KinEng   =       658.4231 Temp     =       303.9734 
PotEng   =     -4007.4902 E_bond   =         0.2111 E_angle  =         3.0474 
E_dihed  =         0.8635 E_impro  =         0.0000 E_vdwl   =       762.6000 
E_coul   =     14736.4077 E_long   =    -19510.6199 Press    =      -170.9823 
Volume   =     11015.7734 
SHAKE stats (type/ave/delta) on step 340000
  2 1.09006 1.54529e-06
  4 0.945053 0
  5 1.00006 6.35565e-06
  6 109.47 0.000585033
---------------- Step   340000 ----- CPU =   1130.4057 (sec) ----------------
TotEng   =     -3320.9854 KinEng   =       664.7650 Temp     =       306.9012 
PotEng   =     -3985.7504 E_bond   =         1.2952 E_angle  =         3.0863 
E_dihed  =         0.6531 E_impro  =         0.0000 E_vdwl   =       751.6328 
E_coul   =     14770.7251 E_long   =    -19513.1428 Press    =      -150.7061 
Volume   =     10888.6457 
SHAKE stats (type/ave/delta) on step 345000
  2 1.08998 1.25595e-06
  4 0.944978 0
  5 0.999978 1.26829e-05
  6 109.47 0.00101169
---------------- Step   345000 ----- CPU =   1147.3204 (sec) ----------------
TotEng   =     -3369.0750 KinEng   =       645.8961 Temp     =       298.1900 
PotEng   =     -4014.9712 E_bond   =         0.1772 E_angle  =         4.0017 
E_dihed  =         0.0749 E_impro  =         0.0000 E_vdwl   =       807.9206 
E_coul   =     14683.1185 E_long   =    -19510.2641 Press    =       898.8896 
Volume   =     10796.4514 
SHAKE stats (type/ave/delta) on step 350000
  2 1.09002 1.25205e-06
  4 0.945017 0
  5 1.00002 7.44259e-06
  6 109.47 0.00082914
---------------- Step   350000 ----- CPU =   1164.0879 (sec) ----------------
TotEng   =     -3361.0942 KinEng   =       647.0996 Temp     =       298.7457 
PotEng   =     -4008.1938 E_bond   =         0.1787 E_angle  =         2.3733 
E_dihed  =         0.2034 E_impro  =         0.0000 E_vdwl   =       742.3224 
E_coul   =     14760.2329 E_long   =    -19513.5045 Press    =      -567.6537 
Volume   =     11028.2807 
SHAKE stats (type/ave/delta) on step 355000
  2 1.09 1.80629e-07
  4 0.945 0
  5 1 4.26634e-06
  6 109.47 0.000376597
---------------- Step   355000 ----- CPU =   1181.1096 (sec) ----------------
TotEng   =     -3326.4099 KinEng   =       627.3566 Temp     =       289.6309 
PotEng   =     -3953.7666 E_bond   =         0.4424 E_angle  =         2.5909 
E_dihed  =         0.2023 E_impro  =         0.0000 E_vdwl   =       717.9700 
E_coul   =     14837.8167 E_long   =    -19512.7888 Press    =      -426.5091 
Volume   =     10852.4519 
SHAKE stats (type/ave/delta) on step 360000
  2 1.08985 2.82138e-07
  4 0.944872 0
  5 0.999865 4.91514e-06
  6 109.47 0.000366172
---------------- Step   360000 ----- CPU =   1197.6848 (sec) ----------------
TotEng   =     -3285.9281 KinEng   =       676.0248 Temp     =       312.0995 
PotEng   =     -3961.9529 E_bond   =         0.0323 E_angle  =         4.3240 
E_dihed  =         0.3361 E_impro  =         0.0000 E_vdwl   =       734.3053 
E_coul   =     14809.5291 E_long   =    -19510.4797 Press    =      -584.8555 
Volume   =     11246.5807 
SHAKE stats (type/ave/delta) on step 365000
  2 1.08993 5.53595e-07
  4 0.94494 0
  5 0.999936 4.43332e-06
  6 109.47 0.000426196
---------------- Step   365000 ----- CPU =   1214.7114 (sec) ----------------
TotEng   =     -3322.3216 KinEng   =       634.5359 Temp     =       292.9454 
PotEng   =     -3956.8575 E_bond   =         0.6183 E_angle  =         1.8394 
E_dihed  =         0.0590 E_impro  =         0.0000 E_vdwl   =       766.0514 
E_coul   =     14784.9985 E_long   =    -19510.4240 Press    =       213.2169 
Volume   =     11129.3278 
SHAKE stats (type/ave/delta) on step 370000
  2 1.09001 1.86559e-08
  4 0.945009 0
  5 1.00001 3.63256e-06
  6 109.47 0.000379764
---------------- Step   370000 ----- CPU =   1231.8970 (sec) ----------------
TotEng   =     -3417.2311 KinEng   =       623.6989 Temp     =       287.9423 
PotEng   =     -4040.9300 E_bond   =         0.9286 E_angle  =         3.5169 
E_dihed  =         1.0799 E_impro  =         0.0000 E_vdwl   =       748.8815 
E_coul   =     14716.3405 E_long   =    -19511.6775 Press    =     -1140.3436 
Volume   =     11163.7208 
SHAKE stats (type/ave/delta) on step 375000
  2 1.09012 5.37509e-06
  4 0.945099 0
  5 1.00011 1.5414e-05
  6 109.47 0.00142692
---------------- Step   375000 ----- CPU =   1249.0244 (sec) ----------------
TotEng   =     -3411.8905 KinEng   =       631.8413 Temp     =       291.7014 
PotEng   =     -4043.7318 E_bond   =         1.4021 E_angle  =         2.6515 
E_dihed  =         0.6806 E_impro  =         0.0000 E_vdwl   =       765.9086 
E_coul   =     14693.6104 E_long   =    -19507.9849 Press    =      -238.9573 
Volume   =     10935.1682 
SHAKE stats (type/ave/delta) on step 380000
  2 1.09001 1.98723e-06
  4 0.945012 0
  5 1.00001 5.77043e-06
  6 109.47 0.000567456
---------------- Step   380000 ----- CPU =   1265.0488 (sec) ----------------
TotEng   =     -3364.0226 KinEng   =       631.3965 Temp     =       291.4960 
PotEng   =     -3995.4190 E_bond   =         0.1004 E_angle  =         4.7678 
E_dihed  =         0.1979 E_impro  =         0.0000 E_vdwl   =       757.8548 
E_coul   =     14754.2878 E_long   =    -19512.6276 Press    =      -452.6607 
Volume   =     11014.6187 
SHAKE stats (type/ave/delta) on step 385000
  2 1.09006 5.6377e-07
  4 0.945053 0
  5 1.00006 4.21102e-06
  6 109.47 0.000455656
---------------- Step   385000 ----- CPU =   1281.0245 (sec) ----------------
TotEng   =     -3426.5187 KinEng   =       628.0758 Temp     =       289.9629 
PotEng   =     -4054.5944 E_bond   =         0.2897 E_angle  =         5.7805 
E_dihed  =         0.9449 E_impro  =         0.0000 E_vdwl   =       805.7324 
E_coul   =     14645.0303 E_long   =    -19512.3723 Press    =       479.5937 
Volume   =     10816.3090 
SHAKE stats (type/ave/delta) on step 390000
  2 1.09018 1.62122e-06
  4 0.945156 0
  5 1.00017 8.02257e-06
  6 109.47 0.00063293
---------------- Step   390000 ----- CPU =   1296.9506 (sec) ----------------
TotEng   =     -3384.2044 KinEng   =       650.0462 Temp     =       300.1060 
PotEng   =     -4034.2506 E_bond   =         0.7418 E_angle  =         2.2910 
E_dihed  =         0.3735 E_impro  =         0.0000 E_vdwl   =       809.7158 
E_coul   =     14663.7319 E_long   =    -19511.1046 Press    =       952.9703 
Volume   =     10733.9477 
SHAKE stats (type/ave/delta) on step 395000
  2 1.08998 1.24892e-06
  4 0.944987 0
  5 0.999987 8.4808e-06
  6 109.47 0.000924938
---------------- Step   395000 ----- CPU =   1312.9010 (sec) ----------------
TotEng   =     -3346.6339 KinEng   =       651.5578 Temp     =       300.8038 
PotEng   =     -3998.1916 E_bond   =         0.0875 E_angle  =         6.1687 
E_dihed  =         0.2102 E_impro  =         0.0000 E_vdwl   =       747.7042 
E_coul   =     14762.3674 E_long   =    -19514.7297 Press    =      -100.2313 
Volume   =     10783.0021 
SHAKE stats (type/ave/delta) on step 400000
  2 1.08999 1.78232e-06
[...]
  2 1.09005 1.49745e-06
  4 0.945046 0
  5 1.00005 5.07988e-06
  6 109.47 0.00058337
---------------- Step  2335000 ----- CPU =   7781.7705 (sec) ----------------
TotEng   =     -3319.6309 KinEng   =       662.2824 Temp     =       305.7551 
PotEng   =     -3981.9134 E_bond   =         1.2236 E_angle  =         2.8155 
E_dihed  =         0.6398 E_impro  =         0.0000 E_vdwl   =       732.6696 
E_coul   =     14790.5061 E_long   =    -19509.7680 Press    =       -69.2268 
Volume   =     10700.9555 
SHAKE stats (type/ave/delta) on step 2340000
  2 1.09003 3.67633e-07
  4 0.945029 0
  5 1.00003 3.88224e-06
  6 109.47 0.000348713
---------------- Step  2340000 ----- CPU =   7798.4622 (sec) ----------------
TotEng   =     -3339.6482 KinEng   =       642.5144 Temp     =       296.6288 
PotEng   =     -3982.1626 E_bond   =         0.5664 E_angle  =         1.2656 
E_dihed  =         0.6237 E_impro  =         0.0000 E_vdwl   =       730.5593 
E_coul   =     14794.1572 E_long   =    -19509.3348 Press    =      -581.6387 
Volume   =     11036.8374 
SHAKE stats (type/ave/delta) on step 2345000
  2 1.09005 2.43892e-07
  4 0.945046 0
  5 1.00005 3.82813e-06
  6 109.47 0.000410002
---------------- Step  2345000 ----- CPU =   7815.3555 (sec) ----------------
TotEng   =     -3305.0263 KinEng   =       675.9810 Temp     =       312.0793 
PotEng   =     -3981.0073 E_bond   =         0.1118 E_angle  =         3.4403 
E_dihed  =         1.3019 E_impro  =         0.0000 E_vdwl   =       744.5216 
E_coul   =     14782.5429 E_long   =    -19512.9258 Press    =      -272.0008 
Volume   =     11057.3587 
SHAKE stats (type/ave/delta) on step 2350000
  2 1.09008 4.61678e-07
  4 0.945073 0
  5 1.00008 3.84904e-06
  6 109.47 0.000350841
---------------- Step  2350000 ----- CPU =   7832.7329 (sec) ----------------
TotEng   =     -3348.9015 KinEng   =       634.9372 Temp     =       293.1306 
PotEng   =     -3983.8387 E_bond   =         1.5754 E_angle  =         4.5247 
E_dihed  =         0.0634 E_impro  =         0.0000 E_vdwl   =       739.0015 
E_coul   =     14783.4789 E_long   =    -19512.4824 Press    =        -2.0180 
Volume   =     10765.0999 
SHAKE stats (type/ave/delta) on step 2355000
  2 1.09016 4.44161e-07
  4 0.94514 0
  5 1.00015 3.77968e-06
  6 109.47 0.000426588
---------------- Step  2355000 ----- CPU =   7849.3404 (sec) ----------------
TotEng   =     -3307.5319 KinEng   =       661.8702 Temp     =       305.5648 
PotEng   =     -3969.4022 E_bond   =         1.0023 E_angle  =         3.9520 
E_dihed  =         1.7594 E_impro  =         0.0000 E_vdwl   =       747.0020 
E_coul   =     14788.3130 E_long   =    -19511.4308 Press    =      -333.1660 
Volume   =     11012.9498 
SHAKE stats (type/ave/delta) on step 2360000
  2 1.09004 4.01336e-06
  4 0.945039 0
  5 1.00004 9.59861e-06
  6 109.47 0.0010319
---------------- Step  2360000 ----- CPU =   7866.2351 (sec) ----------------
TotEng   =     -3379.0886 KinEng   =       636.2612 Temp     =       293.7419 
PotEng   =     -4015.3498 E_bond   =         0.4076 E_angle  =         6.8003 
E_dihed  =         0.3277 E_impro  =         0.0000 E_vdwl   =       782.4524 
E_coul   =     14705.8947 E_long   =    -19511.2323 Press    =      -345.9638 
Volume   =     11172.2516 
SHAKE stats (type/ave/delta) on step 2365000
  2 1.08988 6.67315e-06
  4 0.944901 0
  5 0.999893 8.80395e-06
  6 109.47 0.00102701
---------------- Step  2365000 ----- CPU =   7883.0065 (sec) ----------------
TotEng   =     -3382.2518 KinEng   =       643.4949 Temp     =       297.0815 
PotEng   =     -4025.7467 E_bond   =         0.4029 E_angle  =         4.7562 
E_dihed  =         0.4395 E_impro  =         0.0000 E_vdwl   =       804.6748 
E_coul   =     14678.6084 E_long   =    -19514.6285 Press    =       694.4564 
Volume   =     10898.2362 
SHAKE stats (type/ave/delta) on step 2370000
  2 1.08999 8.77792e-07
  4 0.94499 0
  5 0.99999 3.47679e-06
  6 109.47 0.000391494
---------------- Step  2370000 ----- CPU =   7899.7567 (sec) ----------------
TotEng   =     -3349.6036 KinEng   =       650.2645 Temp     =       300.2068 
PotEng   =     -3999.8680 E_bond   =         0.8405 E_angle  =         3.0076 
E_dihed  =         0.4050 E_impro  =         0.0000 E_vdwl   =       790.9808 
E_coul   =     14717.8903 E_long   =    -19512.9922 Press    =       482.7137 
Volume   =     11036.1177 
SHAKE stats (type/ave/delta) on step 2375000
  2 1.0899 1.50355e-06
  4 0.944909 0
  5 0.999905 3.76658e-06
  6 109.47 0.000383507
---------------- Step  2375000 ----- CPU =   7916.3794 (sec) ----------------
TotEng   =     -3323.4039 KinEng   =       659.7949 Temp     =       304.6067 
PotEng   =     -3983.1988 E_bond   =         0.7935 E_angle  =         3.4385 
E_dihed  =         0.1116 E_impro  =         0.0000 E_vdwl   =       766.9427 
E_coul   =     14756.5138 E_long   =    -19510.9989 Press    =       232.2734 
Volume   =     11078.9119 
SHAKE stats (type/ave/delta) on step 2380000
  2 1.08992 7.64164e-07
  4 0.944928 0
  5 0.999925 5.78322e-06
  6 109.47 0.000703636
---------------- Step  2380000 ----- CPU =   7932.0120 (sec) ----------------
TotEng   =     -3388.8570 KinEng   =       631.5964 Temp     =       291.5883 
PotEng   =     -4020.4534 E_bond   =         0.1151 E_angle  =         7.2266 
E_dihed  =         0.2337 E_impro  =         0.0000 E_vdwl   =       810.2263 
E_coul   =     14673.2970 E_long   =    -19511.5521 Press    =       571.1572 
Volume   =     10921.6045 
SHAKE stats (type/ave/delta) on step 2385000
  2 1.09002 6.24492e-07
  4 0.945016 0
  5 1.00002 4.97756e-06
  6 109.47 0.000448533
---------------- Step  2385000 ----- CPU =   7947.6527 (sec) ----------------
TotEng   =     -3380.3285 KinEng   =       629.1012 Temp     =       290.4363 
PotEng   =     -4009.4297 E_bond   =         0.2561 E_angle  =         5.9776 
E_dihed  =         0.9036 E_impro  =         0.0000 E_vdwl   =       781.4969 
E_coul   =     14716.1986 E_long   =    -19514.2625 Press    =        82.4451 
Volume   =     10929.3402 
SHAKE stats (type/ave/delta) on step 2390000
  2 1.09003 2.14587e-06
  4 0.945026 0
  5 1.00003 8.09459e-06
  6 109.47 0.000694253
---------------- Step  2390000 ----- CPU =   7963.5464 (sec) ----------------
TotEng   =     -3316.0124 KinEng   =       672.8948 Temp     =       310.6545 
PotEng   =     -3988.9072 E_bond   =         0.1803 E_angle  =         5.4365 
E_dihed  =         0.2854 E_impro  =         0.0000 E_vdwl   =       831.9342 
E_coul   =     14687.6139 E_long   =    -19514.3574 Press    =      1164.0252 
Volume   =     11064.3018 
SHAKE stats (type/ave/delta) on step 2395000
  2 1.0899 2.21582e-07
  4 0.944916 0
  5 0.999912 4.3312e-06
  6 109.47 0.000350865
---------------- Step  2395000 ----- CPU =   7979.0299 (sec) ----------------
TotEng   =     -3372.4318 KinEng   =       632.2362 Temp     =       291.8837 
PotEng   =     -4004.6680 E_bond   =         0.3651 E_angle  =         3.2349 
E_dihed  =         1.1200 E_impro  =         0.0000 E_vdwl   =       749.5128 
E_coul   =     14751.6928 E_long   =    -19510.5937 Press    =      -859.8524 
Volume   =     11286.3160 
SHAKE stats (type/ave/delta) on step 2400000
  2 1.09006 1.63263e-06
  4 0.945049 0
  5 1.00005 6.99652e-06
  6 109.47 0.000551527
---------------- Step  2400000 ----- CPU =   7994.8126 (sec) ----------------
TotEng   =     -3432.7804 KinEng   =       614.3235 Temp     =       283.6139 
PotEng   =     -4047.1039 E_bond   =         2.3070 E_angle  =         2.1689 
E_dihed  =         0.4588 E_impro  =         0.0000 E_vdwl   =       737.9489 
E_coul   =     14721.4518 E_long   =    -19511.4393 Press    =      -725.3280 
Volume   =     10965.0593 
SHAKE stats (type/ave/delta) on step 2405000
  2 1.08992 1.67244e-06
  4 0.944934 0
  5 0.999932 1.04096e-05
  6 109.47 0.000904696
---------------- Step  2405000 ----- CPU =   8012.1206 (sec) ----------------
TotEng   =     -3348.6223 KinEng   =       656.9904 Temp     =       303.3119 
PotEng   =     -4005.6127 E_bond   =         0.4604 E_angle  =         4.8098 
E_dihed  =         0.4553 E_impro  =         0.0000 E_vdwl   =       749.7900 
E_coul   =     14751.6442 E_long   =    -19512.7725 Press    =      -333.2014 
Volume   =     10917.7040 
SHAKE stats (type/ave/delta) on step 2410000
  2 1.08993 1.49739e-06
  4 0.944937 0
  5 0.999934 5.9177e-06
  6 109.47 0.00045783
---------------- Step  2410000 ----- CPU =   8029.5753 (sec) ----------------
TotEng   =     -3362.4090 KinEng   =       667.8057 Temp     =       308.3050 
PotEng   =     -4030.2147 E_bond   =         1.1105 E_angle  =         5.5827 
E_dihed  =         0.2283 E_impro  =         0.0000 E_vdwl   =       747.5708 
E_coul   =     14729.0757 E_long   =    -19513.7828 Press    =      -270.8462 
Volume   =     10827.0818 
SHAKE stats (type/ave/delta) on step 2415000
  2 1.0901 1.60651e-06
  4 0.945091 0
  5 1.0001 1.18409e-05
  6 109.47 0.000792685
---------------- Step  2415000 ----- CPU =   8046.7380 (sec) ----------------
TotEng   =     -3345.8306 KinEng   =       667.5893 Temp     =       308.2051 
PotEng   =     -4013.4199 E_bond   =         1.1733 E_angle  =         4.3072 
E_dihed  =         0.1475 E_impro  =         0.0000 E_vdwl   =       741.0729 
E_coul   =     14752.0192 E_long   =    -19512.1400 Press    =      -567.9530 
Volume   =     10976.2561 
SHAKE stats (type/ave/delta) on step 2420000
  2 1.09007 2.63366e-07
  4 0.945064 0
  5 1.00007 5.40119e-06
  6 109.47 0.000357236
---------------- Step  2420000 ----- CPU =   8064.4434 (sec) ----------------
TotEng   =     -3362.1797 KinEng   =       645.6956 Temp     =       298.0975 
PotEng   =     -4007.8754 E_bond   =         0.0501 E_angle  =         3.5793 
E_dihed  =         0.4507 E_impro  =         0.0000 E_vdwl   =       805.0945 
E_coul   =     14694.7537 E_long   =    -19511.8037 Press    =       688.3778 
Volume   =     10908.3348 
SHAKE stats (type/ave/delta) on step 2425000
  2 1.09012 9.79231e-08
  4 0.945108 0
  5 1.00012 3.3352e-06
  6 109.47 0.000368694
---------------- Step  2425000 ----- CPU =   8081.4098 (sec) ----------------
TotEng   =     -3366.4605 KinEng   =       635.8621 Temp     =       293.5577 
PotEng   =     -4002.3227 E_bond   =         0.1061 E_angle  =         3.5977 
E_dihed  =         1.1273 E_impro  =         0.0000 E_vdwl   =       786.6073 
E_coul   =     14717.1627 E_long   =    -19510.9237 Press    =       284.1108 
Volume   =     10882.1481 
SHAKE stats (type/ave/delta) on step 2430000
  2 1.09004 1.93926e-06
  4 0.945036 0
  5 1.00004 6.08662e-06
  6 109.47 0.000510297
---------------- Step  2430000 ----- CPU =   8098.8708 (sec) ----------------
TotEng   =     -3366.6830 KinEng   =       621.4523 Temp     =       286.9051 
PotEng   =     -3988.1353 E_bond   =         2.0405 E_angle  =         2.6133 
E_dihed  =         0.5686 E_impro  =         0.0000 E_vdwl   =       760.9360 
E_coul   =     14757.5671 E_long   =    -19511.8608 Press    =      -351.7155 
Volume   =     10953.7842 
SHAKE stats (type/ave/delta) on step 2435000
  2 1.08995 2.68157e-06
  4 0.944958 0
  5 0.999957 6.91952e-06
  6 109.47 0.000832026
---------------- Step  2435000 ----- CPU =   8116.4313 (sec) ----------------
TotEng   =     -3362.9025 KinEng   =       655.6318 Temp     =       302.6847 
PotEng   =     -4018.5342 E_bond   =         0.3322 E_angle  =         4.5969 
E_dihed  =         1.8394 E_impro  =         0.0000 E_vdwl   =       793.6436 
E_coul   =     14694.0334 E_long   =    -19512.9797 Press    =       285.5034 
Volume   =     10989.7902 
SHAKE stats (type/ave/delta) on step 2440000
  2 1.08999 1.2868e-06
  4 0.944989 0
  5 0.999989 8.02105e-06
  6 109.47 0.000782924
---------------- Step  2440000 ----- CPU =   8133.8384 (sec) ----------------
TotEng   =     -3319.8497 KinEng   =       678.0402 Temp     =       313.0299 
PotEng   =     -3997.8899 E_bond   =         0.1328 E_angle  =         3.1599 
E_dihed  =         0.5884 E_impro  =         0.0000 E_vdwl   =       791.6143 
E_coul   =     14718.5283 E_long   =    -19511.9135 Press    =       -17.8912 
Volume   =     11245.9545 
SHAKE stats (type/ave/delta) on step 2445000
  2 1.09001 1.14245e-07
  4 0.945009 0
  5 1.00001 3.90532e-06
  6 109.47 0.00036211
---------------- Step  2445000 ----- CPU =   8151.6069 (sec) ----------------
TotEng   =     -3390.1568 KinEng   =       661.4850 Temp     =       305.3869 
PotEng   =     -4051.6418 E_bond   =         1.0695 E_angle  =         2.2572 
E_dihed  =         0.9502 E_impro  =         0.0000 E_vdwl   =       779.1705 
E_coul   =     14676.5827 E_long   =    -19511.6720 Press    =      -311.6090 
Volume   =     10892.4263 
SHAKE stats (type/ave/delta) on step 2450000
  2 1.09005 1.09593e-06
  4 0.945045 0
  5 1.00005 5.78459e-06
  6 109.47 0.00044433
---------------- Step  2450000 ----- CPU =   8169.1524 (sec) ----------------
TotEng   =     -3396.7302 KinEng   =       597.1958 Temp     =       275.7066 
PotEng   =     -3993.9260 E_bond   =         0.2908 E_angle  =         4.3531 
E_dihed  =         0.9276 E_impro  =         0.0000 E_vdwl   =       738.7807 
E_coul   =     14773.6416 E_long   =    -19511.9198 Press    =      -563.0310 
Volume   =     11016.0470 
SHAKE stats (type/ave/delta) on step 2455000
  2 1.09004 4.00279e-06
  4 0.945033 0
  5 1.00003 9.21636e-06
  6 109.47 0.00104712
---------------- Step  2455000 ----- CPU =   8185.8981 (sec) ----------------
TotEng   =     -3376.4176 KinEng   =       638.2912 Temp     =       294.6791 
PotEng   =     -4014.7088 E_bond   =         0.5810 E_angle  =         2.8848 
E_dihed  =         1.4788 E_impro  =         0.0000 E_vdwl   =       800.1760 
E_coul   =     14691.3438 E_long   =    -19511.1732 Press    =       316.9603 
Volume   =     11124.1550 
SHAKE stats (type/ave/delta) on step 2460000
  2 1.09008 1.94579e-06
  4 0.945069 0
  5 1.00007 9.13087e-06
  6 109.47 0.000666893
---------------- Step  2460000 ----- CPU =   8203.0807 (sec) ----------------
TotEng   =     -3370.9639 KinEng   =       637.6678 Temp     =       294.3913 
PotEng   =     -4008.6316 E_bond   =         0.2638 E_angle  =         3.3350 
E_dihed  =         0.3125 E_impro  =         0.0000 E_vdwl   =       774.3136 
E_coul   =     14725.1035 E_long   =    -19511.9600 Press    =       117.6711 
Volume   =     11059.8670 
SHAKE stats (type/ave/delta) on step 2465000
  2 1.08991 1.95549e-06
  4 0.944925 0
  5 0.999922 1.02331e-05
  6 109.47 0.00132836
---------------- Step  2465000 ----- CPU =   8220.3414 (sec) ----------------
TotEng   =     -3366.8485 KinEng   =       647.0079 Temp     =       298.7033 
PotEng   =     -4013.8564 E_bond   =         1.1491 E_angle  =         4.0375 
E_dihed  =         1.3499 E_impro  =         0.0000 E_vdwl   =       801.2999 
E_coul   =     14690.4133 E_long   =    -19512.1062 Press    =       614.5505 
Volume   =     10728.2922 
SHAKE stats (type/ave/delta) on step 2470000
  2 1.08995 1.44445e-06
  4 0.944952 0
  5 0.99995 7.35068e-06
  6 109.47 0.000682224
---------------- Step  2470000 ----- CPU =   8237.5431 (sec) ----------------
TotEng   =     -3375.8772 KinEng   =       623.0154 Temp     =       287.6267 
PotEng   =     -3998.8926 E_bond   =         0.2181 E_angle  =         2.7979 
E_dihed  =         0.7096 E_impro  =         0.0000 E_vdwl   =       731.9710 
E_coul   =     14777.9898 E_long   =    -19512.5788 Press    =      -566.8376 
Volume   =     10738.6902 
SHAKE stats (type/ave/delta) on step 2475000
  2 1.08989 3.74968e-07
  4 0.944909 0
  5 0.999904 4.47089e-06
  6 109.47 0.000383876
---------------- Step  2475000 ----- CPU =   8254.7608 (sec) ----------------
TotEng   =     -3292.9305 KinEng   =       684.7539 Temp     =       316.1295 
PotEng   =     -3977.6843 E_bond   =         0.0105 E_angle  =         6.7287 
E_dihed  =         1.3178 E_impro  =         0.0000 E_vdwl   =       780.7382 
E_coul   =     14747.1056 E_long   =    -19513.5851 Press    =       727.4152 
Volume   =     10784.7593 
SHAKE stats (type/ave/delta) on step 2480000
  2 1.08998 3.73106e-07
  4 0.944986 0
  5 0.999986 4.70214e-06
  6 109.47 0.000383575
---------------- Step  2480000 ----- CPU =   8271.4931 (sec) ----------------
TotEng   =     -3350.4274 KinEng   =       652.5035 Temp     =       301.2405 
PotEng   =     -4002.9309 E_bond   =         1.9015 E_angle  =         3.0163 
E_dihed  =         0.2524 E_impro  =         0.0000 E_vdwl   =       767.5293 
E_coul   =     14738.9808 E_long   =    -19514.6112 Press    =      -395.6791 
Volume   =     11248.6992 
SHAKE stats (type/ave/delta) on step 2485000
  2 1.09004 3.71562e-06
  4 0.945038 0
  5 1.00004 1.23622e-05
  6 109.47 0.00105067
---------------- Step  2485000 ----- CPU =   8288.8911 (sec) ----------------
TotEng   =     -3380.5684 KinEng   =       649.2651 Temp     =       299.7454 
PotEng   =     -4029.8335 E_bond   =         0.0238 E_angle  =         8.2512 
E_dihed  =         0.3770 E_impro  =         0.0000 E_vdwl   =       782.0012 
E_coul   =     14689.0086 E_long   =    -19509.4954 Press    =       408.8764 
Volume   =     10606.7760 
SHAKE stats (type/ave/delta) on step 2490000
  2 1.09003 1.64952e-06
  4 0.94503 0
  5 1.00003 4.7441e-06
  6 109.47 0.000412265
---------------- Step  2490000 ----- CPU =   8305.8742 (sec) ----------------
TotEng   =     -3341.5162 KinEng   =       635.5155 Temp     =       293.3976 
PotEng   =     -3977.0317 E_bond   =         1.2544 E_angle  =         2.9422 
E_dihed  =         0.8958 E_impro  =         0.0000 E_vdwl   =       731.7283 
E_coul   =     14798.2964 E_long   =    -19512.1489 Press    =      -576.9018 
Volume   =     11011.1773 
SHAKE stats (type/ave/delta) on step 2495000
  2 1.09002 4.36315e-07
  4 0.945014 0
  5 1.00002 3.59312e-06
  6 109.47 0.000376437
---------------- Step  2495000 ----- CPU =   8322.8568 (sec) ----------------
TotEng   =     -3334.9487 KinEng   =       628.4278 Temp     =       290.1255 
PotEng   =     -3963.3764 E_bond   =         0.2841 E_angle  =         7.7271 
E_dihed  =         0.8288 E_impro  =         0.0000 E_vdwl   =       769.7780 
E_coul   =     14768.5726 E_long   =    -19510.5671 Press    =      -260.7552 
Volume   =     11198.0001 
SHAKE stats (type/ave/delta) on step 2500000
  2 1.09009 2.55328e-07
  4 0.945075 0
  5 1.00008 3.89337e-06
  6 109.47 0.000390604
---------------- Step  2500000 ----- CPU =   8340.5058 (sec) ----------------
TotEng   =     -3343.5390 KinEng   =       654.0969 Temp     =       301.9761 
PotEng   =     -3997.6359 E_bond   =         0.6641 E_angle  =         2.7762 
E_dihed  =         0.4874 E_impro  =         0.0000 E_vdwl   =       740.9643 
E_coul   =     14767.2750 E_long   =    -19509.8030 Press    =      -367.9831 
Volume   =     10840.7313 
Loop time of 8340.51 on 6 procs for 2500000 steps with 1090 atoms

Pair  time (%) = 4677.52 (56.0819)
Bond  time (%) = 14.0326 (0.168246)
Kspce time (%) = 1299.2 (15.577)
Neigh time (%) = 691.098 (8.28605)
Comm  time (%) = 611.306 (7.32937)
Outpt time (%) = 0.108031 (0.00129526)
Other time (%) = 1047.24 (12.5561)

Nlocal:    181.667 ave 196 max 170 min
Histogram: 1 1 1 0 0 1 1 0 0 1
Nghost:    4924.67 ave 4990 max 4854 min
Histogram: 1 1 0 0 0 1 1 1 0 1
Neighs:    66098.7 ave 70380 max 62265 min
Histogram: 1 0 1 1 1 0 0 0 1 1

Total # of neighbors = 396592
Ave neighs/atom = 363.846
Ave special neighs/atom = 2.05872
Neighbor list builds = 206217
Dangerous builds = 32815

write_restart restart.*.lmp
PPPM initialization ...
  G vector (1/distance) = 0.26783
  grid = 12 12 12
  stencil order = 5
  estimated absolute RMS force accuracy = 0.0257669
  estimated relative force accuracy = 7.75963e-05
  using double precision FFTs
  3d grid and FFT values/proc = 2717 288
write_data data.*.lmp
PPPM initialization ...
  G vector (1/distance) = 0.26783
  grid = 12 12 12
  stencil order = 5
  estimated absolute RMS force accuracy = 0.0257669
  estimated relative force accuracy = 7.75963e-05
  using double precision FFTs
  3d grid and FFT values/proc = 2717 288
