<PP_INFO>
Generated using ld1 code
Author: P. Giannozzi   Generation date: 2001
Info: Hydrogen BLYP 1s1 local VonBarth-Car
    0        The Pseudo was generated with a Non-Relativistic Calculation
  0.00000000000E+00    Local Potential cutoff radius
nl pn  l   occ               Rcut            Rcut US             E pseu
1S  0  0  1.00      0.94000000000      0.00000000000      0.00000000000
</PP_INFO>


<PP_HEADER>
   0                   Version Number
   H                   Element
   NC                  Norm - Conserving pseudopotential
    F                  Nonlinear Core Correction
 SLA  LYP  B88  BLYP   BLYP Exchange-Correlation functional
    1.00000000000      Z valence
    0.00000000000      Total energy
  60.000000  240.00000 Suggested cutoff for wfc and rho
   -1                  Max angular momentum component
  243                  Number of points in mesh
    1    0             Number of Wavefunctions, Number of Projectors
 Wavefunctions         nl  l   occ
                       1S  0  1.00
</PP_HEADER>


<PP_MESH>
  <PP_R>
  3.35462627903E-04  3.52662164628E-04  3.70743540459E-04  3.89751968253E-04
  4.09734978980E-04  4.30742540576E-04  4.52827182887E-04  4.76044129022E-04
  5.00451433441E-04  5.26110127116E-04  5.53084370148E-04  5.81441612194E-04
  6.11252761130E-04  6.42592360356E-04  6.75538775194E-04  7.10174388843E-04
  7.46585808377E-04  7.84864081311E-04  8.25104923266E-04  8.67408957307E-04
  9.11881965555E-04  9.58635153694E-04  1.00778542905E-03  1.05945569291E-03
  1.11377514784E-03  1.17087962079E-03  1.23091190267E-03  1.29402210547E-03
  1.36036803755E-03  1.43011559831E-03  1.50343919298E-03  1.58052216874E-03
  1.66155727317E-03  1.74674713626E-03  1.83630477703E-03  1.93045413623E-03
  2.02943063630E-03  2.13348177004E-03  2.24286771949E-03  2.35786200649E-03
  2.47875217667E-03  2.60584051841E-03  2.73944481877E-03  2.87989915809E-03
  3.02755474538E-03  3.18278079651E-03  3.34596545747E-03  3.51751677491E-03
  3.69786371648E-03  3.88745724348E-03  4.08677143846E-03  4.29630469075E-03
  4.51658094261E-03  4.74815099941E-03  4.99159390691E-03  5.24751839918E-03
  5.51656442076E-03  5.79940472684E-03  6.09674656552E-03  6.40933344626E-03
  6.73794699909E-03  7.08340892905E-03  7.44658307092E-03  7.82837754923E-03
  8.22974704902E-03  8.65169520312E-03  9.09527710170E-03  9.56160193054E-03
  1.00518357446E-02  1.05672043839E-02  1.11089965382E-02  1.16785669704E-02
  1.22773399031E-02  1.29068125805E-02  1.35685590122E-02  1.42642339090E-02
  1.49955768205E-02  1.57644164849E-02  1.65726754018E-02  1.74223746395E-02
  1.83156388887E-02  1.92547017754E-02  2.02419114458E-02  2.12797364384E-02
  2.23707718562E-02  2.35177458560E-02  2.47235264703E-02  2.59911287788E-02
  2.73237224473E-02  2.87246396542E-02  3.01973834223E-02  3.17456363781E-02
  3.33732699603E-02  3.50843541008E-02  3.68831674012E-02  3.87742078317E-02
  4.07622039784E-02  4.28521268670E-02  4.50492023936E-02  4.73589243911E-02
  4.97870683679E-02  5.23397059484E-02  5.50232200564E-02  5.78443208748E-02
  6.08100626252E-02  6.39278612067E-02  6.72055127397E-02  7.06512130604E-02
  7.42735782143E-02  7.80816660012E-02  8.20849986239E-02  8.62935864994E-02
  9.07179532894E-02  9.53691622155E-02  1.00258843723E-01  1.05399224562E-01
  1.10803158362E-01  1.16484157773E-01  1.22456428253E-01  1.28734903588E-01
  1.35335283237E-01  1.42274071587E-01  1.49568619223E-01  1.57237166314E-01
  1.65298888222E-01  1.73773943450E-01  1.82683524053E-01  1.92049908621E-01
  2.01896517995E-01  2.12247973827E-01  2.23130160148E-01  2.34570288094E-01
  2.46596963942E-01  2.59240260646E-01  2.72531793034E-01  2.86504796860E-01
  3.01194211912E-01  3.16636769379E-01  3.32871083698E-01  3.49937749111E-01
  3.67879441171E-01  3.86741023455E-01  4.06569659741E-01  4.27414931949E-01
  4.49328964117E-01  4.72366552741E-01  4.96585303791E-01  5.22045776761E-01
  5.48811636094E-01  5.76949810380E-01  6.06530659713E-01  6.37628151622E-01
  6.70320046036E-01  7.04688089719E-01  7.40818220682E-01  7.78800783071E-01
  8.18730753078E-01  8.60707976425E-01  9.04837418036E-01  9.51229424501E-01
  1.00000000000E+00  1.05127109638E+00  1.10517091808E+00  1.16183424273E+00
  1.22140275816E+00  1.28402541669E+00  1.34985880758E+00  1.41906754859E+00
  1.49182469764E+00  1.56831218549E+00  1.64872127070E+00  1.73325301787E+00
  1.82211880039E+00  1.91554082901E+00  2.01375270747E+00  2.11700001661E+00
  2.22554092849E+00  2.33964685193E+00  2.45960311116E+00  2.58570965932E+00
  2.71828182846E+00  2.85765111806E+00  3.00416602395E+00  3.15819290969E+00
  3.32011692274E+00  3.49034295746E+00  3.66929666762E+00  3.85742553070E+00
  4.05519996684E+00  4.26311451517E+00  4.48168907034E+00  4.71147018259E+00
  4.95303242440E+00  5.20697982718E+00  5.47394739173E+00  5.75460267601E+00
  6.04964746441E+00  6.35981952260E+00  6.68589444228E+00  7.02868758059E+00
  7.38905609893E+00  7.76790110631E+00  8.16616991257E+00  8.58485839718E+00
  9.02501349943E+00  9.48773583636E+00  9.97418245481E+00  1.04855697247E+01
  1.10231763806E+01  1.15883467192E+01  1.21824939607E+01  1.28071037827E+01
  1.34637380350E+01  1.41540386454E+01  1.48797317249E+01  1.56426318842E+01
  1.64446467711E+01  1.72877818406E+01  1.81741453694E+01  1.91059537282E+01
  2.00855369232E+01  2.11153444225E+01  2.21979512814E+01  2.33360645809E+01
  2.45325301971E+01  2.57903399172E+01  2.71126389207E+01  2.85027336438E+01
  2.99641000474E+01  3.15003923087E+01  3.31154519587E+01  3.48133174876E+01
  3.65982344437E+01  3.84746660490E+01  4.04473043601E+01  4.25210820001E+01
  4.47011844933E+01  4.69930632316E+01  4.94024491055E+01  5.19353668348E+01
  5.45981500331E+01  5.73974570454E+01  6.03402875974E+01
  </PP_R>
  <PP_RAB>
  1.67731313951E-05  1.76331082314E-05  1.85371770230E-05  1.94875984126E-05
  2.04867489490E-05  2.15371270288E-05  2.26413591443E-05  2.38022064511E-05
  2.50225716720E-05  2.63055063558E-05  2.76542185074E-05  2.90720806097E-05
  3.05626380565E-05  3.21296180178E-05  3.37769387597E-05  3.55087194421E-05
  3.73292904188E-05  3.92432040655E-05  4.12552461633E-05  4.33704478654E-05
  4.55940982777E-05  4.79317576847E-05  5.03892714524E-05  5.29727846454E-05
  5.56887573922E-05  5.85439810396E-05  6.15455951337E-05  6.47011052733E-05
  6.80184018774E-05  7.15057799154E-05  7.51719596489E-05  7.90261084368E-05
  8.30778636587E-05  8.73373568131E-05  9.18152388514E-05  9.65227068114E-05
  1.01471531815E-04  1.06674088502E-04  1.12143385974E-04  1.17893100325E-04
  1.23937608833E-04  1.30292025920E-04  1.36972240938E-04  1.43994957904E-04
  1.51377737269E-04  1.59139039825E-04  1.67298272874E-04  1.75875838746E-04
  1.84893185824E-04  1.94372862174E-04  2.04338571923E-04  2.14815234538E-04
  2.25829047131E-04  2.37407549971E-04  2.49579695346E-04  2.62375919959E-04
  2.75828221038E-04  2.89970236342E-04  3.04837328276E-04  3.20466672313E-04
  3.36897349954E-04  3.54170446453E-04  3.72329153546E-04  3.91418877461E-04
  4.11487352451E-04  4.32584760156E-04  4.54763855085E-04  4.78080096527E-04
  5.02591787232E-04  5.28360219193E-04  5.55449826912E-04  5.83928348520E-04
  6.13866995153E-04  6.45340629024E-04  6.78427950610E-04  7.13211695450E-04
  7.49778841024E-04  7.88220824243E-04  8.28633770088E-04  8.71118731975E-04
  9.15781944437E-04  9.62735088769E-04  1.01209557229E-03  1.06398682192E-03
  1.11853859281E-03  1.17588729280E-03  1.23617632352E-03  1.29955643894E-03
  1.36618612236E-03  1.43623198271E-03  1.50986917112E-03  1.58728181890E-03
  1.66866349802E-03  1.75421770504E-03  1.84415837006E-03  1.93871039159E-03
  2.03811019892E-03  2.14260634335E-03  2.25246011968E-03  2.36794621956E-03
  2.48935341839E-03  2.61698529742E-03  2.75116100282E-03  2.89221604374E-03
  3.04050313126E-03  3.19639306034E-03  3.36027563699E-03  3.53256065302E-03
  3.71367891072E-03  3.90408330006E-03  4.10424993119E-03  4.31467932497E-03
  4.53589766447E-03  4.76845811078E-03  5.01294218614E-03  5.26996122809E-03
  5.54015791812E-03  5.82420788867E-03  6.12282141265E-03  6.43674517939E-03
  6.76676416183E-03  7.11370357933E-03  7.47843096113E-03  7.86185831568E-03
  8.26494441108E-03  8.68869717252E-03  9.13417620264E-03  9.60249543104E-03
  1.00948258997E-02  1.06123986913E-02  1.11565080074E-02  1.17285144047E-02
  1.23298481971E-02  1.29620130323E-02  1.36265896517E-02  1.43252398430E-02
  1.50597105956E-02  1.58318384690E-02  1.66435541849E-02  1.74968874556E-02
  1.83939720586E-02  1.93370511727E-02  2.03284829870E-02  2.13707465974E-02
  2.24664482059E-02  2.36183276371E-02  2.48292651896E-02  2.61022888381E-02
  2.74405818047E-02  2.88474905190E-02  3.03265329856E-02  3.18814075811E-02
  3.35160023018E-02  3.52344044859E-02  3.70409110341E-02  3.89400391536E-02
  4.09365376539E-02  4.30353988213E-02  4.52418709018E-02  4.75614712250E-02
  5.00000000000E-02  5.25635548188E-02  5.52585459038E-02  5.80917121364E-02
  6.10701379080E-02  6.42012708344E-02  6.74929403788E-02  7.09533774297E-02
  7.45912348821E-02  7.84156092745E-02  8.24360635350E-02  8.66626508934E-02
  9.11059400195E-02  9.57770414507E-02  1.00687635374E-01  1.05850000831E-01
  1.11277046425E-01  1.16982342596E-01  1.22980155558E-01  1.29285482966E-01
  1.35914091423E-01  1.42882555903E-01  1.50208301197E-01  1.57909645484E-01
  1.66005846137E-01  1.74517147873E-01  1.83464833381E-01  1.92871276535E-01
  2.02759998342E-01  2.13155725758E-01  2.24084453517E-01  2.35573509130E-01
  2.47651621220E-01  2.60348991359E-01  2.73697369586E-01  2.87730133800E-01
  3.02482373221E-01  3.17990976130E-01  3.34294722114E-01  3.51434379029E-01
  3.69452804947E-01  3.88395055315E-01  4.08308495628E-01  4.29242919859E-01
  4.51250674972E-01  4.74386791818E-01  4.98709122741E-01  5.24278486236E-01
  5.51158819032E-01  5.79417335961E-01  6.09124698035E-01  6.40355189133E-01
  6.73186901750E-01  7.07701932269E-01  7.43986586244E-01  7.82131594209E-01
  8.22232338555E-01  8.64389092028E-01  9.08707268472E-01  9.55297686412E-01
  1.00427684616E+00  1.05576722113E+00  1.10989756407E+00  1.16680322905E+00
  1.22662650986E+00  1.28951699586E+00  1.35563194603E+00  1.42513668219E+00
  1.49820500237E+00  1.57501961544E+00  1.65577259793E+00  1.74066587438E+00
  1.82991172218E+00  1.92373330245E+00  2.02236521800E+00  2.12605410000E+00
  2.23505922467E+00  2.34965316158E+00  2.47012245528E+00  2.59676834174E+00
  2.72990750166E+00  2.86987285227E+00  3.01701437987E+00
  </PP_RAB>
</PP_MESH>


<PP_LOCAL>
 -1.29502203134E+01 -1.29502191540E+01 -1.29502178727E+01 -1.29502164567E+01
 -1.29502148918E+01 -1.29502131622E+01 -1.29502112508E+01 -1.29502091384E+01
 -1.29502068037E+01 -1.29502042236E+01 -1.29502013721E+01 -1.29501982207E+01
 -1.29501947378E+01 -1.29501908887E+01 -1.29501866347E+01 -1.29501819334E+01
 -1.29501767376E+01 -1.29501709954E+01 -1.29501646492E+01 -1.29501576357E+01
 -1.29501498845E+01 -1.29501413181E+01 -1.29501318509E+01 -1.29501213879E+01
 -1.29501098246E+01 -1.29500970451E+01 -1.29500829217E+01 -1.29500673128E+01
 -1.29500500625E+01 -1.29500309979E+01 -1.29500099284E+01 -1.29499866430E+01
 -1.29499609087E+01 -1.29499324680E+01 -1.29499010363E+01 -1.29498662990E+01
 -1.29498279085E+01 -1.29497854807E+01 -1.29497385909E+01 -1.29496867700E+01
 -1.29496294994E+01 -1.29495662060E+01 -1.29494962565E+01 -1.29494189510E+01
 -1.29493335160E+01 -1.29492390967E+01 -1.29491347485E+01 -1.29490194272E+01
 -1.29488919793E+01 -1.29487511298E+01 -1.29485954696E+01 -1.29484234417E+01
 -1.29482333253E+01 -1.29480232191E+01 -1.29477910217E+01 -1.29475344110E+01
 -1.29472508210E+01 -1.29469374163E+01 -1.29465910636E+01 -1.29462083006E+01
 -1.29457853015E+01 -1.29453178389E+01 -1.29448012419E+01 -1.29442303494E+01
 -1.29435994587E+01 -1.29429022696E+01 -1.29421318211E+01 -1.29412804225E+01
 -1.29403395779E+01 -1.29392999013E+01 -1.29381510245E+01 -1.29368814947E+01
 -1.29354786613E+01 -1.29339285522E+01 -1.29322157359E+01 -1.29303231712E+01
 -1.29282320397E+01 -1.29259215635E+01 -1.29233688023E+01 -1.29205484316E+01
 -1.29174324984E+01 -1.29139901518E+01 -1.29101873480E+01 -1.29059865258E+01
 -1.29013462505E+01 -1.28962208231E+01 -1.28905598531E+01 -1.28843077895E+01
 -1.28774034090E+01 -1.28697792567E+01 -1.28613610360E+01 -1.28520669445E+01
 -1.28418069516E+01 -1.28304820153E+01 -1.28179832337E+01 -1.28041909295E+01
 -1.27889736633E+01 -1.27721871753E+01 -1.27536732542E+01 -1.27332585320E+01
 -1.27107532094E+01 -1.26859497130E+01 -1.26586212928E+01 -1.26285205697E+01
 -1.25953780471E+01 -1.25589006051E+01 -1.25187700054E+01 -1.24746414371E+01
 -1.24261421477E+01 -1.23728702118E+01 -1.23143935030E+01 -1.22502489484E+01
 -1.21799421643E+01 -1.21029475868E+01 -1.20187092362E+01 -1.19266422720E+01
 -1.18261355238E+01 -1.17165552057E+01 -1.15972500440E+01 -1.14675580712E+01
 -1.13268153534E+01 -1.11743669232E+01 -1.10095801853E+01 -1.08318610348E+01
 -1.06406728738E+01 -1.04355586311E+01 -1.02161657559E+01 -9.98227398156E+00
 -9.73382541510E+00 -9.47095620703E+00 -9.19402868810E+00 -8.90366243534E+00
 -8.60076226420E+00 -8.28654067225E+00 -7.96253183308E+00 -7.63059393158E+00
 -7.29289653649E+00 -6.95188993629E+00 -6.61025403537E+00 -6.27082562065E+00
 -5.93650462203E+00 -5.61014237438E+00 -5.29441769454E+00 -4.99170950135E+00
 -4.70397725346E+00 -4.43266204327E+00 -4.17862111392E+00 -3.94210632955E+00
 -3.72279252780E+00 -3.51985506085E+00 -3.33208818303E+00 -3.15804885046E+00
 -2.99620580369E+00 -2.84507305211E+00 -2.70331069015E+00 -2.56978360766E+00
 -2.44357804619E+00 -2.32398434484E+00 -2.21045921728E+00 -2.10258145004E+00
 -2.00001168621E+00 -1.90246190773E+00 -1.80967553048E+00 -1.72141608753E+00
 -1.63746152810E+00 -1.55760156909E+00 -1.48163644168E+00 -1.40937617946E+00
 -1.34064009207E+00 -1.27525630324E+00 -1.21306131943E+00 -1.15389962076E+00
 -1.09762327219E+00 -1.04409155352E+00 -9.93170607583E-01 -9.44733105482E-01
 -8.98657928234E-01 -8.54829863897E-01 -8.13139319481E-01 -7.73482046909E-01
 -7.35758882343E-01 -6.99875498222E-01 -6.65742167396E-01 -6.33273538758E-01
 -6.02388423824E-01 -5.73009593720E-01 -5.45063586068E-01 -5.18480521292E-01
 -4.93193927883E-01 -4.69140576188E-01 -4.46260320297E-01 -4.24495947653E-01
 -4.03793035989E-01 -3.84099817242E-01 -3.65367048105E-01 -3.47547886901E-01
 -3.30597776443E-01 -3.14474332627E-01 -2.99137238445E-01 -2.84548143173E-01
 -2.70670566473E-01 -2.57469807176E-01 -2.44912856506E-01 -2.32968315547E-01
 -2.21606316725E-01 -2.10798449124E-01 -2.00517687446E-01 -1.90738324431E-01
 -1.81435906579E-01 -1.72587172999E-01 -1.64169997248E-01 -1.56163332002E-01
 -1.48547156429E-01 -1.41302426121E-01 -1.34411025479E-01 -1.27855722413E-01
 -1.21620125250E-01 -1.15688641750E-01 -1.10046440113E-01 -1.04679411897E-01
 -9.95741367357E-02 -9.47178487823E-02 -9.00984047871E-02 -8.57042537341E-02
 -8.15244079567E-02 -7.75484156634E-02 -7.37663348025E-02 -7.01687082017E-02
 -6.67465399207E-02 -6.34912727561E-02 -6.03947668446E-02 -5.74492793085E-02
 -5.46474448946E-02 -5.19822575575E-02 -4.94470529407E-02 -4.70354917120E-02
 -4.47415437123E-02 -4.25594728768E-02 -4.04838228916E-02 -3.85094035508E-02
 -3.66312777775E-02 -3.48447492790E-02 -3.31453508035E-02
</PP_LOCAL>


<PP_NONLOCAL>
  <PP_DIJ>
    0                  Number of nonzero Dij
  </PP_DIJ>
</PP_NONLOCAL>


<PP_PSWFC>
1S    0  1.00          Wavefunction
  5.54554020000E-04  5.82986610000E-04  6.12876970000E-04  6.44299850000E-04
  6.77333810000E-04  7.12061460000E-04  7.48569630000E-04  7.86949610000E-04
  8.27297370000E-04  8.69713790000E-04  9.14304950000E-04  9.61182330000E-04
  1.01046320000E-03  1.06227070000E-03  1.11673440000E-03  1.17399050000E-03
  1.23418220000E-03  1.29745990000E-03  1.36398200000E-03  1.43391470000E-03
  1.50743280000E-03  1.58472030000E-03  1.66597040000E-03  1.75138620000E-03
  1.84118130000E-03  1.93558020000E-03  2.03481900000E-03  2.13914570000E-03
  2.24882130000E-03  2.36412000000E-03  2.48533000000E-03  2.61275440000E-03
  2.74671180000E-03  2.88753710000E-03  3.03558240000E-03  3.19121790000E-03
  3.35483260000E-03  3.52683560000E-03  3.70765680000E-03  3.89774840000E-03
  4.09758560000E-03  4.30766780000E-03  4.52852040000E-03  4.76069520000E-03
  5.00477270000E-03  5.26136290000E-03  5.53110720000E-03  5.81467960000E-03
  6.11278900000E-03  6.42618010000E-03  6.75563630000E-03  7.10198060000E-03
  7.46607830000E-03  7.84883910000E-03  8.25121910000E-03  8.67422330000E-03
  9.11890810000E-03  9.58638400000E-03  1.00778180000E-02  1.05944370000E-02
  1.11375300000E-02  1.17084530000E-02  1.23086300000E-02  1.29395580000E-02
  1.36028100000E-02  1.43000400000E-02  1.50329850000E-02  1.58034710000E-02
  1.66134160000E-02  1.74648340000E-02  1.83598420000E-02  1.93006640000E-02
  2.02896380000E-02  2.13292180000E-02  2.24219830000E-02  2.35706420000E-02
  2.47780370000E-02  2.60471570000E-02  2.73811360000E-02  2.87832650000E-02
  3.02570000000E-02  3.18059660000E-02  3.34339680000E-02  3.51449950000E-02
  3.69432330000E-02  3.88330700000E-02  4.08191070000E-02  4.29061640000E-02
  4.50992910000E-02  4.74037740000E-02  4.98251500000E-02  5.23692080000E-02
  5.50420040000E-02  5.78498660000E-02  6.07994020000E-02  6.38975110000E-02
  6.71513850000E-02  7.05685200000E-02  7.41567160000E-02  7.79240860000E-02
  8.18790540000E-02  8.60303540000E-02  9.03870340000E-02  9.49584450000E-02
  9.97542330000E-02  1.04784330000E-01  1.10058930000E-01  1.15588490000E-01
  1.21383660000E-01  1.27455290000E-01  1.33814360000E-01  1.40471940000E-01
  1.47439120000E-01  1.54726970000E-01  1.62346390000E-01  1.70308080000E-01
  1.78622390000E-01  1.87299190000E-01  1.96347740000E-01  2.05776530000E-01
  2.15593070000E-01  2.25803740000E-01  2.36413530000E-01  2.47425830000E-01
  2.58842200000E-01  2.70662090000E-01  2.82882590000E-01  2.95498170000E-01
  3.08500430000E-01  3.21877850000E-01  3.35615580000E-01  3.49695240000E-01
  3.64094790000E-01  3.78788420000E-01  3.93746540000E-01  4.08935770000E-01
  4.24319060000E-01  4.39855800000E-01  4.55502060000E-01  4.71210790000E-01
  4.86932060000E-01  5.02613270000E-01  5.18199320000E-01  5.33632720000E-01
  5.48853520000E-01  5.63799290000E-01  5.78404820000E-01  5.92601880000E-01
  6.06318930000E-01  6.19480840000E-01  6.32008720000E-01  6.43819960000E-01
  6.54828480000E-01  6.64945200000E-01  6.74078810000E-01  6.82136710000E-01
  6.89026140000E-01  6.94655460000E-01  6.98935480000E-01  7.01780810000E-01
  7.03111300000E-01  7.02853460000E-01  7.00941860000E-01  6.97320630000E-01
  6.91944810000E-01  6.84781770000E-01  6.75812530000E-01  6.65032940000E-01
  6.52454780000E-01  6.38106700000E-01  6.22034860000E-01  6.04303390000E-01
  5.84994590000E-01  5.64208700000E-01  5.42063470000E-01  5.18693210000E-01
  4.94247610000E-01  4.68890120000E-01  4.42796010000E-01  4.16150140000E-01
  3.89144520000E-01  3.61975730000E-01  3.34842310000E-01  3.07942100000E-01
  2.81469790000E-01  2.55614490000E-01  2.30557360000E-01  2.06469160000E-01
  1.83507430000E-01  1.61813170000E-01  1.41506930000E-01  1.22684590000E-01
  1.05413500000E-01  8.97300400000E-02  7.56391480000E-02  6.31161190000E-02
  5.21099970000E-02  4.25477380000E-02  3.43384900000E-02  2.73777710000E-02
  2.15515520000E-02  1.67402560000E-02  1.28225850000E-02  9.67903910000E-03
  7.19499650000E-03  5.26324060000E-03  3.78586650000E-03  2.67554730000E-03
  1.85616920000E-03  1.26293100000E-03  8.41861070000E-04  5.49141780000E-04
  3.50161980000E-04  2.18064220000E-04  1.32477710000E-04  7.84146230000E-05
  4.51617100000E-05  2.52728030000E-05  1.37215790000E-05  7.21649280000E-06
  3.67023340000E-06  0.00000000000E+00  0.00000000000E+00  0.00000000000E+00
  0.00000000000E+00  0.00000000000E+00  0.00000000000E+00  0.00000000000E+00
  0.00000000000E+00  0.00000000000E+00  0.00000000000E+00  0.00000000000E+00
  0.00000000000E+00  0.00000000000E+00  0.00000000000E+00  0.00000000000E+00
  0.00000000000E+00  0.00000000000E+00  0.00000000000E+00  0.00000000000E+00
  0.00000000000E+00  0.00000000000E+00  0.00000000000E+00
</PP_PSWFC>


<PP_RHOATOM>
  3.07530161098E-07  3.39873387439E-07  3.75618180356E-07  4.15122296710E-07
  4.58781090169E-07  5.07031522817E-07  5.60356490958E-07  6.19289688679E-07
  6.84420938409E-07  7.56402076516E-07  8.35953541595E-07  9.23871471504E-07
  1.02103587855E-06  1.12841904008E-06  1.24709572014E-06  1.37825369409E-06
  1.52320570280E-06  1.68340219211E-06  1.86044689632E-06  2.05611136688E-06
  2.27235364652E-06  2.51133842923E-06  2.77545737368E-06  3.06735362155E-06
  3.38994857947E-06  3.74647071063E-06  4.14048836276E-06  4.57594432583E-06
  5.05719723933E-06  5.58906337440E-06  6.17686520890E-06  6.82648555472E-06
  7.54442571226E-06  8.33787050388E-06  9.21476050719E-06  1.01838716853E-05
  1.12549017740E-05  1.24385693494E-05  1.37467189466E-05  1.51924425897E-05
  1.67902077493E-05  1.85560018752E-05  2.05074970132E-05  2.26642187873E-05
  2.50477497787E-05  2.76819395655E-05  3.05931468579E-05  3.38104988507E-05
  3.73661893585E-05  4.12957906776E-05  4.56386218179E-05  5.04381284428E-05
  5.57423251817E-05  6.16042752177E-05  6.80826166362E-05  7.52421498583E-05
  8.31544849362E-05  9.18987581955E-05  1.01562415641E-04  1.12242095347E-04
  1.24044574501E-04  1.37087871653E-04  1.51502372477E-04  1.67432161235E-04
  1.85036439896E-04  2.04491144002E-04  2.25990638010E-04  2.49749695648E-04
  2.76005591189E-04  3.05020426648E-04  3.37083798265E-04  3.72515630841E-04
  4.11669410171E-04  4.54935540492E-04  5.02745321652E-04  5.55575164292E-04
  6.13951117573E-04  6.78454387783E-04  7.49726608650E-04  8.28476344060E-04
  9.15486049000E-04  1.01161947319E-03  1.11783021623E-03  1.23517067355E-03
  1.36480246449E-03  1.50800732562E-03  1.66619949628E-03  1.84093890919E-03
  2.03394604870E-03  2.24711778944E-03  2.48254557252E-03  2.74253394655E-03
  3.02962220434E-03  3.34660699622E-03  3.69656728356E-03  4.08289191200E-03
  4.50930850742E-03  4.97991601499E-03  5.49921852790E-03  6.07216317894E-03
  6.70417948393E-03  7.40122180937E-03  8.16981591532E-03  9.01710627682E-03
  9.95090700142E-03  1.09797558135E-02  1.21129680727E-02  1.33606990205E-02
  1.47339929150E-02  1.62448509490E-02  1.79062829422E-02  1.97323659274E-02
  2.17382941064E-02  2.39404352454E-02  2.63563503460E-02  2.90048421133E-02
  3.19059582093E-02  3.50809865747E-02  3.85524350031E-02  4.23439802988E-02
  4.64803718320E-02  5.09873289980E-02  5.58913571671E-02  6.12195413512E-02
  6.69992845008E-02  7.32579669632E-02  8.00225597251E-02  8.73191684733E-02
  9.51725153102E-02  1.03605350321E-01  1.12637817539E-01  1.22286760879E-01
  1.32565016105E-01  1.43480667126E-01  1.55036337762E-01  1.67228463985E-01
  1.80046664679E-01  1.93473124794E-01  2.07482126664E-01  2.22039608612E-01
  2.37102831056E-01  2.52620099180E-01  2.68530535248E-01  2.84763879855E-01
  3.01240186416E-01  3.17869639405E-01  3.34552135799E-01  3.51176988180E-01
  3.67622644876E-01  3.83756511127E-01  3.99435022156E-01  4.14504140894E-01
  4.28800338219E-01  4.42152119003E-01  4.54382242091E-01  4.65310491130E-01
  4.74757021603E-01  4.82546208108E-01  4.88510805203E-01  4.92496305284E-01
  4.94365500188E-01  4.94002986234E-01  4.91319491100E-01  4.86256061024E-01
  4.78787620086E-01  4.68926072524E-01  4.56722575705E-01  4.42268811285E-01
  4.25697239945E-01  4.07180160585E-01  3.86927367055E-01  3.65182587165E-01
  3.42218670329E-01  3.18331457156E-01  2.93832805508E-01  2.69042646100E-01
  2.44280699991E-01  2.19857944634E-01  1.96068306472E-01  1.73180939022E-01
  1.51433457446E-01  1.31026429109E-01  1.12119372566E-01  9.48283369524E-02
  7.92252426826E-02  6.53387674980E-02  5.31566962502E-02  4.26295140311E-02
  3.36749768652E-02  2.61835019854E-02  2.00242112380E-02  1.50515086235E-02
  1.11120059822E-02  8.05148007840E-03  5.72128071017E-03  3.98364447762E-03
  2.71545178734E-03  1.81031000892E-03  1.17913189548E-03  7.49542344928E-04
  4.64469393609E-04  2.80236170946E-04  1.64418686082E-04  9.36837978993E-05
  5.17679746350E-05  2.77017016135E-05  1.43327851558E-05  7.15855335454E-06
  3.44536409903E-06  1.59499471076E-06  7.08730061182E-07  3.01556694542E-07
  1.22613412238E-07  4.75520040442E-08  1.75503436468E-08  6.14885310023E-09
  2.03958005012E-09  6.38714571477E-10  1.88281730253E-10  5.20777683325E-11
  1.34706132105E-11  0.00000000000E+00  0.00000000000E+00  0.00000000000E+00
  0.00000000000E+00  0.00000000000E+00  0.00000000000E+00  0.00000000000E+00
  0.00000000000E+00  0.00000000000E+00  0.00000000000E+00  0.00000000000E+00
  0.00000000000E+00  0.00000000000E+00  0.00000000000E+00  0.00000000000E+00
  0.00000000000E+00  0.00000000000E+00  0.00000000000E+00  0.00000000000E+00
  0.00000000000E+00  0.00000000000E+00  0.00000000000E+00
</PP_RHOATOM>
