<PP_INFO>
Generated using ld1 code (trou)
Author: P. Giannozzi  Generation date: 2001
Info: Oxygen BLYP 2s2 2p4 l=1 local Martins-Troullier
    0        The Pseudo was generated with a Non-Relativistic Calculation
  0.00000000000E+00    Local Potential cutoff radius
nl pn  l   occ               Rcut            Rcut US             E pseu
2S  0  0  2.00      1.31000000000      0.00000000000      0.00000000000
2P  0  1  4.00      1.31000000000      0.00000000000      0.00000000000
</PP_INFO>


<PP_HEADER>
   0                   Version Number
   O                   Element
   NC                  Norm - Conserving pseudopotential
    F                  Nonlinear Core Correction
 SLA  LYP  B88  BLYP   BLYP Exchange-Correlation functional
    6.00000000000      Z valence
    0.00000000000      Total energy
  0.0000000  0.0000000 Suggested cutoff for wfc and rho
    0                  Max angular momentum component
  285                  Number of points in mesh
    2    1             Number of Wavefunctions, Number of Projectors
 Wavefunctions         nl  l   occ
                       2S  0  2.00
                       2P  1  4.00
</PP_HEADER>


<PP_MESH>
  <PP_R>
  4.19328284878E-05  4.40827705785E-05  4.63429425574E-05  4.87189960316E-05
  5.12168723725E-05  5.38428175720E-05  5.66033978608E-05  5.95055161278E-05
  6.25564291801E-05  6.57637658895E-05  6.91355462685E-05  7.26802015242E-05
  7.64065951412E-05  8.03240450444E-05  8.44423468992E-05  8.87717986053E-05
  9.33232260471E-05  9.81080101639E-05  1.03138115408E-04  1.08426119663E-04
  1.13985245694E-04  1.19829394212E-04  1.25973178631E-04  1.32431961613E-04
  1.39221893481E-04  1.46359952599E-04  1.53863987834E-04  1.61752763183E-04
  1.70046004693E-04  1.78764449788E-04  1.87929899122E-04  1.97565271092E-04
  2.07694659147E-04  2.18343392033E-04  2.29538097129E-04  2.41306767028E-04
  2.53678829537E-04  2.66685221255E-04  2.80358464936E-04  2.94732750811E-04
  3.09844022083E-04  3.25730064801E-04  3.42430602346E-04  3.59987394761E-04
  3.78444343172E-04  3.97847599564E-04  4.18245682184E-04  4.39689596864E-04
  4.62232964560E-04  4.85932155435E-04  5.10846429808E-04  5.37038086344E-04
  5.64572617827E-04  5.93518874926E-04  6.23949238364E-04  6.55939799898E-04
  6.89570552595E-04  7.24925590855E-04  7.62093320689E-04  8.01166680782E-04
  8.42243374886E-04  8.85426116132E-04  9.30822883866E-04  9.78547193653E-04
  1.02871838113E-03  1.08146190039E-03  1.13690963771E-03  1.19520024132E-03
  1.25647946808E-03  1.32090054798E-03  1.38862456728E-03  1.45982087130E-03
  1.53466748788E-03  1.61335157256E-03  1.69606987653E-03  1.78302923862E-03
  1.87444710256E-03  1.97055206061E-03  2.07158442522E-03  2.17779682994E-03
  2.28945486109E-03  2.40683772192E-03  2.53023893073E-03  2.65996705480E-03
  2.79634648202E-03  2.93971823200E-03  3.09044080879E-03  3.24889109734E-03
  3.41546530591E-03  3.59057995678E-03  3.77467292779E-03  3.96820454726E-03
  4.17165874504E-03  4.38554426261E-03  4.61039592516E-03  4.84677597897E-03
  5.09527549730E-03  5.35651585838E-03  5.63115029919E-03  5.91986554889E-03
  6.22338354598E-03  6.54246324355E-03  6.87790250705E-03  7.23054010935E-03
  7.60125782815E-03  7.99098265084E-03  8.40068909247E-03  8.83140163255E-03
  9.28419727679E-03  9.76020825014E-03  1.02606248280E-02  1.07866983124E-02
  1.13397441612E-02  1.19211452769E-02  1.25323554654E-02  1.31749030702E-02
  1.38503947953E-02  1.45605197217E-02  1.53070535316E-02  1.60918629485E-02
  1.69169104046E-02  1.77842589483E-02  1.86960774028E-02  1.96546457892E-02
  2.06623610277E-02  2.17217429313E-02  2.28354405066E-02  2.40062385776E-02
  2.52370647493E-02  2.65309967283E-02  2.78912700186E-02  2.93212860117E-02
  3.08246204927E-02  3.24050325807E-02  3.40664741293E-02  3.58130996075E-02
  3.76492764890E-02  3.95795961724E-02  4.16088854623E-02  4.37422186389E-02
  4.59849301464E-02  4.83426279318E-02  5.08212074676E-02  5.34268664936E-02
  5.61661205147E-02  5.90458190926E-02  6.20731629739E-02  6.52557220951E-02
  6.86014545118E-02  7.21187262976E-02  7.58163324641E-02  7.97035189527E-02
  8.37900057545E-02  8.80860112148E-02  9.26022775852E-02  9.73500978839E-02
  1.02341344135E-01  1.07588497053E-01  1.13104677254E-01  1.18903678063E-01
  1.25000000000E-01  1.31408887047E-01  1.38146364759E-01  1.45229280341E-01
  1.52675344770E-01  1.60503177086E-01  1.68732350947E-01  1.77383443574E-01
  1.86478087205E-01  1.96039023186E-01  2.06090158838E-01  2.16656627233E-01
  2.27764850049E-01  2.39442603627E-01  2.51719088434E-01  2.64625002077E-01
  2.78192616062E-01  2.92455856491E-01  3.07450388895E-01  3.23213707414E-01
  3.39785228557E-01  3.57206389758E-01  3.75520752993E-01  3.94774113711E-01
  4.15014615342E-01  4.36292869683E-01  4.58662083452E-01  4.82178191337E-01
  5.06899995856E-01  5.32889314396E-01  5.60211133792E-01  5.88933772824E-01
  6.19129053049E-01  6.50872478397E-01  6.84243423966E-01  7.19325334501E-01
  7.56205933052E-01  7.94977440325E-01  8.35736805285E-01  8.78585947574E-01
  9.23632012366E-01  9.70987638288E-01  1.02077123907E+00  1.07310729965E+00
  1.12812668743E+00  1.18596697954E+00  1.24677280685E+00  1.31069621559E+00
  1.37789704758E+00  1.44854333990E+00  1.52281174509E+00  1.60088797283E+00
  1.68296725438E+00  1.76925483067E+00  1.85996646561E+00  1.95532898552E+00
  2.05558084639E+00  2.16097273007E+00  2.27176817118E+00  2.38824421603E+00
  2.51069211540E+00  2.63941805282E+00  2.77474391018E+00  2.91700807262E+00
  3.06656627464E+00  3.22379248965E+00  3.38907986508E+00  3.56284170547E+00
  3.74551250592E+00  3.93754903859E+00  4.13943149484E+00  4.35166468595E+00
  4.57477930546E+00  4.80933325613E+00  5.05591304501E+00  5.31513525001E+00
  5.58764806166E+00  5.87413290395E+00  6.17530613819E+00  6.49192085435E+00
  6.82476875414E+00  7.17468213068E+00  7.54253594967E+00  7.92925003727E+00
  8.33579138012E+00  8.76317654334E+00  9.21247421245E+00  9.68480786566E+00
  1.01813585831E+01  1.07033680003E+01  1.12521414126E+01  1.18290510394E+01
  1.24355394552E+01  1.30731231971E+01  1.37433965565E+01  1.44480355659E+01
  1.51888021898E+01  1.59675487308E+01  1.67862224606E+01  1.76468704902E+01
  1.85516448878E+01  1.95028080608E+01  2.05027384125E+01  2.15539362896E+01
  2.26590302344E+01  2.38207835573E+01  2.50421012468E+01  2.63260372333E+01
  2.76758020255E+01  2.90947707385E+01  3.05864915330E+01  3.21546944882E+01
  3.38033009283E+01  3.55364332280E+01  3.73584251209E+01  3.92738325357E+01
  4.12874449887E+01  4.34042975598E+01  4.56296834832E+01  4.79691673826E+01
  5.04285991866E+01  5.30141287556E+01  5.57322212603E+01  5.85896733478E+01
  6.15936301367E+01
  </PP_R>
  <PP_RAB>
  2.09664142439E-06  2.20413852893E-06  2.31714712787E-06  2.43594980158E-06
  2.56084361862E-06  2.69214087860E-06  2.83016989304E-06  2.97527580639E-06
  3.12782145900E-06  3.28818829448E-06  3.45677731342E-06  3.63401007621E-06
  3.82032975706E-06  4.01620225222E-06  4.22211734496E-06  4.43858993027E-06
  4.66616130235E-06  4.90540050819E-06  5.15690577041E-06  5.42130598317E-06
  5.69926228472E-06  5.99146971059E-06  6.29865893155E-06  6.62159808067E-06
  6.96109467403E-06  7.31799762994E-06  7.69319939171E-06  8.08763815916E-06
  8.50230023467E-06  8.93822248942E-06  9.39649495611E-06  9.87826355460E-06
  1.03847329573E-05  1.09171696016E-05  1.14769048564E-05  1.20653383514E-05
  1.26839414768E-05  1.33342610627E-05  1.40179232468E-05  1.47366375406E-05
  1.54922011042E-05  1.62865032401E-05  1.71215301173E-05  1.79993697381E-05
  1.89222171586E-05  1.98923799782E-05  2.09122841092E-05  2.19844798432E-05
  2.31116482280E-05  2.42966077717E-05  2.55423214904E-05  2.68519043172E-05
  2.82286308913E-05  2.96759437463E-05  3.11974619182E-05  3.27969899949E-05
  3.44785276298E-05  3.62462795428E-05  3.81046660345E-05  4.00583340391E-05
  4.21121687443E-05  4.42713058066E-05  4.65411441933E-05  4.89273596827E-05
  5.14359190564E-05  5.40730950195E-05  5.68454818856E-05  5.97600120659E-05
  6.28239734040E-05  6.60450273991E-05  6.94312283640E-05  7.29910435650E-05
  7.67333743942E-05  8.06675786280E-05  8.48034938263E-05  8.91514619312E-05
  9.37223551280E-05  9.85276030303E-05  1.03579221261E-04  1.08889841497E-04
  1.14472743055E-04  1.20341886096E-04  1.26511946536E-04  1.32998352740E-04
  1.39817324101E-04  1.46985911600E-04  1.54522040440E-04  1.62444554867E-04
  1.70773265296E-04  1.79528997839E-04  1.88733646389E-04  1.98410227363E-04
  2.08582937252E-04  2.19277213130E-04  2.30519796258E-04  2.42338798948E-04
  2.54763774865E-04  2.67825792919E-04  2.81557514960E-04  2.95993277445E-04
  3.11169177299E-04  3.27123162178E-04  3.43895125353E-04  3.61527005468E-04
  3.80062891408E-04  3.99549132542E-04  4.20034454623E-04  4.41570081628E-04
  4.64209863840E-04  4.88010412507E-04  5.13031241399E-04  5.39334915621E-04
  5.66987208059E-04  5.96057263847E-04  6.26617773268E-04  6.58745153512E-04
  6.92519739765E-04  7.28025986084E-04  7.65352676581E-04  8.04593147424E-04
  8.45845520229E-04  8.89212947416E-04  9.34803870141E-04  9.82732289460E-04
  1.03311805138E-03  1.08608714657E-03  1.14177202533E-03  1.20031192888E-03
  1.26185323747E-03  1.32654983642E-03  1.39456350093E-03  1.46606430059E-03
  1.54123102464E-03  1.62025162904E-03  1.70332370646E-03  1.79065498038E-03
  1.88246382445E-03  1.97897980862E-03  2.08044427311E-03  2.18711093194E-03
  2.29924650732E-03  2.41713139659E-03  2.54106037338E-03  2.67134332468E-03
  2.80830602573E-03  2.95229095463E-03  3.10365814870E-03  3.26278610476E-03
  3.43007272559E-03  3.60593631488E-03  3.79081662320E-03  3.98517594764E-03
  4.18950028772E-03  4.40430056074E-03  4.63011387926E-03  4.86750489420E-03
  5.11706720674E-03  5.37942485266E-03  5.65523386272E-03  5.94518390313E-03
  6.25000000000E-03  6.57044435235E-03  6.90731823797E-03  7.26146401705E-03
  7.63376723850E-03  8.02515885430E-03  8.43661754735E-03  8.86917217871E-03
  9.32390436026E-03  9.80195115931E-03  1.03045079419E-02  1.08328313617E-02
  1.13882425024E-02  1.19721301813E-02  1.25859544217E-02  1.32312501038E-02
  1.39096308031E-02  1.46227928245E-02  1.53725194447E-02  1.61606853707E-02
  1.69892614279E-02  1.78603194879E-02  1.87760376497E-02  1.97387056856E-02
  2.07507307671E-02  2.18146434841E-02  2.29331041726E-02  2.41089095669E-02
  2.53449997928E-02  2.66444657198E-02  2.80105566896E-02  2.94466886412E-02
  3.09564526525E-02  3.25436239199E-02  3.42121711983E-02  3.59662667250E-02
  3.78102966526E-02  3.97488720163E-02  4.17868402642E-02  4.39292973787E-02
  4.61816006183E-02  4.85493819144E-02  5.10385619535E-02  5.36553649824E-02
  5.64063343715E-02  5.92983489772E-02  6.23386403426E-02  6.55348107795E-02
  6.88948523790E-02  7.24271669951E-02  7.61405872544E-02  8.00443986416E-02
  8.41483627188E-02  8.84627415336E-02  9.29983232805E-02  9.77664492762E-02
  1.02779042319E-01  1.08048636504E-01  1.13588408559E-01  1.19412210801E-01
  1.25534605770E-01  1.31970902641E-01  1.38737195509E-01  1.45850403631E-01
  1.53328313732E-01  1.61189624482E-01  1.69453993254E-01  1.78142085274E-01
  1.87275625296E-01  1.96877451930E-01  2.06971574742E-01  2.17583234298E-01
  2.28738965273E-01  2.40466662806E-01  2.52795652250E-01  2.65756762500E-01
  2.79382403083E-01  2.93706645197E-01  3.08765306910E-01  3.24596042718E-01
  3.41238437707E-01  3.58734106534E-01  3.77126797484E-01  3.96462501863E-01
  4.16789569006E-01  4.38158827167E-01  4.60623710622E-01  4.84240393283E-01
  5.09067929156E-01  5.35168400014E-01  5.62607070628E-01  5.91452551968E-01
  6.21776972762E-01  6.53656159857E-01  6.87169827826E-01  7.22401778295E-01
  7.59440109492E-01  7.98377436538E-01  8.39311123031E-01  8.82343524509E-01
  9.27582244391E-01  9.75140403040E-01  1.02513692062E+00  1.07769681448E+00
  1.13295151172E+00  1.19103917787E+00  1.25210506234E+00  1.31630186167E+00
  1.38379010128E+00  1.45473853692E+00  1.52932457665E+00  1.60773472441E+00
  1.69016504641E+00  1.77682166140E+00  1.86792125604E+00  1.96369162679E+00
  2.06437224944E+00  2.17021487799E+00  2.28148417416E+00  2.39845836913E+00
  2.52142995933E+00  2.65070643778E+00  2.78661106302E+00  2.92948366739E+00
  3.07968150683E+00
  </PP_RAB>
</PP_MESH>


<PP_LOCAL>
 -3.67588380000E+01 -3.67588370000E+01 -3.67588360000E+01 -3.67588350000E+01
 -3.67588340000E+01 -3.67588330000E+01 -3.67588330000E+01 -3.67588320000E+01
 -3.67588310000E+01 -3.67588290000E+01 -3.67588280000E+01 -3.67588270000E+01
 -3.67588260000E+01 -3.67588240000E+01 -3.67588220000E+01 -3.67588200000E+01
 -3.67588170000E+01 -3.67588150000E+01 -3.67588130000E+01 -3.67588100000E+01
 -3.67588060000E+01 -3.67588030000E+01 -3.67587980000E+01 -3.67587940000E+01
 -3.67587890000E+01 -3.67587830000E+01 -3.67587770000E+01 -3.67587700000E+01
 -3.67587630000E+01 -3.67587550000E+01 -3.67587460000E+01 -3.67587360000E+01
 -3.67587240000E+01 -3.67587120000E+01 -3.67586980000E+01 -3.67586830000E+01
 -3.67586670000E+01 -3.67586480000E+01 -3.67586280000E+01 -3.67586060000E+01
 -3.67585810000E+01 -3.67585540000E+01 -3.67585230000E+01 -3.67584900000E+01
 -3.67584530000E+01 -3.67584120000E+01 -3.67583670000E+01 -3.67583170000E+01
 -3.67582620000E+01 -3.67582010000E+01 -3.67581340000E+01 -3.67580600000E+01
 -3.67579770000E+01 -3.67578870000E+01 -3.67577860000E+01 -3.67576750000E+01
 -3.67575530000E+01 -3.67574180000E+01 -3.67572680000E+01 -3.67571030000E+01
 -3.67569200000E+01 -3.67567190000E+01 -3.67564960000E+01 -3.67562500000E+01
 -3.67559780000E+01 -3.67556780000E+01 -3.67553470000E+01 -3.67549810000E+01
 -3.67545760000E+01 -3.67541300000E+01 -3.67536370000E+01 -3.67530930000E+01
 -3.67524920000E+01 -3.67518290000E+01 -3.67510970000E+01 -3.67502900000E+01
 -3.67493990000E+01 -3.67484160000E+01 -3.67473320000E+01 -3.67461370000E+01
 -3.67448190000E+01 -3.67433670000E+01 -3.67417670000E+01 -3.67400050000E+01
 -3.67380640000E+01 -3.67359270000E+01 -3.67335770000E+01 -3.67309910000E+01
 -3.67281490000E+01 -3.67250250000E+01 -3.67215940000E+01 -3.67178290000E+01
 -3.67136980000E+01 -3.67091710000E+01 -3.67042100000E+01 -3.66987810000E+01
 -3.66928430000E+01 -3.66863540000E+01 -3.66792690000E+01 -3.66715420000E+01
 -3.66631220000E+01 -3.66539570000E+01 -3.66439930000E+01 -3.66331720000E+01
 -3.66214350000E+01 -3.66087200000E+01 -3.65949630000E+01 -3.65800980000E+01
 -3.65640580000E+01 -3.65467740000E+01 -3.65281740000E+01 -3.65081870000E+01
 -3.64867400000E+01 -3.64637600000E+01 -3.64391740000E+01 -3.64129070000E+01
 -3.63848880000E+01 -3.63550440000E+01 -3.63233060000E+01 -3.62896070000E+01
 -3.62538820000E+01 -3.62160720000E+01 -3.61761210000E+01 -3.61339810000E+01
 -3.60896110000E+01 -3.60429780000E+01 -3.59940600000E+01 -3.59428440000E+01
 -3.58893310000E+01 -3.58335360000E+01 -3.57754880000E+01 -3.57152330000E+01
 -3.56528340000E+01 -3.55883720000E+01 -3.55219460000E+01 -3.54536750000E+01
 -3.53836960000E+01 -3.53121640000E+01 -3.52392510000E+01 -3.51651460000E+01
 -3.50900520000E+01 -3.50141800000E+01 -3.49377530000E+01 -3.48609970000E+01
 -3.47841390000E+01 -3.47074000000E+01 -3.46309940000E+01 -3.45551220000E+01
 -3.44799630000E+01 -3.44056740000E+01 -3.43323790000E+01 -3.42601690000E+01
 -3.41890970000E+01 -3.41191690000E+01 -3.40503430000E+01 -3.39825270000E+01
 -3.39155730000E+01 -3.38492750000E+01 -3.37833690000E+01 -3.37175270000E+01
 -3.36513590000E+01 -3.35844080000E+01 -3.35161520000E+01 -3.34459930000E+01
 -3.33732640000E+01 -3.32972140000E+01 -3.32170080000E+01 -3.31317140000E+01
 -3.30402960000E+01 -3.29415940000E+01 -3.28343100000E+01 -3.27169820000E+01
 -3.25879640000E+01 -3.24453860000E+01 -3.22871270000E+01 -3.21107680000E+01
 -3.19135570000E+01 -3.16923570000E+01 -3.14436120000E+01 -3.11633070000E+01
 -3.08469510000E+01 -3.04895760000E+01 -3.00857810000E+01 -2.96298530000E+01
 -2.91160310000E+01 -2.85390720000E+01 -2.78948570000E+01 -2.71794360000E+01
 -2.63865050000E+01 -2.55079930000E+01 -2.45381120000E+01 -2.34757280000E+01
 -2.23248600000E+01 -2.10951850000E+01 -1.98026800000E+01 -1.84700900000E+01
 -1.71269260000E+01 -1.58087610000E+01 -1.45555690000E+01 -1.34089160000E+01
 -1.24077730000E+01 -1.15827430000E+01 -1.09484550000E+01 -1.04942540000E+01
 -1.01747900000E+01 -9.90643530000E+00 -9.58479250000E+00 -9.15548380000E+00
 -8.70892150000E+00 -8.28418210000E+00 -7.88015830000E+00 -7.49583850000E+00
 -7.13026220000E+00 -6.78251520000E+00 -6.45172800000E+00 -6.13707340000E+00
 -5.83776480000E+00 -5.55305370000E+00 -5.28222810000E+00 -5.02461080000E+00
 -4.77955760000E+00 -4.54645580000E+00 -4.32472260000E+00 -4.11380340000E+00
 -3.91317080000E+00 -3.72232320000E+00 -3.54078340000E+00 -3.36809730000E+00
 -3.20383330000E+00 -3.04758050000E+00 -2.89894820000E+00 -2.75756490000E+00
 -2.62307680000E+00 -2.49514790000E+00 -2.37345810000E+00 -2.25770320000E+00
 -2.14759370000E+00 -2.04285430000E+00 -1.94322310000E+00 -1.84845100000E+00
 -1.75830100000E+00 -1.67254760000E+00 -1.59097650000E+00 -1.51338370000E+00
 -1.43957510000E+00 -1.36936620000E+00 -1.30258140000E+00 -1.23905380000E+00
 -1.17862440000E+00 -1.12114220000E+00 -1.06646350000E+00 -1.01445140000E+00
 -9.64976040000E-01 -9.17913610000E-01 -8.73146430000E-01 -8.30562580000E-01
 -7.90055560000E-01 -7.51524100000E-01 -7.14871840000E-01 -6.80007120000E-01
 -6.46842790000E-01 -6.15295890000E-01 -5.85287560000E-01 -5.56742750000E-01
 -5.29590080000E-01 -5.03761670000E-01 -4.79192920000E-01 -4.55822410000E-01
 -4.33591690000E-01 -4.12445170000E-01 -3.92329980000E-01 -3.73195820000E-01
 -3.54994850000E-01 -3.37681550000E-01 -3.21212620000E-01 -3.05546900000E-01
 -2.90645200000E-01 -2.76470270000E-01 -2.62986650000E-01 -2.50160640000E-01
 -2.37960160000E-01 -2.26354710000E-01 -2.15315260000E-01 -2.04814210000E-01
 -1.94825300000E-01
</PP_LOCAL>


<PP_NONLOCAL>
  <PP_BETA>
    1    0             Beta    L
   249
  1.10358162536E-03  1.16016347574E-03  1.21964639409E-03  1.28217900311E-03
  1.34791764930E-03  1.41702685860E-03  1.48967947215E-03  1.56605697509E-03
  1.64635043345E-03  1.73076052636E-03  1.81949850944E-03  1.91278633478E-03
  2.01085700561E-03  2.11395572002E-03  2.22234065999E-03  2.33628246766E-03
  2.45606612693E-03  2.58199130945E-03  2.71437302153E-03  2.85354190182E-03
  2.99984605971E-03  3.15365142096E-03  3.31534242066E-03  3.48532382405E-03
  3.66402019990E-03  3.85187864599E-03  4.04936861741E-03  4.25698389078E-03
  4.47524445882E-03  4.70469512332E-03  4.94591001721E-03  5.19949217588E-03
  5.46607548686E-03  5.74632764718E-03  6.04094776690E-03  6.35067376897E-03
  6.67628006678E-03  7.01857987576E-03  7.37843059506E-03  7.75673077290E-03
  8.15442684876E-03  8.57251325384E-03  9.01203486764E-03  9.47409222559E-03
  9.95983934941E-03  1.04704912307E-02  1.10073246699E-02  1.15716822501E-02
  1.21649750850E-02  1.27886866675E-02  1.34443765338E-02  1.41336844786E-02
  1.48583330420E-02  1.56201366944E-02  1.64209981262E-02  1.72629196281E-02
  1.81480092448E-02  1.90784771121E-02  2.00566514748E-02  2.10849780069E-02
  2.21660263243E-02  2.33025028126E-02  2.44972476926E-02  2.57532489491E-02
  2.70736439670E-02  2.84617375697E-02  2.99210041720E-02  3.14550851903E-02
  3.30678192039E-02  3.47632428569E-02  3.65455908567E-02  3.84193213499E-02
  4.03891197254E-02  4.24599132460E-02  4.46368741096E-02  4.69254554497E-02
  4.93313706407E-02  5.18606396458E-02  5.45195878320E-02  5.73148593995E-02
  6.02534452447E-02  6.33427012335E-02  6.65903428040E-02  7.00044925089E-02
  7.35936873945E-02  7.73668982229E-02  8.13335725722E-02  8.55036146021E-02
  8.98874565947E-02  9.44960598316E-02  9.93409408804E-02  1.04434231685E-01
  1.09788643179E-01  1.15417586110E-01  1.21335112202E-01  1.27556040097E-01
  1.34095904980E-01  1.40971063777E-01  1.48198706021E-01  1.55796902616E-01
  1.63784647987E-01  1.72181911384E-01  1.81009686354E-01  1.90290037162E-01
  2.00046163620E-01  2.10302474110E-01  2.21084585267E-01  2.32419451359E-01
  2.44335419265E-01  2.56862246791E-01  2.70031249266E-01  2.83875339017E-01
  2.98429125232E-01  3.13728979275E-01  3.29813127364E-01  3.46721697362E-01
  3.64497035956E-01  3.83183445492E-01  4.02827692777E-01  4.23478769046E-01
  4.45188257948E-01  4.68010397466E-01  4.92002110624E-01  5.17223265041E-01
  5.43736882540E-01  5.71609021748E-01  6.00909243568E-01  6.31710616591E-01
  6.64089837701E-01  6.98127680260E-01  7.33908835644E-01  7.71522444278E-01
  8.11062053238E-01  8.52625970791E-01  8.96317509821E-01  9.42245185740E-01
  9.90522922792E-01  1.04127031327E+00  1.09461297084E+00  1.15068288914E+00
  1.20961846799E+00  1.27156487728E+00  1.33667443376E+00  1.40510710807E+00
  1.47703015415E+00  1.55261919249E+00  1.63205787503E+00  1.71553861746E+00
  1.80326245593E+00  1.89543964655E+00  1.99228897445E+00  2.09403935036E+00
  2.20092835217E+00  2.31320279873E+00  2.43111887488E+00  2.55494025075E+00
  2.68493920591E+00  2.82139427456E+00  2.96458972200E+00  3.11481250156E+00
  3.27235088945E+00  3.43749014414E+00  3.61050896987E+00  3.79167215187E+00
  3.98122544089E+00  4.17938372221E+00  4.38632119926E+00  4.60215421757E+00
  4.82692568077E+00  5.06057716643E+00  5.30292380423E+00  5.55361574692E+00
  5.81209591237E+00  6.07754525255E+00  6.34881940060E+00  6.62437022076E+00
  6.90215712228E+00  7.17953816729E+00  7.45315321964E+00  7.71878544435E+00
  7.97121934823E+00  8.20408655843E+00  8.40972338662E+00  8.57904651292E+00
  8.70147550840E+00  8.76493516829E+00  8.75598698172E+00  8.66014089287E+00
  8.46243081667E+00  8.14832562617E+00  7.70505724398E+00  7.12342981311E+00
  6.40011023444E+00  5.54033159777E+00  4.56075030291E+00  3.49204216119E+00
  2.38051693943E+00  1.28782476481E+00  2.87672591096E-01 -5.41417179081E-01
 -1.12776869466E+00 -1.42204642662E+00 -1.41449982940E+00 -1.14983273514E+00
 -7.33204895726E-01 -3.17504350900E-01 -5.65955904724E-02  0.00000000000E+00
  0.00000000000E+00  0.00000000000E+00  0.00000000000E+00  0.00000000000E+00
  0.00000000000E+00  0.00000000000E+00  0.00000000000E+00  0.00000000000E+00
  0.00000000000E+00  0.00000000000E+00  0.00000000000E+00  0.00000000000E+00
  0.00000000000E+00  0.00000000000E+00  0.00000000000E+00  0.00000000000E+00
  0.00000000000E+00  0.00000000000E+00  0.00000000000E+00  0.00000000000E+00
  0.00000000000E+00  0.00000000000E+00  0.00000000000E+00  0.00000000000E+00
  0.00000000000E+00  0.00000000000E+00  0.00000000000E+00  0.00000000000E+00
  0.00000000000E+00  0.00000000000E+00  0.00000000000E+00  0.00000000000E+00
  0.00000000000E+00  0.00000000000E+00  0.00000000000E+00  0.00000000000E+00
  0.00000000000E+00  0.00000000000E+00  0.00000000000E+00  0.00000000000E+00
  0.00000000000E+00
  </PP_BETA>
  <PP_DIJ>
    1                  Number of nonzero Dij
    1    1  4.50662283680E-01
  </PP_DIJ>
</PP_NONLOCAL>


<PP_PSWFC>
2S    0  2.00          Wavefunction
  6.02267680000E-05  6.33146610000E-05  6.65608730000E-05  6.99735220000E-05
  7.35611410000E-05  7.73327010000E-05  8.12976340000E-05  8.54658530000E-05
  8.98477810000E-05  9.44543750000E-05  9.92971540000E-05  1.04388230000E-04
  1.09740330000E-04  1.15366830000E-04  1.21281820000E-04  1.27500070000E-04
  1.34037140000E-04  1.40909370000E-04  1.48133950000E-04  1.55728940000E-04
  1.63713330000E-04  1.72107090000E-04  1.80931210000E-04  1.90207750000E-04
  1.99959910000E-04  2.10212080000E-04  2.20989880000E-04  2.32320270000E-04
  2.44231590000E-04  2.56753610000E-04  2.69917650000E-04  2.83756620000E-04
  2.98305130000E-04  3.13599570000E-04  3.29678160000E-04  3.46581120000E-04
  3.64350710000E-04  3.83031370000E-04  4.02669810000E-04  4.23315130000E-04
  4.45018960000E-04  4.67835570000E-04  4.91822010000E-04  5.17038260000E-04
  5.43547380000E-04  5.71415650000E-04  6.00712750000E-04  6.31511950000E-04
  6.63890260000E-04  6.97928640000E-04  7.33712200000E-04  7.71330430000E-04
  8.10877380000E-04  8.52451940000E-04  8.96158080000E-04  9.42105080000E-04
  9.90407830000E-04  1.04118710000E-03  1.09456990000E-03  1.15068970000E-03
  1.20968680000E-03  1.27170870000E-03  1.33691060000E-03  1.40545550000E-03
  1.47751470000E-03  1.55326840000E-03  1.63290620000E-03  1.71662700000E-03
  1.80464030000E-03  1.89716610000E-03  1.99443580000E-03  2.09669260000E-03
  2.20419220000E-03  2.31720350000E-03  2.43600890000E-03  2.56090560000E-03
  2.69220580000E-03  2.83023790000E-03  2.97534710000E-03  3.12789600000E-03
  3.28826630000E-03  3.45685890000E-03  3.63409540000E-03  3.82041890000E-03
  4.01629530000E-03  4.22221440000E-03  4.43869110000E-03  4.66626660000E-03
  4.90551000000E-03  5.15701950000E-03  5.42142390000E-03  5.69938440000E-03
  5.99159590000E-03  6.29878900000E-03  6.62173190000E-03  6.96123190000E-03
  7.31813790000E-03  7.69334220000E-03  8.08778290000E-03  8.50244620000E-03
  8.93836870000E-03  9.39664020000E-03  9.87840640000E-03  1.03848720000E-02
  1.09173020000E-02  1.14770290000E-02  1.20654510000E-02  1.26840390000E-02
  1.33343400000E-02  1.40179780000E-02  1.47366620000E-02  1.54921890000E-02
  1.62864470000E-02  1.71214200000E-02  1.79991950000E-02  1.89219640000E-02
  1.98920340000E-02  2.09118270000E-02  2.19838920000E-02  2.31109050000E-02
  2.42956800000E-02  2.55411770000E-02  2.68505040000E-02  2.82269300000E-02
  2.96738900000E-02  3.11949940000E-02  3.27940370000E-02  3.44750070000E-02
  3.62420940000E-02  3.80997030000E-02  4.00524630000E-02  4.21052380000E-02
  4.42631370000E-02  4.65315320000E-02  4.89160640000E-02  5.14226610000E-02
  5.40575500000E-02  5.68272720000E-02  5.97386990000E-02  6.27990470000E-02
  6.60158940000E-02  6.93971990000E-02  7.29513170000E-02  7.66870190000E-02
  8.06135100000E-02  8.47404550000E-02  8.90779890000E-02  9.36367480000E-02
  9.84278860000E-02  1.03463100000E-01  1.08754640000E-01  1.14315370000E-01
  1.20158730000E-01  1.26298820000E-01  1.32750400000E-01  1.39528880000E-01
  1.46650410000E-01  1.54131840000E-01  1.61990790000E-01  1.70245620000E-01
  1.78915480000E-01  1.88020330000E-01  1.97580920000E-01  2.07618810000E-01
  2.18156380000E-01  2.29216800000E-01  2.40824030000E-01  2.53002780000E-01
  2.65778490000E-01  2.79177210000E-01  2.93225590000E-01  3.07950710000E-01
  3.23379970000E-01  3.39540870000E-01  3.56460790000E-01  3.74166650000E-01
  3.92684510000E-01  4.12039050000E-01  4.32252910000E-01  4.53345810000E-01
  4.75333480000E-01  4.98226230000E-01  5.22027160000E-01  5.46729890000E-01
  5.72315600000E-01  5.98749330000E-01  6.25975370000E-01  6.53911440000E-01
  6.82441550000E-01  7.11407500000E-01  7.40598790000E-01  7.69741280000E-01
  7.98484980000E-01  8.26392070000E-01  8.52926910000E-01  8.77450660000E-01
  8.99224470000E-01  9.17425960000E-01  9.31184180000E-01  9.39637380000E-01
  9.42014700000E-01  9.37736480000E-01  9.26518360000E-01  9.08453110000E-01
  8.84034430000E-01  8.54087880000E-01  8.19594030000E-01  7.81449590000E-01
  7.40339420000E-01  6.96867730000E-01  6.51645620000E-01  6.05283930000E-01
  5.58381280000E-01  5.11512830000E-01  4.65219880000E-01  4.20000720000E-01
  3.76302710000E-01  3.34515900000E-01  2.94968270000E-01  2.57922750000E-01
  2.23575940000E-01  1.92058740000E-01  1.63438680000E-01  1.37723930000E-01
  1.14868680000E-01  9.47797450000E-02  7.73240020000E-02  6.23362270000E-02
  4.96270370000E-02  3.89904890000E-02  3.02110590000E-02  2.30698800000E-02
  1.73502870000E-02  1.28428640000E-02  9.35009200000E-03  6.69044460000E-03
  4.70152060000E-03  3.24187010000E-03  2.19143640000E-03  1.45082670000E-03
  9.39744170000E-04  5.94896720000E-04  3.67634930000E-04  2.21520610000E-04
  1.29982330000E-04  7.41733420000E-05  4.11048460000E-05  2.20889370000E-05
  1.14923410000E-05  5.77950300000E-06  2.80437540000E-06  1.31033560000E-06
  5.88429340000E-07  2.53372310000E-07  1.04324730000E-07  0.00000000000E+00
  0.00000000000E+00  0.00000000000E+00  0.00000000000E+00  0.00000000000E+00
  0.00000000000E+00  0.00000000000E+00  0.00000000000E+00  0.00000000000E+00
  0.00000000000E+00  0.00000000000E+00  0.00000000000E+00  0.00000000000E+00
  0.00000000000E+00  0.00000000000E+00  0.00000000000E+00  0.00000000000E+00
  0.00000000000E+00  0.00000000000E+00  0.00000000000E+00  0.00000000000E+00
  0.00000000000E+00  0.00000000000E+00  0.00000000000E+00  0.00000000000E+00
  0.00000000000E+00  0.00000000000E+00  0.00000000000E+00  0.00000000000E+00
  0.00000000000E+00
2P    1  4.00          Wavefunction
  8.63639410000E-09  9.54469160000E-09  1.05485160000E-08  1.16579130000E-08
  1.28839860000E-08  1.42390070000E-08  1.57365360000E-08  1.73915620000E-08
  1.92206480000E-08  2.12421020000E-08  2.34761530000E-08  2.59451620000E-08
  2.86738380000E-08  3.16894920000E-08  3.50223050000E-08  3.87056330000E-08
  4.27763390000E-08  4.72751660000E-08  5.22471390000E-08  5.77420180000E-08
  6.38147990000E-08  7.05262600000E-08  7.79435710000E-08  8.61409680000E-08
  9.52004920000E-08  1.05212810000E-07  1.16278140000E-07  1.28507220000E-07
  1.42022440000E-07  1.56959070000E-07  1.73466600000E-07  1.91710240000E-07
  2.11872580000E-07  2.34155410000E-07  2.58781750000E-07  2.85998060000E-07
  3.16076730000E-07  3.49318810000E-07  3.86056980000E-07  4.26658940000E-07
  4.71531050000E-07  5.21122390000E-07  5.75929300000E-07  6.36500290000E-07
  7.03441590000E-07  7.77423170000E-07  8.59185450000E-07  9.49546730000E-07
  1.04941140000E-06  1.15977890000E-06  1.28175380000E-06  1.41655700000E-06
  1.56553750000E-06  1.73018640000E-06  1.91215150000E-06  2.11325410000E-06
  2.33550670000E-06  2.58113390000E-06  2.85259370000E-06  3.15260320000E-06
  3.48416490000E-06  3.85059720000E-06  4.25556730000E-06  4.70312830000E-06
  5.19775950000E-06  5.74441140000E-06  6.34855480000E-06  7.01623610000E-06
  7.75413770000E-06  8.56964450000E-06  9.47091830000E-06  1.04669790000E-05
  1.15677950000E-05  1.27843850000E-05  1.41289220000E-05  1.56148640000E-05
  1.72570820000E-05  1.90720100000E-05  2.10778130000E-05  2.32945640000E-05
  2.57444480000E-05  2.84519830000E-05  3.14442650000E-05  3.47512380000E-05
  3.84059990000E-05  4.24451200000E-05  4.69090240000E-05  5.18423810000E-05