ITEM: TIME
0
ITEM: BOUNDS
-5, 5
-5, 5
-5, 5
ITEM: POSITIONS
1, 1, 0, 5, 0
ITEM: TIME
1
ITEM: POSITIONS
1, 1, 0.626666, 4.99938, 1.54508
ITEM: TIME
2
ITEM: POSITIONS
1, 1, 1.24345, 4.99753, 2.93892
ITEM: TIME
3
ITEM: POSITIONS
1, 1, 1.84062, 4.99445, 4.04508
ITEM: TIME
4
ITEM: POSITIONS
1, 1, 2.40877, 4.99013, 4.75528
ITEM: TIME
5
ITEM: POSITIONS
1, 1, 2.93892, 4.98459, 5
ITEM: TIME
6
ITEM: POSITIONS
1, 1, 3.42273, 4.97781, 4.75529
ITEM: TIME
7
ITEM: POSITIONS
1, 1, 3.85256, 4.9698, 4.04509
ITEM: TIME
8
ITEM: POSITIONS
1, 1, 4.22164, 4.96057, 2.93893
ITEM: TIME
9
ITEM: POSITIONS
1, 1, 4.52413, 4.95012, 1.5451
ITEM: TIME
10
ITEM: POSITIONS
1, 1, 4.75528, 4.93844, 1.32679e-05
ITEM: TIME
11
ITEM: POSITIONS
1, 1, 4.91144, 4.92555, -1.54507
ITEM: TIME
12
ITEM: POSITIONS
1, 1, 4.99013, 4.91144, -2.93891
ITEM: TIME
13
ITEM: POSITIONS
1, 1, 4.99013, 4.89611, -4.04507
ITEM: TIME
14
ITEM: POSITIONS
1, 1, 4.91144, 4.87958, -4.75528
ITEM: TIME
15
ITEM: POSITIONS
1, 1, 4.75529, 4.86185, -5
ITEM: TIME
16
ITEM: POSITIONS
1, 1, 4.52414, 4.84292, -4.75529
ITEM: TIME
17
ITEM: POSITIONS
1, 1, 4.22164, 4.82279, -4.0451
ITEM: TIME
18
ITEM: POSITIONS
1, 1, 3.85257, 4.80147, -2.93895
ITEM: TIME
19
ITEM: POSITIONS
1, 1, 3.42274, 4.77897, -1.54511
ITEM: TIME
20
ITEM: POSITIONS
1, 1, 2.93893, 4.75528, -2.65359e-05
ITEM: TIME
21
ITEM: POSITIONS
1, 1, 2.40878, 4.73043, 1.54506
ITEM: TIME
22
ITEM: POSITIONS
1, 1, 1.84063, 4.7044, 2.9389
ITEM: TIME
23
ITEM: POSITIONS
1, 1, 1.24346, 4.67722, 4.04507
ITEM: TIME
24
ITEM: POSITIONS
1, 1, 0.626679, 4.64888, 4.75527
ITEM: TIME
25
ITEM: POSITIONS
1, 1, 1.32679e-05, 4.6194, 5
ITEM: TIME
26
ITEM: POSITIONS
1, 1, -0.626652, 4.58877, 4.75529
ITEM: TIME
27
ITEM: POSITIONS
1, 1, -1.24344, 4.55702, 4.04511
ITEM: TIME
28
ITEM: POSITIONS
1, 1, -1.84061, 4.52414, 2.93896
ITEM: TIME
29
ITEM: POSITIONS
1, 1, -2.40875, 4.49014, 1.54512
ITEM: TIME
30
ITEM: POSITIONS
1, 1, -2.93891, 4.45503, 3.98038e-05
ITEM: TIME
31
ITEM: POSITIONS
1, 1, -3.42272, 4.41883, -1.54505
ITEM: TIME
32
ITEM: POSITIONS
1, 1, -3.85256, 4.38153, -2.93889
ITEM: TIME
33
ITEM: POSITIONS
1, 1, -4.22163, 4.34316, -4.04506
ITEM: TIME
34
ITEM: POSITIONS
1, 1, -4.52413, 4.30371, -4.75527
ITEM: TIME
35
ITEM: POSITIONS
1, 1, -4.75528, 4.2632, -5
ITEM: TIME
36
ITEM: POSITIONS
1, 1, -4.91143, 4.22164, -4.7553
ITEM: TIME
37
ITEM: POSITIONS
1, 1, -4.99013, 4.17904, -4.04511
ITEM: TIME
38
ITEM: POSITIONS
1, 1, -4.99013, 4.1354, -2.93897
ITEM: TIME
39
ITEM: POSITIONS
1, 1, -4.91144, 4.09075, -1.54513
ITEM: TIME
40
ITEM: POSITIONS
1, 1, -4.75529, 4.04509, -5.30718e-05
ITEM: TIME
41
ITEM: POSITIONS
1, 1, -4.52414, 3.99842, 1.54503
ITEM: TIME
42
ITEM: POSITIONS
1, 1, -4.22165, 3.95078, 2.93888
ITEM: TIME
43
ITEM: POSITIONS
1, 1, -3.85258, 3.90215, 4.04505
ITEM: TIME
44
ITEM: POSITIONS
1, 1, -3.42275, 3.85257, 4.75526
ITEM: TIME
45
ITEM: POSITIONS
1, 1, -2.93895, 3.80203, 5
ITEM: TIME
46
ITEM: POSITIONS
1, 1, -2.40879, 3.75056, 4.7553
ITEM: TIME
47
ITEM: POSITIONS
1, 1, -1.84065, 3.69816, 4.04512
ITEM: TIME
48
ITEM: POSITIONS
1, 1, -1.24347, 3.64485, 2.93898
ITEM: TIME
49
ITEM: POSITIONS
1, 1, -0.626692, 3.59063, 1.54515
ITEM: TIME
50
ITEM: POSITIONS
1, 1, -2.65359e-05, 3.53554, 6.63397e-05
ITEM: TIME
51
ITEM: POSITIONS
1, 1, 0.626639, 3.47957, -1.54502
ITEM: TIME
52
ITEM: POSITIONS
1, 1, 1.24342, 3.42274, -2.93887
ITEM: TIME
53
ITEM: POSITIONS
1, 1, 1.8406, 3.36507, -4.04504
ITEM: TIME
54
ITEM: POSITIONS
1, 1, 2.40874, 3.30656, -4.75526
ITEM: TIME
55
ITEM: POSITIONS
1, 1, 2.9389, 3.24724, -5
ITEM: TIME
56
ITEM: POSITIONS
1, 1, 3.42271, 3.18712, -4.75531
ITEM: TIME
57
ITEM: POSITIONS
1, 1, 3.85255, 3.12622, -4.04513
ITEM: TIME
58
ITEM: POSITIONS
1, 1, 4.22162, 3.06454, -2.93899
ITEM: TIME
59
ITEM: POSITIONS
1, 1, 4.52412, 3.0021, -1.54516
ITEM: TIME
60
ITEM: POSITIONS
1, 1, 4.75527, 2.93893, -7.96077e-05
ITEM: TIME
61
ITEM: POSITIONS
1, 1, 4.91143, 2.87503, 1.54501
ITEM: TIME
62
ITEM: POSITIONS
1, 1, 4.99013, 2.81042, 2.93886
ITEM: TIME
63
ITEM: POSITIONS
1, 1, 4.99014, 2.74512, 4.04504
ITEM: TIME
64
ITEM: POSITIONS
1, 1, 4.91144, 2.67914, 4.75526
ITEM: TIME
65
ITEM: POSITIONS
1, 1, 4.75529, 2.6125, 5
ITEM: TIME
66
ITEM: POSITIONS
1, 1, 4.52415, 2.54521, 4.75531
ITEM: TIME
67
ITEM: POSITIONS
1, 1, 4.22166, 2.4773, 4.04514
ITEM: TIME
68
ITEM: POSITIONS
1, 1, 3.85259, 2.40877, 2.939
ITEM: TIME
69
ITEM: POSITIONS
1, 1, 3.42276, 2.33965, 1.54517
ITEM: TIME
70
ITEM: POSITIONS
1, 1, 2.93896, 2.26996, 9.28756e-05
ITEM: TIME
71
ITEM: POSITIONS
1, 1, 2.4088, 2.1997, -1.545
ITEM: TIME
72
ITEM: POSITIONS
1, 1, 1.84066, 2.1289, -2.93885
ITEM: TIME
73
ITEM: POSITIONS
1, 1, 1.24349, 2.05758, -4.04503
ITEM: TIME
74
ITEM: POSITIONS
1, 1, 0.626705, 1.98574, -4.75525
ITEM: TIME
75
ITEM: POSITIONS
1, 1, 3.98038e-05, 1.91342, -5
ITEM: TIME
76
ITEM: POSITIONS
1, 1, -0.626626, 1.84063, -4.75531
ITEM: TIME
77
ITEM: POSITIONS
1, 1, -1.24341, 1.76738, -4.04515
ITEM: TIME
78
ITEM: POSITIONS
1, 1, -1.84058, 1.69369, -2.93901
ITEM: TIME
79
ITEM: POSITIONS
1, 1, -2.40873, 1.61959, -1.54518
ITEM: TIME
80
ITEM: POSITIONS
1, 1, -2.93889, 1.54509, -0.000106144
ITEM: TIME
81
ITEM: POSITIONS
1, 1, -3.4227, 1.47021, 1.54498
ITEM: TIME
82
ITEM: POSITIONS
1, 1, -3.85254, 1.39496, 2.93884
ITEM: TIME
83
ITEM: POSITIONS
1, 1, -4.22162, 1.31937, 4.04502
ITEM: TIME
84
ITEM: POSITIONS
1, 1, -4.52412, 1.24345, 4.75525
ITEM: TIME
85
ITEM: POSITIONS
1, 1, -4.75527, 1.16723, 5
ITEM: TIME
86
ITEM: POSITIONS
1, 1, -4.91143, 1.09072, 4.75532
ITEM: TIME
87
ITEM: POSITIONS
1, 1, -4.99013, 1.01394, 4.04515
ITEM: TIME
88
ITEM: POSITIONS
1, 1, -4.99014, 0.936912, 2.93902
ITEM: TIME
89
ITEM: POSITIONS
1, 1, -4.91145, 0.859651, 1.5452
ITEM: TIME
90
ITEM: POSITIONS
1, 1, -4.7553, 0.782178, 0.000119412
ITEM: TIME
91
ITEM: POSITIONS
1, 1, -4.52416, 0.704512, -1.54497
ITEM: TIME
92
ITEM: POSITIONS
1, 1, -4.22167, 0.626672, -2.93883
ITEM: TIME
93
ITEM: POSITIONS
1, 1, -3.8526, 0.548678, -4.04501
ITEM: TIME
94
ITEM: POSITIONS
1, 1, -3.42277, 0.470548, -4.75524
ITEM: TIME
95
ITEM: POSITIONS
1, 1, -2.93897, 0.392302, -5
ITEM: TIME
96
ITEM: POSITIONS
1, 1, -2.40881, 0.313959, -4.75532
ITEM: TIME
97
ITEM: POSITIONS
1, 1, -1.84067, 0.235539, -4.04516
ITEM: TIME
98
ITEM: POSITIONS
1, 1, -1.2435, 0.15706, -2.93903
ITEM: TIME
99
ITEM: POSITIONS
1, 1, -0.626718, 0.0785432, -1.54521
ITEM: TIME
100
ITEM: POSITIONS
1, 1, -5.30718e-05, 6.63397e-06, -0.000132679
ITEM: TIME
101
ITEM: POSITIONS
1, 1, 0.626613, -0.0785299, 1.54496
ITEM: TIME
102
ITEM: POSITIONS
1, 1, 1.2434, -0.157047, 2.93882
ITEM: TIME
103
ITEM: POSITIONS
1, 1, 1.84057, -0.235525, 4.045
ITEM: TIME
104
ITEM: POSITIONS
1, 1, 2.40872, -0.313946, 4.75524
ITEM: TIME
105
ITEM: POSITIONS
1, 1, 2.93888, -0.392289, 5
ITEM: TIME
106
ITEM: POSITIONS
1, 1, 3.42269, -0.470535, 4.75533
ITEM: TIME
107
ITEM: POSITIONS
1, 1, 3.85253, -0.548664, 4.04517
ITEM: TIME
108
ITEM: POSITIONS
1, 1, 4.22161, -0.626659, 2.93904
ITEM: TIME
109
ITEM: POSITIONS
1, 1, 4.52411, -0.704499, 1.54522
ITEM: TIME
110
ITEM: POSITIONS
1, 1, 4.75526, -0.782165, 0.000145947
ITEM: TIME
111
ITEM: POSITIONS
1, 1, 4.91143, -0.859638, -1.54494
ITEM: TIME
112
ITEM: POSITIONS
1, 1, 4.99013, -0.936899, -2.93881
ITEM: TIME
113
ITEM: POSITIONS
1, 1, 4.99014, -1.01393, -4.045
ITEM: TIME
114
ITEM: POSITIONS
1, 1, 4.91145, -1.09071, -4.75524
ITEM: TIME
115
ITEM: POSITIONS
1, 1, 4.7553, -1.16722, -5
ITEM: TIME
116
ITEM: POSITIONS
1, 1, 4.52416, -1.24344, -4.75533
ITEM: TIME
117
ITEM: POSITIONS
1, 1, 4.22167, -1.31936, -4.04518
ITEM: TIME
118
ITEM: POSITIONS
1, 1, 3.85261, -1.39495, -2.93905
ITEM: TIME
119
ITEM: POSITIONS
1, 1, 3.42278, -1.47019, -1.54524
ITEM: TIME
120
ITEM: POSITIONS
1, 1, 2.93898, -1.54508, -0.000159215
ITEM: TIME
121
ITEM: POSITIONS
1, 1, 2.40882, -1.61958, 1.54493
ITEM: TIME
122
ITEM: POSITIONS
1, 1, 1.84068, -1.69368, 2.9388
ITEM: TIME
123
ITEM: POSITIONS
1, 1, 1.24351, -1.76737, 4.04499
ITEM: TIME
124
ITEM: POSITIONS
1, 1, 0.626731, -1.84062, 4.75523
ITEM: TIME
125
ITEM: POSITIONS
1, 1, 6.63397e-05, -1.91341, 5
ITEM: TIME
126
ITEM: POSITIONS
1, 1, -0.6266, -1.98573, 4.75533
ITEM: TIME
127
ITEM: POSITIONS
1, 1, -1.24338, -2.05756, 4.04518
ITEM: TIME
128
ITEM: POSITIONS
1, 1, -1.84056, -2.12889, 2.93906
ITEM: TIME
129
ITEM: POSITIONS
1, 1, -2.40871, -2.19969, 1.54525
ITEM: TIME
130
ITEM: POSITIONS
1, 1, -2.93887, -2.26994, 0.000172483
ITEM: TIME
131
ITEM: POSITIONS
1, 1, -3.42268, -2.33964, -1.54492
ITEM: TIME
132
ITEM: POSITIONS
1, 1, -3.85252, -2.40876, -2.93878
ITEM: TIME
133
ITEM: POSITIONS
1, 1, -4.2216, -2.47729, -4.04498
ITEM: TIME
134
ITEM: POSITIONS
1, 1, -4.5241, -2.5452, -4.75523
ITEM: TIME
135
ITEM: POSITIONS
1, 1, -4.75526, -2.61249, -5
ITEM: TIME
136
ITEM: POSITIONS
1, 1, -4.91142, -2.67913, -4.75534
ITEM: TIME
137
ITEM: POSITIONS
1, 1, -4.99013, -2.74511, -4.04519
ITEM: TIME
138
ITEM: POSITIONS
1, 1, -4.99014, -2.81041, -2.93907
ITEM: TIME
139
ITEM: POSITIONS
1, 1, -4.91145, -2.87502, -1.54526
ITEM: TIME
140
ITEM: POSITIONS
1, 1, -4.75531, -2.93892, -0.000185751
ITEM: TIME
141
ITEM: POSITIONS
1, 1, -4.52417, -3.00209, 1.54491
ITEM: TIME
142
ITEM: POSITIONS
1, 1, -4.22168, -3.06453, 2.93877
ITEM: TIME
143
ITEM: POSITIONS
1, 1, -3.85261, -3.12621, 4.04497
ITEM: TIME
144
ITEM: POSITIONS
1, 1, -3.42279, -3.18711, 4.75522
ITEM: TIME
145
ITEM: POSITIONS
1, 1, -2.93899, -3.24723, 5
ITEM: TIME
146
ITEM: POSITIONS
1, 1, -2.40884, -3.30655, 4.75534
ITEM: TIME
147
ITEM: POSITIONS
1, 1, -1.8407, -3.36506, 4.0452
ITEM: TIME
148
ITEM: POSITIONS
1, 1, -1.24353, -3.42273, 2.93909
ITEM: TIME
149
ITEM: POSITIONS
1, 1, -0.626745, -3.47956, 1.54527
ITEM: TIME
150
ITEM: POSITIONS
1, 1, -7.96077e-05, -3.53553, 0.000199019
ITEM: TIME
151
ITEM: POSITIONS
1, 1, 0.626587, -3.59062, -1.54489
ITEM: TIME
152
ITEM: POSITIONS
1, 1, 1.24337, -3.64484, -2.93876
ITEM: TIME
153
ITEM: POSITIONS
1, 1, 1.84055, -3.69815, -4.04497
ITEM: TIME
154
ITEM: POSITIONS
1, 1, 2.4087, -3.75055, -4.75522
ITEM: TIME
155
ITEM: POSITIONS
1, 1, 2.93886, -3.80202, -5
ITEM: TIME
156
ITEM: POSITIONS
1, 1, 3.42268, -3.85256, -4.75535
ITEM: TIME
157
ITEM: POSITIONS
1, 1, 3.85251, -3.90215, -4.04521
ITEM: TIME
158
ITEM: POSITIONS
1, 1, 4.22159, -3.95077, -2.9391
ITEM: TIME
159
ITEM: POSITIONS
1, 1, 4.5241, -3.99842, -1.54529
ITEM: TIME
160
ITEM: POSITIONS
1, 1, 4.75526, -4.04508, -0.000212287
ITEM: TIME
161
ITEM: POSITIONS
1, 1, 4.91142, -4.09074, 1.54488
ITEM: TIME
162
ITEM: POSITIONS
1, 1, 4.99013, -4.1354, 2.93875
ITEM: TIME
163
ITEM: POSITIONS
1, 1, 4.99014, -4.17903, 4.04496
ITEM: TIME
164
ITEM: POSITIONS
1, 1, 4.91145, -4.22163, 4.75522
ITEM: TIME
165
ITEM: POSITIONS
1, 1, 4.75531, -4.2632, 5
ITEM: TIME
166
ITEM: POSITIONS
1, 1, 4.52417, -4.3037, 4.75535
ITEM: TIME
167
ITEM: POSITIONS
1, 1, 4.22169, -4.34315, 4.04522
ITEM: TIME
168
ITEM: POSITIONS
1, 1, 3.85262, -4.38153, 2.93911
ITEM: TIME
169
ITEM: POSITIONS
1, 1, 3.4228, -4.41882, 1.5453
ITEM: TIME
170
ITEM: POSITIONS
1, 1, 2.939, -4.45503, 0.000225555
ITEM: TIME
171
ITEM: POSITIONS
1, 1, 2.40885, -4.49013, -1.54487
ITEM: TIME
172
ITEM: POSITIONS
1, 1, 1.84071, -4.52413, -2.93874
ITEM: TIME
173
ITEM: POSITIONS
1, 1, 1.24354, -4.55701, -4.04495
ITEM: TIME
174
ITEM: POSITIONS
1, 1, 0.626758, -4.58877, -4.75521
ITEM: TIME
175
ITEM: POSITIONS
1, 1, 9.28756e-05, -4.61939, -5
ITEM: TIME
176
ITEM: POSITIONS
1, 1, -0.626573, -4.64888, -4.75535
ITEM: TIME
177
ITEM: POSITIONS
1, 1, -1.24336, -4.67722, -4.04522
ITEM: TIME
178
ITEM: POSITIONS
1, 1, -1.84053, -4.7044, -2.93912
ITEM: TIME
179
ITEM: POSITIONS
1, 1, -2.40869, -4.73042, -1.54531
ITEM: TIME
180
ITEM: POSITIONS
1, 1, -2.93885, -4.75528, -0.000238823
ITEM: TIME
181
ITEM: POSITIONS
1, 1, -3.42267, -4.77896, 1.54486
ITEM: TIME
182
ITEM: POSITIONS
1, 1, -3.8525, -4.80147, 2.93873
ITEM: TIME
183
ITEM: POSITIONS
1, 1, -4.22159, -4.82278, 4.04494
ITEM: TIME
184
ITEM: POSITIONS
1, 1, -4.52409, -4.84291, 4.75521
ITEM: TIME
185
ITEM: POSITIONS
1, 1, -4.75525, -4.86185, 5
ITEM: TIME
186
ITEM: POSITIONS
1, 1, -4.91142, -4.87958, 4.75536
ITEM: TIME
187
ITEM: POSITIONS
1, 1, -4.99013, -4.89611, 4.04523
ITEM: TIME
188
ITEM: POSITIONS
1, 1, -4.99014, -4.91143, 2.93913
ITEM: TIME
189
ITEM: POSITIONS
1, 1, -4.91146, -4.92554, 1.54532
ITEM: TIME
190
ITEM: POSITIONS
1, 1, -4.75531, -4.93844, 0.000252091
ITEM: TIME
191
ITEM: POSITIONS
1, 1, -4.52418, -4.95012, -1.54484
ITEM: TIME
192
ITEM: POSITIONS
1, 1, -4.22169, -4.96057, -2.93872
ITEM: TIME
193
ITEM: POSITIONS
1, 1, -3.85263, -4.9698, -4.04493
ITEM: TIME
194
ITEM: POSITIONS
1, 1, -3.42281, -4.97781, -4.7552
ITEM: TIME
195
ITEM: POSITIONS
1, 1, -2.93901, -4.98459, -5
ITEM: TIME
196
ITEM: POSITIONS
1, 1, -2.40886, -4.99013, -4.75536
ITEM: TIME
197
ITEM: POSITIONS
1, 1, -1.84072, -4.99445, -4.04524
ITEM: TIME
198
ITEM: POSITIONS
1, 1, -1.24355, -4.99753, -2.93914
ITEM: TIME
199
ITEM: POSITIONS
1, 1, -0.626771, -4.99938, -1.54534
ITEM: TIME
200
ITEM: POSITIONS
1, 1, -0.000106144, -5, -0.000265359
ITEM: TIME
201
ITEM: POSITIONS
1, 1, 0.62656, -4.99938, 1.54483
ITEM: TIME
202
ITEM: POSITIONS
1, 1, 1.24335, -4.99753, 2.93871
ITEM: TIME
203
ITEM: POSITIONS
1, 1, 1.84052, -4.99445, 4.04493
ITEM: TIME
204
ITEM: POSITIONS
1, 1, 2.40867, -4.99013, 4.7552
ITEM: TIME
205
ITEM: POSITIONS
1, 1, 2.93884, -4.98459, 5
ITEM: TIME
206
ITEM: POSITIONS
1, 1, 3.42266, -4.97781, 4.75537
ITEM: TIME
207
ITEM: POSITIONS
1, 1, 3.8525, -4.96981, 4.04525
ITEM: TIME
208
ITEM: POSITIONS
1, 1, 4.22158, -4.96058, 2.93915
ITEM: TIME
209
ITEM: POSITIONS
1, 1, 4.52409, -4.95012, 1.54535
ITEM: TIME
210
ITEM: POSITIONS
1, 1, 4.75525, -4.93844, 0.000278627
ITEM: TIME
211
ITEM: POSITIONS
1, 1, 4.91142, -4.92555, -1.54482
ITEM: TIME
212
ITEM: POSITIONS
1, 1, 4.99013, -4.91144, -2.9387
ITEM: TIME
213
ITEM: POSITIONS
1, 1, 4.99014, -4.89612, -4.04492
ITEM: TIME
214
ITEM: POSITIONS
1, 1, 4.91146, -4.87959, -4.75519
ITEM: TIME
215
ITEM: POSITIONS
1, 1, 4.75532, -4.86185, -5
ITEM: TIME
216
ITEM: POSITIONS
1, 1, 4.52418, -4.84292, -4.75537
ITEM: TIME
217
ITEM: POSITIONS
1, 1, 4.2217, -4.82279, -4.04525
ITEM: TIME
218
ITEM: POSITIONS
1, 1, 3.85264, -4.80147, -2.93916
ITEM: TIME
219
ITEM: POSITIONS
1, 1, 3.42282, -4.77897, -1.54536
ITEM: TIME
220
ITEM: POSITIONS
1, 1, 2.93902, -4.75529, -0.000291895
ITEM: TIME
221
ITEM: POSITIONS
1, 1, 2.40887, -4.73043, 1.54481
ITEM: TIME
222
ITEM: POSITIONS
1, 1, 1.84073, -4.70441, 2.93869
ITEM: TIME
223
ITEM: POSITIONS
1, 1, 1.24356, -4.67723, 4.04491
ITEM: TIME
224
ITEM: POSITIONS
1, 1, 0.626784, -4.64889, 4.75519
ITEM: TIME
225
ITEM: POSITIONS
1, 1, 0.000119412, -4.6194, 5
ITEM: TIME
226
ITEM: POSITIONS
1, 1, -0.626547, -4.58878, 4.75538
ITEM: TIME
227
ITEM: POSITIONS
1, 1, -1.24333, -4.55702, 4.04526
ITEM: TIME
228
ITEM: POSITIONS
1, 1, -1.84051, -4.52414, 2.93917
ITEM: TIME
229
ITEM: POSITIONS
1, 1, -2.40866, -4.49014, 1.54537
ITEM: TIME
230
ITEM: POSITIONS
1, 1, -2.93883, -4.45504, 0.000305163
ITEM: TIME
231
ITEM: POSITIONS
1, 1, -3.42265, -4.41884, -1.54479
ITEM: TIME
232
ITEM: POSITIONS
1, 1, -3.85249, -4.38154, -2.93868
ITEM: TIME
233
ITEM: POSITIONS
1, 1, -4.22157, -4.34317, -4.0449
ITEM: TIME
234
ITEM: POSITIONS
1, 1, -4.52408, -4.30372, -4.75519
ITEM: TIME
235
ITEM: POSITIONS
1, 1, -4.75524, -4.26321, -5
ITEM: TIME
236
ITEM: POSITIONS
1, 1, -4.91141, -4.22165, -4.75538
ITEM: TIME
237
ITEM: POSITIONS
1, 1, -4.99013, -4.17905, -4.04527
ITEM: TIME
238
ITEM: POSITIONS
1, 1, -4.99014, -4.13541, -2.93918
ITEM: TIME
239
ITEM: POSITIONS
1, 1, -4.91146, -4.09076, -1.54539
ITEM: TIME
240
ITEM: POSITIONS
1, 1, -4.75532, -4.04509, -0.000318431
ITEM: TIME
241
ITEM: POSITIONS
1, 1, -4.52419, -3.99843, 1.54478
ITEM: TIME
242
ITEM: POSITIONS
1, 1, -4.22171, -3.95078, 2.93867
ITEM: TIME
243
ITEM: POSITIONS
1, 1, -3.85265, -3.90216, 4.0449
ITEM: TIME
244
ITEM: POSITIONS
1, 1, -3.42283, -3.85258, 4.75518
ITEM: TIME
245
ITEM: POSITIONS
1, 1, -2.93903, -3.80204, 5
ITEM: TIME
246
ITEM: POSITIONS
1, 1, -2.40888, -3.75057, 4.75538
ITEM: TIME
247
ITEM: POSITIONS
1, 1, -1.84074, -3.69817, 4.04528
ITEM: TIME
248
ITEM: POSITIONS
1, 1, -1.24358, -3.64485, 2.93919
ITEM: TIME
249
ITEM: POSITIONS
1, 1, -0.626797, -3.59064, 1.5454
ITEM: TIME
250
ITEM: POSITIONS
1, 1, -0.000132679, -3.53555, 0.000331699
ITEM: TIME
251
ITEM: POSITIONS
1, 1, 0.626534, -3.47958, -1.54477
ITEM: TIME
252
ITEM: POSITIONS
1, 1, 1.24332, -3.42275, -2.93866
ITEM: TIME
253
ITEM: POSITIONS
1, 1, 1.8405, -3.36507, -4.04489
ITEM: TIME
254
ITEM: POSITIONS
1, 1, 2.40865, -3.30657, -4.75518
ITEM: TIME
255
ITEM: POSITIONS
1, 1, 2.93882, -3.24725, -5
ITEM: TIME
256
ITEM: POSITIONS
1, 1, 3.42264, -3.18713, -4.75539
ITEM: TIME
257
ITEM: POSITIONS
1, 1, 3.85248, -3.12623, -4.04529
ITEM: TIME
258
ITEM: POSITIONS
1, 1, 4.22157, -3.06455, -2.9392
ITEM: TIME
259
ITEM: POSITIONS
1, 1, 4.52408, -3.00211, -1.54541
ITEM: TIME
260
ITEM: POSITIONS
1, 1, 4.75524, -2.93894, -0.000344967
ITEM: TIME
261
ITEM: POSITIONS
1, 1, 4.91141, -2.87504, 1.54476
ITEM: TIME
262
ITEM: POSITIONS
1, 1, 4.99012, -2.81043, 2.93865
ITEM: TIME
263
ITEM: POSITIONS
1, 1, 4.99014, -2.74513, 4.04488
ITEM: TIME
264
ITEM: POSITIONS
1, 1, 4.91146, -2.67915, 4.75517
ITEM: TIME
265
ITEM: POSITIONS
1, 1, 4.75533, -2.61251, 5
ITEM: TIME
266
ITEM: POSITIONS
1, 1, 4.5242, -2.54522, 4.75539
ITEM: TIME
267
ITEM: POSITIONS
1, 1, 4.22172, -2.47731, 4.04529
ITEM: TIME
268
ITEM: POSITIONS
1, 1, 3.85266, -2.40878, 2.93921
ITEM: TIME
269
ITEM: POSITIONS
1, 1, 3.42284, -2.33966, 1.54542
ITEM: TIME
270
ITEM: POSITIONS
1, 1, 2.93904, -2.26997, 0.000358235
ITEM: TIME
271
ITEM: POSITIONS
1, 1, 2.40889, -2.19971, -1.54474
ITEM: TIME
272
ITEM: POSITIONS
1, 1, 1.84076, -2.12891, -2.93863
ITEM: TIME
273
ITEM: POSITIONS
1, 1, 1.24359, -2.05759, -4.04487
ITEM: TIME
274
ITEM: POSITIONS
1, 1, 0.62681, -1.98576, -4.75517
ITEM: TIME
275
ITEM: POSITIONS
1, 1, 0.000145947, -1.91343, -5
ITEM: TIME
276
ITEM: POSITIONS
1, 1, -0.626521, -1.84064, -4.7554
ITEM: TIME
277
ITEM: POSITIONS
1, 1, -1.24331, -1.76739, -4.0453
ITEM: TIME
278
ITEM: POSITIONS
1, 1, -1.84049, -1.69371, -2.93922
ITEM: TIME
279
ITEM: POSITIONS
1, 1, -2.40864, -1.6196, -1.54544
ITEM: TIME
280
ITEM: POSITIONS
1, 1, -2.93881, -1.5451, -0.000371503
ITEM: TIME
281
ITEM: POSITIONS
1, 1, -3.42263, -1.47022, 1.54473
ITEM: TIME
282
ITEM: POSITIONS
1, 1, -3.85247, -1.39497, 2.93862
ITEM: TIME
283
ITEM: POSITIONS
1, 1, -4.22156, -1.31938, 4.04486
ITEM: TIME
284
ITEM: POSITIONS
1, 1, -4.52407, -1.24347, 4.75517
ITEM: TIME
285
ITEM: POSITIONS
1, 1, -4.75524, -1.16725, 5
ITEM: TIME
286
ITEM: POSITIONS
1, 1, -4.91141, -1.09073, 4.7554
ITEM: TIME
287
ITEM: POSITIONS
1, 1, -4.99012, -1.01396, 4.04531
ITEM: TIME
288
ITEM: POSITIONS
1, 1, -4.99014, -0.936925, 2.93924
ITEM: TIME
289
ITEM: POSITIONS
1, 1, -4.91146, -0.859664, 1.54545
ITEM: TIME
290
ITEM: POSITIONS
1, 1, -4.75533, -0.782191, 0.000384771
ITEM: TIME
291
ITEM: POSITIONS
1, 1, -4.5242, -0.704525, -1.54472
ITEM: TIME
292
ITEM: POSITIONS
1, 1, -4.22172, -0.626685, -2.93861
ITEM: TIME
293
ITEM: POSITIONS
1, 1, -3.85267, -0.548691, -4.04486
ITEM: TIME
294
ITEM: POSITIONS
1, 1, -3.42285, -0.470561, -4.75516
ITEM: TIME
295
ITEM: POSITIONS
1, 1, -2.93905, -0.392315, -5
ITEM: TIME
296
ITEM: POSITIONS
1, 1, -2.40891, -0.313972, -4.7554
ITEM: TIME
297
ITEM: POSITIONS
1, 1, -1.84077, -0.235552, -4.04532
ITEM: TIME
298
ITEM: POSITIONS
1, 1, -1.2436, -0.157074, -2.93925
ITEM: TIME
299
ITEM: POSITIONS
1, 1, -0.626824, -0.0785564, -1.54546
ITEM: TIME
300
ITEM: POSITIONS
1, 1, -0.000159215, -1.99019e-05, -0.000398038
ITEM: TIME
301
ITEM: POSITIONS
1, 1, 0.626508, 0.0785166, 1.54471
ITEM: TIME
302
ITEM: POSITIONS
1, 1, 1.24329, 0.157034, 2.9386
ITEM: TIME
303
ITEM: POSITIONS
1, 1, 1.84047, 0.235512, 4.04485
ITEM: TIME
304
ITEM: POSITIONS
1, 1, 2.40863, 0.313932, 4.75516
ITEM: TIME
305
ITEM: POSITIONS
1, 1, 2.9388, 0.392275, 5
ITEM: TIME
306
ITEM: POSITIONS
1, 1, 3.42262, 0.470521, 4.75541
ITEM: TIME
307
ITEM: POSITIONS
1, 1, 3.85246, 0.548651, 4.04532
ITEM: TIME
308
ITEM: POSITIONS
1, 1, 4.22155, 0.626646, 2.93926
ITEM: TIME
309
ITEM: POSITIONS
1, 1, 4.52407, 0.704486, 1.54547
ITEM: TIME
310
ITEM: POSITIONS
1, 1, 4.75523, 0.782152, 0.000411306
ITEM: TIME
311
ITEM: POSITIONS
1, 1, 4.91141, 0.859625, -1.54469
ITEM: TIME
312
ITEM: POSITIONS
1, 1, 4.99012, 0.936886, -2.93859
ITEM: TIME
313
ITEM: POSITIONS
1, 1, 4.99014, 1.01392, -4.04484
ITEM: TIME
314
ITEM: POSITIONS
1, 1, 4.91147, 1.0907, -4.75515
ITEM: TIME
315
ITEM: POSITIONS
1, 1, 4.75533, 1.16721, -5
ITEM: TIME
316
ITEM: POSITIONS
1, 1, 4.52421, 1.24343, -4.75541
ITEM: TIME
317
ITEM: POSITIONS
1, 1, 4.22173, 1.31934, -4.04533
ITEM: TIME
318
ITEM: POSITIONS
1, 1, 3.85267, 1.39494, -2.93927
ITEM: TIME
319
ITEM: POSITIONS
1, 1, 3.42286, 1.47018, -1.54549
ITEM: TIME
320
ITEM: POSITIONS
1, 1, 2.93906, 1.54506, -0.000424574
ITEM: TIME
321
ITEM: POSITIONS
1, 1, 2.40892, 1.61957, 1.54468
ITEM: TIME
322
ITEM: POSITIONS
1, 1, 1.84078, 1.69367, 2.93858
ITEM: TIME
323
ITEM: POSITIONS
1, 1, 1.24362, 1.76735, 4.04483
ITEM: TIME
324
ITEM: POSITIONS
1, 1, 0.626837, 1.8406, 4.75515
ITEM: TIME
325
ITEM: POSITIONS
1, 1, 0.000172483, 1.9134, 5
ITEM: TIME
326
ITEM: POSITIONS
1, 1, -0.626495, 1.98572, 4.75542
ITEM: TIME
327
ITEM: POSITIONS
1, 1, -1.24328, 2.05755, 4.04534
ITEM: TIME
328
ITEM: POSITIONS
1, 1, -1.84046, 2.12888, 2.93928
ITEM: TIME
329
ITEM: POSITIONS
1, 1, -2.40862, 2.19968, 1.5455
ITEM: TIME
330
ITEM: POSITIONS
1, 1, -2.93878, 2.26993, 0.000437842
ITEM: TIME
331
ITEM: POSITIONS
1, 1, -3.42261, 2.33963, -1.54467
ITEM: TIME
332
ITEM: POSITIONS
1, 1, -3.85245, 2.40875, -2.93857
ITEM: TIME
333
ITEM: POSITIONS
1, 1, -4.22154, 2.47727, -4.04483
ITEM: TIME
334
ITEM: POSITIONS
1, 1, -4.52406, 2.54519, -4.75515
ITEM: TIME
335
ITEM: POSITIONS
1, 1, -4.75523, 2.61247, -5
ITEM: TIME
336
ITEM: POSITIONS
1, 1, -4.9114, 2.67912, -4.75542
ITEM: TIME
337
ITEM: POSITIONS
1, 1, -4.99012, 2.7451, -4.04535
ITEM: TIME
338
ITEM: POSITIONS
1, 1, -4.99014, 2.8104, -2.93929
ITEM: TIME
339
ITEM: POSITIONS
1, 1, -4.91147, 2.87501, -1.54551
ITEM: TIME
340
ITEM: POSITIONS
1, 1, -4.75534, 2.93891, -0.00045111
ITEM: TIME
341
ITEM: POSITIONS
1, 1, -4.52421, 3.00208, 1.54465
ITEM: TIME
342
ITEM: POSITIONS
1, 1, -4.22174, 3.06452, 2.93856
ITEM: TIME
343
ITEM: POSITIONS
1, 1, -3.85268, 3.1262, 4.04482
ITEM: TIME
344
ITEM: POSITIONS
1, 1, -3.42287, 3.1871, 4.75514
ITEM: TIME
345
ITEM: POSITIONS
1, 1, -2.93907, 3.24722, 5
ITEM: TIME
346
ITEM: POSITIONS
1, 1, -2.40893, 3.30654, 4.75542
ITEM: TIME
347
ITEM: POSITIONS
1, 1, -1.84079, 3.36505, 4.04536
ITEM: TIME
348
ITEM: POSITIONS
1, 1, -1.24363, 3.42272, 2.9393
ITEM: TIME
349
ITEM: POSITIONS
1, 1, -0.62685, 3.47955, 1.54553
ITEM: TIME
350
ITEM: POSITIONS
1, 1, -0.000185751, 3.53552, 0.000464378
ITEM: TIME
351
ITEM: POSITIONS
1, 1, 0.626481, 3.59062, -1.54464
ITEM: TIME
352
ITEM: POSITIONS
1, 1, 1.24327, 3.64483, -2.93855
ITEM: TIME
353
ITEM: POSITIONS
1, 1, 1.84045, 3.69814, -4.04481
ITEM: TIME
354
ITEM: POSITIONS
1, 1, 2.4086, 3.75054, -4.75514
ITEM: TIME
355
ITEM: POSITIONS
1, 1, 2.93877, 3.80201, -5
ITEM: TIME
356
ITEM: POSITIONS
1, 1, 3.4226, 3.85255, -4.75543
ITEM: TIME
357
ITEM: POSITIONS
1, 1, 3.85245, 3.90214, -4.04536
ITEM: TIME
358
ITEM: POSITIONS
1, 1, 4.22154, 3.95076, -2.93931
ITEM: TIME
359
ITEM: POSITIONS
1, 1, 4.52405, 3.99841, -1.54554
ITEM: TIME
360
ITEM: POSITIONS
1, 1, 4.75522, 4.04507, -0.000477646
ITEM: TIME
361
ITEM: POSITIONS
1, 1, 4.9114, 4.09073, 1.54463
ITEM: TIME
362
ITEM: POSITIONS
1, 1, 4.99012, 4.13539, 2.93854
ITEM: TIME
363
ITEM: POSITIONS
1, 1, 4.99015, 4.17902, 4.0448
ITEM: TIME
364
ITEM: POSITIONS
1, 1, 4.91147, 4.22163, 4.75513
ITEM: TIME
365
ITEM: POSITIONS
1, 1, 4.75534, 4.26319, 5
ITEM: TIME
366
ITEM: POSITIONS
1, 1, 4.52422, 4.3037, 4.75543
ITEM: TIME
367
ITEM: POSITIONS
1, 1, 4.22174, 4.34315, 4.04537
ITEM: TIME
368
ITEM: POSITIONS
1, 1, 3.85269, 4.38152, 2.93932
ITEM: TIME
369
ITEM: POSITIONS
1, 1, 3.42288, 4.41882, 1.54555
ITEM: TIME
370
ITEM: POSITIONS
1, 1, 2.93909, 4.45502, 0.000490914
ITEM: TIME
371
ITEM: POSITIONS
1, 1, 2.40894, 4.49013, -1.54462
ITEM: TIME
372
ITEM: POSITIONS
1, 1, 1.84081, 4.52412, -2.93853
ITEM: TIME
373
ITEM: POSITIONS
1, 1, 1.24364, 4.55701, -4.04479
ITEM: TIME
374
ITEM: POSITIONS
1, 1, 0.626863, 4.58876, -4.75513
ITEM: TIME
375
ITEM: POSITIONS
1, 1, 0.000199019, 4.61939, -5
ITEM: TIME
376
ITEM: POSITIONS
1, 1, -0.626468, 4.64887, -4.75544
ITEM: TIME
377
ITEM: POSITIONS
1, 1, -1.24326, 4.67721, -4.04538
ITEM: TIME
378
ITEM: POSITIONS
1, 1, -1.84044, 4.7044, -2.93933
ITEM: TIME
379
ITEM: POSITIONS
1, 1, -2.40859, 4.73042, -1.54556
ITEM: TIME
380
ITEM: POSITIONS
1, 1, -2.93876, 4.75527, -0.000504182
ITEM: TIME
381
ITEM: POSITIONS
1, 1, -3.42259, 4.77896, 1.5446
ITEM: TIME
382
ITEM: POSITIONS
1, 1, -3.85244, 4.80146, 2.93852
ITEM: TIME
383
ITEM: POSITIONS
1, 1, -4.22153, 4.82278, 4.04479
ITEM: TIME
384
ITEM: POSITIONS
1, 1, -4.52405, 4.84291, 4.75513
ITEM: TIME
385
ITEM: POSITIONS
1, 1, -4.75522, 4.86184, 5
ITEM: TIME
386
ITEM: POSITIONS
1, 1, -4.9114, 4.87958, 4.75544
ITEM: TIME
387
ITEM: POSITIONS
1, 1, -4.99012, 4.89611, 4.04539
ITEM: TIME
388
ITEM: POSITIONS
1, 1, -4.99015, 4.91143, 2.93934
ITEM: TIME
389
ITEM: POSITIONS
1, 1, -4.91147, 4.92554, 1.54558
ITEM: TIME
390
ITEM: POSITIONS
1, 1, -4.75535, 4.93844, 0.00051745
ITEM: TIME
391
ITEM: POSITIONS
1, 1, -4.52422, 4.95011, -1.54459
ITEM: TIME
392
ITEM: POSITIONS
1, 1, -4.22175, 4.96057, -2.93851
ITEM: TIME
393
ITEM: POSITIONS
1, 1, -3.8527, 4.9698, -4.04478
ITEM: TIME
394
ITEM: POSITIONS
1, 1, -3.42289, 4.97781, -4.75512
ITEM: TIME
395
ITEM: POSITIONS
1, 1, -2.9391, 4.98458, -5
ITEM: TIME
396
ITEM: POSITIONS
1, 1, -2.40895, 4.99013, -4.75544
ITEM: TIME
397
ITEM: POSITIONS
1, 1, -1.84082, 4.99445, -4.04539
ITEM: TIME
398
ITEM: POSITIONS
1, 1, -1.24365, 4.99753, -2.93935
ITEM: TIME
399
ITEM: POSITIONS
1, 1, -0.626876, 4.99938, -1.54559
ITEM: TIME
400
ITEM: POSITIONS
1, 1, -0.000212287, 5, -0.000530718
ITEM: TIME
401
ITEM: POSITIONS
1, 1, 0.626455, 4.99938, 1.54458
ITEM: TIME
402
ITEM: POSITIONS
1, 1, 1.24324, 4.99753, 2.93849
ITEM: TIME
403
ITEM: POSITIONS
1, 1, 1.84042, 4.99445, 4.04477
ITEM: TIME
404
ITEM: POSITIONS
1, 1, 2.40858, 4.99014, 4.75512
ITEM: TIME
405
ITEM: POSITIONS
1, 1, 2.93875, 4.98459, 5
ITEM: TIME
406
ITEM: POSITIONS
1, 1, 3.42258, 4.97781, 4.75545
ITEM: TIME
407
ITEM: POSITIONS
1, 1, 3.85243, 4.96981, 4.0454
ITEM: TIME
408
ITEM: POSITIONS
1, 1, 4.22152, 4.96058, 2.93936
ITEM: TIME
409
ITEM: POSITIONS
1, 1, 4.52404, 4.95012, 1.5456
ITEM: TIME
410
ITEM: POSITIONS
1, 1, 4.75522, 4.93845, 0.000543986
ITEM: TIME
411
ITEM: POSITIONS
1, 1, 4.9114, 4.92555, -1.54457
ITEM: TIME
412
ITEM: POSITIONS
1, 1, 4.99012, 4.91144, -2.93848
ITEM: TIME
413
ITEM: POSITIONS
1, 1, 4.99015, 4.89612, -4.04476
ITEM: TIME
414
ITEM: POSITIONS
1, 1, 4.91148, 4.87959, -4.75511
ITEM: TIME
415
ITEM: POSITIONS
1, 1, 4.75535, 4.86186, -5
ITEM: TIME
416
ITEM: POSITIONS
1, 1, 4.52423, 4.84292, -4.75545
ITEM: TIME
417
ITEM: POSITIONS
1, 1, 4.22176, 4.82279, -4.04541
ITEM: TIME
418
ITEM: POSITIONS
1, 1, 3.85271, 4.80148, -2.93937
ITEM: TIME
419
ITEM: POSITIONS
1, 1, 3.4229, 4.77897, -1.54561
ITEM: TIME
420
ITEM: POSITIONS
1, 1, 2.93911, 4.75529, -0.000557254
ITEM: TIME
421
ITEM: POSITIONS
1, 1, 2.40896, 4.73044, 1.54455
ITEM: TIME
422
ITEM: POSITIONS
1, 1, 1.84083, 4.70441, 2.93847
ITEM: TIME
423
ITEM: POSITIONS
1, 1, 1.24367, 4.67723, 4.04476
ITEM: TIME
424
ITEM: POSITIONS
1, 1, 0.626889, 4.64889, 4.75511
ITEM: TIME
425
ITEM: POSITIONS
1, 1, 0.000225555, 4.61941, 5
ITEM: TIME
426
ITEM: POSITIONS
1, 1, -0.626442, 4.58878, 4.75546
ITEM: TIME
427
ITEM: POSITIONS
1, 1, -1.24323, 4.55703, 4.04542
ITEM: TIME
428
ITEM: POSITIONS
1, 1, -1.84041, 4.52415, 2.93939
ITEM: TIME
429
ITEM: POSITIONS
1, 1, -2.40857, 4.49015, 1.54563
ITEM: TIME
430
ITEM: POSITIONS
1, 1, -2.93874, 4.45505, 0.000570522
ITEM: TIME
431
ITEM: POSITIONS
1, 1, -3.42257, 4.41884, -1.54454
ITEM: TIME
432
ITEM: POSITIONS
1, 1, -3.85242, 4.38155, -2.93846
ITEM: TIME
433
ITEM: POSITIONS
1, 1, -4.22152, 4.34317, -4.04475
ITEM: TIME
434
ITEM: POSITIONS
1, 1, -4.52404, 4.30372, -4.7551
ITEM: TIME
435
ITEM: POSITIONS
1, 1, -4.75521, 4.26322, -5
ITEM: TIME
436
ITEM: POSITIONS
1, 1, -4.91139, 4.22166, -4.75546
ITEM: TIME
437
ITEM: POSITIONS
1, 1, -4.99012, 4.17905, -4.04543
ITEM: TIME
438
ITEM: POSITIONS
1, 1, -4.99015, 4.13542, -2.9394
ITEM: TIME
439
ITEM: POSITIONS
1, 1, -4.91148, 4.09077, -1.54564
ITEM: TIME
440
ITEM: POSITIONS
1, 1, -4.75535, 4.0451, -0.00058379
ITEM: TIME
441
ITEM: POSITIONS
1, 1, -4.52423, 3.99844, 1.54453
ITEM: TIME
442
ITEM: POSITIONS
1, 1, -4.22177, 3.95079, 2.93845
ITEM: TIME
443
ITEM: POSITIONS
1, 1, -3.85272, 3.90217, 4.04474
ITEM: TIME
444
ITEM: POSITIONS
1, 1, -3.42291, 3.85258, 4.7551
ITEM: TIME
445
ITEM: POSITIONS
1, 1, -2.93912, 3.80205, 5
ITEM: TIME
446
ITEM: POSITIONS
1, 1, -2.40898, 3.75057, 4.75547
ITEM: TIME
447
ITEM: POSITIONS
1, 1, -1.84084, 3.69818, 4.04543
ITEM: TIME
448
ITEM: POSITIONS
1, 1, -1.24368, 3.64486, 2.93941
ITEM: TIME
449
ITEM: POSITIONS
1, 1, -0.626903, 3.59065, 1.54565
ITEM: TIME
450
ITEM: POSITIONS
1, 1, -0.000238823, 3.53556, 0.000597058
ITEM: TIME
451
ITEM: POSITIONS
1, 1, 0.626429, 3.47959, -1.54452
ITEM: TIME
452
ITEM: POSITIONS
1, 1, 1.24322, 3.42276, -2.93844
ITEM: TIME
453
ITEM: POSITIONS
1, 1, 1.8404, 3.36508, -4.04473
ITEM: TIME
454
ITEM: POSITIONS
1, 1, 2.40856, 3.30658, -4.7551
ITEM: TIME
455
ITEM: POSITIONS
1, 1, 2.93873, 3.24726, -5
ITEM: TIME
456
ITEM: POSITIONS
1, 1, 3.42256, 3.18714, -4.75547
ITEM: TIME
457
ITEM: POSITIONS
1, 1, 3.85241, 3.12624, -4.04544
ITEM: TIME
458
ITEM: POSITIONS
1, 1, 4.22151, 3.06456, -2.93942
ITEM: TIME
459
ITEM: POSITIONS
1, 1, 4.52403, 3.00213, -1.54566
ITEM: TIME
460
ITEM: POSITIONS
1, 1, 4.75521, 2.93895, -0.000610326
ITEM: TIME
461
ITEM: POSITIONS
1, 1, 4.91139, 2.87505, 1.5445
ITEM: TIME
462
ITEM: POSITIONS
1, 1, 4.99012, 2.81044, 2.93843
ITEM: TIME
463
ITEM: POSITIONS
1, 1, 4.99015, 2.74514, 4.04472
ITEM: TIME
464
ITEM: POSITIONS
1, 1, 4.91148, 2.67916, 4.75509
ITEM: TIME
465
ITEM: POSITIONS
1, 1, 4.75536, 2.61252, 5
ITEM: TIME
466
ITEM: POSITIONS
1, 1, 4.52424, 2.54523, 4.75547
ITEM: TIME
467
ITEM: POSITIONS
1, 1, 4.22177, 2.47732, 4.04545
ITEM: TIME