LAMMPS (11 Nov 2013-ICMS)
  using 1 OpenMP thread(s) per MPI task
Lattice spacing in x,y,z = 3.52 3.52 3.52
Created orthogonal box = (0 0 0) to (70.4 70.4 70.4)
  1 by 1 by 1 MPI processor grid
Created 32000 atoms
Memory usage per processor = 25.3024 Mbytes
Step Temp E_pair E_mol TotEng Press 
       0         1600      -142400            0   -135782.09    20259.105 
      10    610.26123   -138272.27            0   -135748.11    34704.705 
      20    860.93609   -139306.61            0   -135745.61     31442.21 
      30    738.80215   -138795.71            0   -135739.88    33152.761 
      40    731.96088   -138765.93            0   -135738.39    33465.369 
      50    755.32171    -138863.3            0   -135739.14    32875.516 
      60    749.93083   -138841.58            0   -135739.72    32730.309 
      70    780.97098    -138971.8            0   -135741.55    32433.664 
      80      787.434   -138999.46            0   -135742.47    32271.526 
      90    789.50519   -139008.26            0   -135742.72    32127.727 
     100    793.05485   -139023.13            0    -135742.9    32175.694 

Loop time of 13.6684 on 1 procs for 100 steps with 32000 atoms
99.9% CPU use with 1 MPI tasks x 1 OpenMP threads
Performance: 3.161 ns/day  7.594 hours/ns  7.316 timesteps/s

MPI task timings breakdown:
Section |  min time  |  avg time  |  max time  |%varavg| %total
---------------------------------------------------------------
Pair    | 12.946     | 12.946     | 12.946     |   0.0 | 94.71
Neigh   | 0.64378    | 0.64378    | 0.64378    |   0.0 |  4.71
Comm    | 0.027343   | 0.027343   | 0.027343   |   0.0 |  0.20
Output  | 0.0016475  | 0.0016475  | 0.0016475  |   0.0 |  0.01
Modify  | 0.035768   | 0.035768   | 0.035768   |   0.0 |  0.26
Other   |            | 0.01407    |            |       |  0.10

Nlocal:    32000 ave 32000 max 32000 min
Histogram: 1 0 0 0 0 0 0 0 0 0
Nghost:    19911 ave 19911 max 19911 min
Histogram: 1 0 0 0 0 0 0 0 0 0
Neighs:    1.33704e+06 ave 1.33704e+06 max 1.33704e+06 min
Histogram: 1 0 0 0 0 0 0 0 0 0

Total # of neighbors = 1337035
Ave neighs/atom = 41.7823
Neighbor list builds = 13
Dangerous builds = 0
