LAMMPS (7 Aug 2019)
variable number	equal 1
variable ofreq	equal 1000
variable efreq	equal 1000
variable T      equal 0.1

units lj

dimension 3

newton off

boundary  p p p

atom_style hybrid bond ellipsoid
atom_modify sort 0 1.0

# Pair interactions require lists of neighbours to be calculated
neighbor 1.0 bin
neigh_modify every 1 delay 0 check yes

read_data data.duplex1
  orthogonal box = (-20 -20 -20) to (20 20 20)
  1 by 1 by 1 MPI processor grid
  reading atoms ...
  10 atoms
  reading velocities ...
  10 velocities
  10 ellipsoids
  scanning bonds ...
  2 = max bonds/atom
  reading bonds ...
  8 bonds
  2 = max # of 1-2 neighbors
  2 = max # of 1-3 neighbors
  2 = max # of 1-4 neighbors
  4 = max # of special neighbors
  special bonds CPU = 0.000116 secs
  read_data CPU = 0.002026 secs

set atom * mass 3.1575
  10 settings made for mass

group all type 1 4
10 atoms in group all

# oxDNA2 bond interactions - FENE backbone
bond_style oxdna2/fene
bond_coeff * 2.0 0.25 0.7564

# oxDNA2 pair interactions
pair_style hybrid/overlay oxdna2/excv oxdna2/stk oxdna2/hbond oxdna2/xstk oxdna2/coaxstk oxdna2/dh
pair_coeff * * oxdna2/excv    2.0 0.7 0.675 2.0 0.515 0.5 2.0 0.33 0.32
pair_coeff * * oxdna2/stk     seqav ${T} 1.3523 2.6717 6.0 0.4 0.9 0.32 0.75 1.3 0 0.8 0.9 0 0.95 0.9 0 0.95 2.0 0.65 2.0 0.65
pair_coeff * * oxdna2/stk     seqav 0.1 1.3523 2.6717 6.0 0.4 0.9 0.32 0.75 1.3 0 0.8 0.9 0 0.95 0.9 0 0.95 2.0 0.65 2.0 0.65
pair_coeff * * oxdna2/hbond   seqav 0.0 8.0 0.4 0.75 0.34 0.7 1.5 0 0.7 1.5 0 0.7 1.5 0 0.7 0.46 3.141592653589793 0.7 4.0 1.5707963267948966 0.45 4.0 1.5707963267948966 0.45
pair_coeff 1 4 oxdna2/hbond   seqav 1.0678 8.0 0.4 0.75 0.34 0.7 1.5 0 0.7 1.5 0 0.7 1.5 0 0.7 0.46 3.141592653589793 0.7 4.0 1.5707963267948966 0.45 4.0 1.5707963267948966 0.45
pair_coeff 2 3 oxdna2/hbond   seqav 1.0678 8.0 0.4 0.75 0.34 0.7 1.5 0 0.7 1.5 0 0.7 1.5 0 0.7 0.46 3.141592653589793 0.7 4.0 1.5707963267948966 0.45 4.0 1.5707963267948966 0.45
pair_coeff * * oxdna2/xstk    47.5 0.575 0.675 0.495 0.655 2.25 0.791592653589793 0.58 1.7 1.0 0.68 1.7 1.0 0.68 1.5 0 0.65 1.7 0.875 0.68 1.7 0.875 0.68
pair_coeff * * oxdna2/coaxstk 58.5 0.4 0.6 0.22 0.58 2.0 2.891592653589793 0.65 1.3 0 0.8 0.9 0 0.95 0.9 0 0.95 40.0 3.116592653589793
pair_coeff * * oxdna2/dh      ${T} 1.0 0.815
pair_coeff * * oxdna2/dh      0.1 1.0 0.815

# NVE ensemble
fix 1 all nve/dot
#fix 1 all nve/dotc/langevin ${T} ${T} 0.03 457145 angmom 10
#fix 1 all nve/asphere
#fix 2 all langevin ${T} ${T} 0.03 457145 angmom 10

timestep 1e-5

#comm_style tiled
#fix 3 all balance 10000 1.1 rcb

#compute mol all chunk/atom molecule
#compute mychunk all vcm/chunk mol
#fix 4 all ave/time 10000 1 10000 c_mychunk[1] c_mychunk[2] c_mychunk[3] file vcm.txt mode vector

#dump pos all xyz ${ofreq} traj.${number}.xyz

#compute quat all property/atom quatw quati quatj quatk
#dump quat all custom ${ofreq} quat.${number}.txt id c_quat[1] c_quat[2] c_quat[3] c_quat[4]
#dump_modify quat sort id
#dump_modify quat format line "%d  %13.6le  %13.6le  %13.6le  %13.6le"

compute erot all erotate/asphere
compute ekin all ke
compute epot all pe
variable erot equal c_erot
variable ekin equal c_ekin
variable epot equal c_epot
variable etot equal c_erot+c_ekin+c_epot
fix 5 all print ${efreq} "$(step)  ekin = ${ekin} |  erot = ${erot} | epot = ${epot} | etot = ${etot}" screen yes
fix 5 all print 1000 "$(step)  ekin = ${ekin} |  erot = ${erot} | epot = ${epot} | etot = ${etot}" screen yes

#dump out all custom ${ofreq} out.${number}.txt id x y z vx vy vz fx fy fz tqx tqy tqz
#dump_modify out sort id
#dump_modify out format line "%d   %13.6le %13.6le %13.6le  %13.6le %13.6le %13.6le  %13.6le %13.6le %13.6le  %13.6le %13.6le %13.6le"

run 1000000
Neighbor list info ...
  update every 1 steps, delay 0 steps, check yes
  max neighbors/atom: 2000, page size: 100000
  master list distance cutoff = 2.6274
  ghost atom cutoff = 2.6274
  binsize = 1.3137, bins = 31 31 31
  6 neighbor lists, perpetual/occasional/extra = 6 0 0
  (1) pair oxdna2/excv, perpetual
      attributes: half, newton off
      pair build: half/bin/newtoff
      stencil: half/bin/3d/newtoff
      bin: standard
  (2) pair oxdna2/stk, perpetual, copy from (1)
      attributes: half, newton off
      pair build: copy
      stencil: none
      bin: none
  (3) pair oxdna2/hbond, perpetual, copy from (1)
      attributes: half, newton off
      pair build: copy
      stencil: none
      bin: none
  (4) pair oxdna2/xstk, perpetual, copy from (1)
      attributes: half, newton off
      pair build: copy
      stencil: none
      bin: none
  (5) pair oxdna2/coaxstk, perpetual, copy from (1)
      attributes: half, newton off
      pair build: copy
      stencil: none
      bin: none
  (6) pair oxdna2/dh, perpetual, copy from (1)
      attributes: half, newton off
      pair build: copy
      stencil: none
      bin: none
Per MPI rank memory allocation (min/avg/max) = 3.024 | 3.024 | 3.024 Mbytes
Step Temp E_pair E_mol TotEng Press 
       0            0   -1.4712768  0.009525411   -1.4617514 4.663076e-06 
1000  ekin = 0.00113086229080528 |  erot = 0.0043101016040658 | epot = -14.6229549982368 | etot = -14.617514034342
2000  ekin = 0.0044853322434243 |  erot = 0.0171407706505008 | epot = -14.6391401372615 | etot = -14.6175140343675
3000  ekin = 0.00995035259649285 |  erot = 0.0381961780846484 | epot = -14.6656605650904 | etot = -14.6175140344093
4000  ekin = 0.0173418024862054 |  erot = 0.0669935184860634 | epot = -14.7018493554381 | etot = -14.6175140344659
5000  ekin = 0.0264109356286075 |  erot = 0.102878288094517 | epot = -14.7468032582586 | etot = -14.6175140345355
6000  ekin = 0.0368533113591442 |  erot = 0.14504542056987 | epot = -14.7994127665447 | etot = -14.6175140346157
7000  ekin = 0.0483200640564843 |  erot = 0.192565862515508 | epot = -14.8583999612756 | etot = -14.6175140347036
8000  ekin = 0.0604312317605998 |  erot = 0.244417870131508 | epot = -14.9223631366883 | etot = -14.6175140347962
9000  ekin = 0.0727907119671751 |  erot = 0.299521949931839 | epot = -14.989826696789 | etot = -14.6175140348899
10000  ekin = 0.0850022498875221 |  erot = 0.356777997217902 | epot = -15.0592942820869 | etot = -14.6175140349815
11000  ekin = 0.0966857134041704 |  erot = 0.415102860829614 | epot = -15.1293026093013 | etot = -14.6175140350675
12000  ekin = 0.107492790688446 |  erot = 0.473466334178045 | epot = -15.1984731600115 | etot = -14.617514035145
13000  ekin = 0.117121180381715 |  erot = 0.530923485009724 | epot = -15.2655587006029 | etot = -14.6175140352115
14000  ekin = 0.125326348459166 |  erot = 0.586641324447693 | epot = -15.329481708172 | etot = -14.6175140352651
15000  ekin = 0.131930017119452 |  erot = 0.639918104234695 | epot = -15.389362156659 | etot = -14.6175140353048
16000  ekin = 0.136824741331535 |  erot = 0.690194029501056 | epot = -15.4445328061632 | etot = -14.6175140353306
17000  ekin = 0.139974218116303 |  erot = 0.73705286614779 | epot = -15.4945411196072 | etot = -14.6175140353432
18000  ekin = 0.141409342139924 |  erot = 0.780214750583505 | epot = -15.5391381280674 | etot = -14.617514035344
19000  ekin = 0.14122042490348 |  erot = 0.819521373491594 | epot = -15.5782558337303 | etot = -14.6175140353352
20000  ekin = 0.139546371890615 |  erot = 0.854915474127934 | epot = -15.6119758813378 | etot = -14.6175140353193
21000  ekin = 0.136561897558623 |  erot = 0.886417110947779 | epot = -15.6404930438051 | etot = -14.6175140352987
22000  ekin = 0.132464002543739 |  erot = 0.914099368829953 | epot = -15.6640774066495 | etot = -14.6175140352758
23000  ekin = 0.127458921012922 |  erot = 0.938065991541773 | epot = -15.6830389478072 | etot = -14.6175140352525
24000  ekin = 0.121750582423385 |  erot = 0.958432936326242 | epot = -15.6976975539802 | etot = -14.6175140352305
25000  ekin = 0.115531361418989 |  erot = 0.97531514293118 | epot = -15.7083605395609 | etot = -14.6175140352107
26000  ekin = 0.108975565586104 |  erot = 0.988819027952036 | epot = -15.7153086287315 | etot = -14.6175140351934
27000  ekin = 0.102235785319049 |  erot = 0.999040485514132 | epot = -15.7187903060115 | etot = -14.6175140351783
28000  ekin = 0.095441943431881 |  erot = 1.00606759140964 | epot = -15.7190235700066 | etot = -14.6175140351651
29000  ekin = 0.0887026587343887 |  erot = 1.00998681843601 | epot = -15.7162035123233 | etot = -14.6175140351529
30000  ekin = 0.0821083868014372 |  erot = 1.01089138149893 | epot = -15.7105138034411 | etot = -14.6175140351407
31000  ekin = 0.0757357206087773 |  erot = 1.00889031641317 | epot = -15.7021400721498 | etot = -14.6175140351278
32000  ekin = 0.0696522149388972 |  erot = 1.00411701389994 | epot = -15.691283263952 | etot = -14.6175140351132
33000  ekin = 0.0639211300028632 |  erot = 0.996736133735177 | epot = -15.6781712988344 | etot = -14.6175140350964
34000  ekin = 0.0586055597939536 |  erot = 0.986948071943124 | epot = -15.6630676668141 | etot = -14.617514035077
35000  ekin = 0.0537715085519321 |  erot = 0.97499041461744 | epot = -15.6462759582244 | etot = -14.617514035055
36000  ekin = 0.0494895953264297 |  erot = 0.961136064967259 | epot = -15.6281396953245 | etot = -14.6175140350308
37000  ekin = 0.0458351949405726 |  erot = 0.945687966086967 | epot = -15.6090371960325 | etot = -14.617514035005
38000  ekin = 0.0428869588016531 |  erot = 0.928970560852795 | epot = -15.5893715546332 | etot = -14.6175140349787
39000  ekin = 0.0407237982122988 |  erot = 0.9113183396798 | epot = -15.5695561728451 | etot = -14.617514034953
40000  ekin = 0.0394205547754457 |  erot = 0.893062038097747 | epot = -15.5499966278026 | etot = -14.6175140349294
41000  ekin = 0.0390427256107104 |  erot = 0.874513269990878 | epot = -15.5310700305109 | etot = -14.6175140349093
42000  ekin = 0.0396407506458402 |  erot = 0.855948622306271 | epot = -15.5131034078461 | etot = -14.617514034894
43000  ekin = 0.0412444930542154 |  erot = 0.837594480923697 | epot = -15.4963530088628 | etot = -14.6175140348849
44000  ekin = 0.0438586280730372 |  erot = 0.819614069272971 | epot = -15.4809867322287 | etot = -14.6175140348826
45000  ekin = 0.0474596621516281 |  erot = 0.802098297010783 | epot = -15.4670719940501 | etot = -14.6175140348877
46000  ekin = 0.0519951857192148 |  erot = 0.785061947877571 | epot = -15.4545711684965 | etot = -14.6175140348997
47000  ekin = 0.0573856747191636 |  erot = 0.76844639238657 | epot = -15.4433461020232 | etot = -14.6175140349174
48000  ekin = 0.0635286843632004 |  erot = 0.75212933501618 | epot = -15.433172054319 | etot = -14.6175140349396
49000  ekin = 0.070304673538874 |  erot = 0.735941123250837 | epot = -15.4237598317539 | etot = -14.6175140349642
50000  ekin = 0.0775831019857076 |  erot = 0.719686007781425 | epot = -15.4147831447563 | etot = -14.6175140349892
51000  ekin = 0.0852270843845694 |  erot = 0.703165726695028 | epot = -15.4059068460928 | etot = -14.6175140350132
52000  ekin = 0.0930950223451647 |  erot = 0.686202231166125 | epot = -15.396811288546 | etot = -14.6175140350347
53000  ekin = 0.101038429252995 |  erot = 0.668656546988927 | epot = -15.3872090112954 | etot = -14.6175140350535
54000  ekin = 0.10889654098061 |  erot = 0.650441726174306 | epot = -15.3768523022246 | etot = -14.6175140350697
55000  ekin = 0.116489881626234 |  erot = 0.631529329348001 | epot = -15.3655332460579 | etot = -14.6175140350836
56000  ekin = 0.12361610349192 |  erot = 0.611950383382611 | epot = -15.35308052197 | etot = -14.6175140350954
57000  ekin = 0.130051530401153 |  erot = 0.591792721317295 | epot = -15.3393582868232 | etot = -14.6175140351048
58000  ekin = 0.135560625193501 |  erot = 0.571196690673292 | epot = -15.3242713509773 | etot = -14.6175140351105
59000  ekin = 0.139913350827135 |  erot = 0.550350463180279 | epot = -15.307777849119 | etot = -14.6175140351115
60000  ekin = 0.142907875045794 |  erot = 0.529485019662529 | epot = -15.2899069298147 | etot = -14.6175140351063
61000  ekin = 0.144394224777542 |  erot = 0.508867904998907 | epot = -15.2707761648706 | etot = -14.6175140350941
62000  ekin = 0.144294003785763 |  erot = 0.488794507592477 | epot = -15.2506025464531 | etot = -14.6175140350748
63000  ekin = 0.142612256998146 |  erot = 0.469576039421557 | epot = -15.2297023314688 | etot = -14.6175140350491
64000  ekin = 0.139439544726902 |  erot = 0.45152434495459 | epot = -15.2084779247003 | etot = -14.6175140350188
65000  ekin = 0.134944526553566 |  erot = 0.434934714913839 | epot = -15.1873932764535 | etot = -14.6175140349861
66000  ekin = 0.129359146358223 |  erot = 0.420068607767106 | epot = -15.1669417890788 | etot = -14.6175140349535
67000  ekin = 0.122959458764236 |  erot = 0.407138362059705 | epot = -15.1476118557469 | etot = -14.617514034923
68000  ekin = 0.116045210525559 |  erot = 0.396295631876262 | epot = -15.1298548772986 | etot = -14.6175140348968
69000  ekin = 0.108920722072365 |  erot = 0.38762458997195 | epot = -15.1140593469202 | etot = -14.6175140348758
70000  ekin = 0.101878740729572 |  erot = 0.381140173640836 | epot = -15.1005329492313 | etot = -14.6175140348609
71000  ekin = 0.0951880561484016 |  erot = 0.376791007701538 | epot = -15.0894930987019 | etot = -14.617514034852
72000  ekin = 0.0890849677261927 |  erot = 0.374466237250371 | epot = -15.0810652398255 | etot = -14.6175140348489
73000  ekin = 0.0837682427021612 |  erot = 0.374005347599889 | epot = -15.0752876251531 | etot = -14.617514034851
74000  ekin = 0.0793969849744096 |  erot = 0.375210076750601 | epot = -15.0721210965825 | etot = -14.6175140348575
75000  ekin = 0.0760907865069267 |  erot = 0.377857644572265 | epot = -15.0714624659463 | etot = -14.6175140348671
76000  ekin = 0.0739315834908328 |  erot = 0.381714646755152 | epot = -15.0731602651247 | etot = -14.6175140348788
77000  ekin = 0.0729667273608161 |  erot = 0.386551032956121 | epot = -15.0770317952083 | etot = -14.6175140348914
78000  ekin = 0.073212865507933 |  erot = 0.392153586683229 | epot = -15.0828804870951 | etot = -14.617514034904
79000  ekin = 0.074660287835072 |  erot = 0.398338263929461 | epot = -15.09051258668 | etot = -14.6175140349155
80000  ekin = 0.0772774298944847 |  erot = 0.404960669863083 | epot = -15.0997521346826 | etot = -14.6175140349251
81000  ekin = 0.0810152396746107 |  erot = 0.411923913359048 | epot = -15.1104531879657 | etot = -14.617514034932
82000  ekin = 0.0858111278279411 |  erot = 0.419183131304986 | epot = -15.1225082940691 | etot = -14.6175140349362
83000  ekin = 0.0915922459205373 |  erot = 0.426746154030553 | epot = -15.1358524348887 | etot = -14.6175140349376
84000  ekin = 0.0982778862653023 |  erot = 0.434670094582779 | epot = -15.1504620157846 | etot = -14.6175140349365
85000  ekin = 0.105780875252123 |  erot = 0.443054055542032 | epot = -15.1663489657278 | etot = -14.6175140349337
86000  ekin = 0.114007936320491 |  erot = 0.452028591870552 | epot = -15.183550563121 | etot = -14.6175140349299
87000  ekin = 0.122859117093021 |  erot = 0.461742961599068 | epot = -15.2021161136185 | etot = -14.6175140349264
88000  ekin = 0.132226490250365 |  erot = 0.472351454260961 | epot = -15.2220919794351 | etot = -14.6175140349238
89000  ekin = 0.14199243043518 |  erot = 0.484000150228927 | epot = -15.2435066155872 | etot = -14.6175140349231
90000  ekin = 0.152027823848745 |  erot = 0.49681531383988 | epot = -15.2663571726137 | etot = -14.6175140349251
91000  ekin = 0.162190574344125 |  erot = 0.510894287760631 | epot = -15.2905988970349 | etot = -14.6175140349302
92000  ekin = 0.172324730223241 |  erot = 0.526299304076712 | epot = -15.3161380692387 | etot = -14.6175140349387
93000  ekin = 0.182260479602514 |  erot = 0.543054150883983 | epot = -15.342828665437 | etot = -14.6175140349505
94000  ekin = 0.191815166424497 |  erot = 0.561143224560487 | epot = -15.3704724259505 | etot = -14.6175140349655
95000  ekin = 0.200795384589871 |  erot = 0.580512230413669 | epot = -15.398821649987 | etot = -14.6175140349834
96000  ekin = 0.209000133284301 |  erot = 0.601069706845445 | epot = -15.4275838751336 | etot = -14.6175140350039
97000  ekin = 0.216224974983076 |  erot = 0.622688639933065 | epot = -15.4564276499427 | etot = -14.6175140350266
98000  ekin = 0.222267131485452 |  erot = 0.645207670246426 | epot = -15.4849888367829 | etot = -14.617514035051
99000  ekin = 0.226931474008822 |  erot = 0.668431711040234 | epot = -15.5128772201258 | etot = -14.6175140350768
100000  ekin = 0.230037392185194 |  erot = 0.692132125756912 | epot = -15.5396835530455 | etot = -14.6175140351034
101000  ekin = 0.231426538774339 |  erot = 0.716046886549487 | epot = -15.5649874604541 | etot = -14.6175140351302
102000  ekin = 0.230971416186116 |  erot = 0.739881303910906 | epot = -15.5883667552535 | etot = -14.6175140351565
103000  ekin = 0.228584676860968 |  erot = 0.763309953365433 | epot = -15.6094086654079 | etot = -14.6175140351815
104000  ekin = 0.224228843046698 |  erot = 0.785980326921886 | epot = -15.6277232051725 | etot = -14.6175140352039
105000  ekin = 0.217925953180593 |  erot = 0.807518535460022 | epot = -15.6429585238635 | etot = -14.6175140352229
106000  ekin = 0.209766205881976 |  erot = 0.827537066837565 | epot = -15.6548173079567 | etot = -14.6175140352372
107000  ekin = 0.19991466311948 |  erot = 0.845644346598459 | epot = -15.6630730449638 | etot = -14.6175140352459
108000  ekin = 0.188614735691129 |  erot = 0.861455562303715 | epot = -15.6675843332431 | etot = -14.6175140352483
109000  ekin = 0.176187061061687 |  erot = 0.874603999194433 | epot = -15.6683050955002 | etot = -14.6175140352441
110000  ekin = 0.163022626611995 |  erot = 0.88475208463374 | epot = -15.6652887464792 | etot = -14.6175140352335
111000  ekin = 0.14956938211077 |  erot = 0.89160140093568 | epot = -15.6586848182637 | etot = -14.6175140352173
112000  ekin = 0.136312261124986 |  erot = 0.8949011206007 | epot = -15.6487274169225 | etot = -14.6175140351968
113000  ekin = 0.123747404857758 |  erot = 0.894454602033368 | epot = -15.6357160420648 | etot = -14.6175140351736
114000  ekin = 0.112352324429831 |  erot = 0.890124196452667 | epot = -15.6199905560322 | etot = -14.6175140351497
115000  ekin = 0.102554569787556 |  erot = 0.881834585426713 | epot = -15.6019031903412 | etot = -14.6175140351269
116000  ekin = 0.0947020047096738 |  erot = 0.869575126614186 | epot = -15.5817911664307 | etot = -14.6175140351068
117000  ekin = 0.0890378681937318 |  erot = 0.853401690493949 | epot = -15.559953593778 | etot = -14.6175140350903
118000  ekin = 0.0856833736308548 |  erot = 0.833438318818926 | epot = -15.5366357275277 | etot = -14.6175140350779
119000  ekin = 0.0846297171118248 |  erot = 0.809878764032089 | epot = -15.5120225162133 | etot = -14.6175140350694
120000  ekin = 0.0857402026936468 |  erot = 0.782987649501416 | epot = -15.4862418872589 | etot = -14.6175140350638
121000  ekin = 0.088761978164944 |  erot = 0.753100709615785 | epot = -15.4593767228408 | etot = -14.61751403506
122000  ekin = 0.0933458418336512 |  erot = 0.720623403982127 | epot = -15.4314832808722 | etot = -14.6175140350564
123000  ekin = 0.0990718975139699 |  erot = 0.68602719834959 | epot = -15.4026131309152 | etot = -14.6175140350516
124000  ekin = 0.105478567535099 |  erot = 0.649842971567299 | epot = -15.3728355741467 | etot = -14.6175140350443
125000  ekin = 0.112092583657528 |  erot = 0.61265130691034 | epot = -15.3422579256011 | etot = -14.6175140350332
126000  ekin = 0.118457948670349 |  erot = 0.575069793125981 | epot = -15.3110417768144 | etot = -14.617514035018
127000  ekin = 0.124162352097832 |  erot = 0.537737821903371 | epot = -15.2794142089993 | etot = -14.6175140349981
128000  ekin = 0.128860000475183 |  erot = 0.501299660072983 | epot = -15.2476736955218 | etot = -14.6175140349736
129000  ekin = 0.132290197681538 |  erot = 0.466386755141783 | epot = -15.2161909877681 | etot = -14.6175140349448
130000  ekin = 0.134291248323408 |  erot = 0.433600287194685 | epot = -15.1854055704302 | etot = -14.6175140349121
131000  ekin = 0.134809368079367 |  erot = 0.403494917851113 | epot = -15.1558183208069 | etot = -14.6175140348764
132000  ekin = 0.133902311413259 |  erot = 0.376564532721602 | epot = -15.1279808789733 | etot = -14.6175140348385
133000  ekin = 0.131737425950174 |  erot = 0.353230559449875 | epot = -15.1024820201993 | etot = -14.6175140347993
134000  ekin = 0.128583872250139 |  erot = 0.333833200745338 | epot = -15.0799311077557 | etot = -14.6175140347602
135000  ekin = 0.124798858319487 |  erot = 0.31862567876175 | epot = -15.0609385718037 | etot = -14.6175140347224
136000  ekin = 0.12080796695122 |  erot = 0.307771366705934 | epot = -15.0460933683448 | etot = -14.6175140346877
137000  ekin = 0.117080018573556 |  erot = 0.301343503849859 | epot = -15.0359375570811 | etot = -14.6175140346577
138000  ekin = 0.114097404451637 |  erot = 0.299327064918768 | epot = -15.0309385040046 | etot = -14.6175140346342
139000  ekin = 0.112323403877397 |  erot = 0.301622293047273 | epot = -15.0314597315437 | etot = -14.6175140346191
140000  ekin = 0.112168587317134 |  erot = 0.308049410073558 | epot = -15.0377320320047 | etot = -14.617514034614
141000  ekin = 0.113958896787483 |  erot = 0.318354084563277 | epot = -15.0498270159712 | etot = -14.6175140346204
142000  ekin = 0.117908250110044 |  erot = 0.332213334114174 | epot = -15.0676356188633 | etot = -14.6175140346391
143000  ekin = 0.124098500240116 |  erot = 0.349241744868859 | epot = -15.0908542797794 | etot = -14.6175140346704
144000  ekin = 0.132469049162244 |  erot = 0.36899804234383 | epot = -15.1189811262199 | etot = -14.6175140347138
145000  ekin = 0.142817534773294 |  erot = 0.390992018433025 | epot = -15.1513235879745 | etot = -14.6175140347682
146000  ekin = 0.154812002594044 |  erot = 0.414692148538822 | epot = -15.1870181859643 | etot = -14.6175140348315
147000  ekin = 0.168013608208165 |  erot = 0.43953414756317 | epot = -15.2250617906724 | etot = -14.6175140349011
148000  ekin = 0.181907755044192 |  erot = 0.46493071599216 | epot = -15.2643525060103 | etot = -14.617514034974
149000  ekin = 0.195940689918404 |  erot = 0.490282644230507 | epot = -15.3037373691959 | etot = -14.6175140350469
150000  ekin = 0.209558115498161 |  erot = 0.514991307802203 | epot = -15.3420634584171 | etot = -14.6175140351168
151000  ekin = 0.222242375358722 |  erot = 0.538472447669863 | epot = -15.3782288582089 | etot = -14.6175140351803
152000  ekin = 0.233545181100895 |  erot = 0.560170967504241 | epot = -15.4112301838403 | etot = -14.6175140352351
153000  ekin = 0.243113638171897 |  erot = 0.579575715963473 | epot = -15.4402033894145 | etot = -14.6175140352791
154000  ekin = 0.250708030719563 |  erot = 0.596234520730074 | epot = -15.4644565867606 | etot = -14.617514035311
155000  ekin = 0.256210874594961 |  erot = 0.609768185048496 | epot = -15.4834930949732 | etot = -14.6175140353298
156000  ekin = 0.259627463842806 |  erot = 0.619882772314079 | epot = -15.4970242714923 | etot = -14.6175140353354
157000  ekin = 0.26107875673392 |  erot = 0.626379517381585 | epot = -15.5049723094438 | etot = -14.6175140353283
158000  ekin = 0.260787877594978 |  erot = 0.629161788909624 | epot = -15.5074637018139 | etot = -14.6175140353093
159000  ekin = 0.259061752299553 |  erot = 0.628238692725195 | epot = -15.5048144803046 | etot = -14.6175140352799
160000  ekin = 0.256269476948141 |  erot = 0.623725097357881 | epot = -15.4975086095477 | etot = -14.6175140352417
161000  ekin = 0.252818974262866 |  erot = 0.615838055765116 | epot = -15.4861710652245 | etot = -14.6175140351965
162000  ekin = 0.249133354781009 |  erot = 0.604889772114047 | epot = -15.4715371620415 | etot = -14.6175140351465
163000  ekin = 0.245628201594233 |  erot = 0.591277407066157 | epot = -15.4544196437542 | etot = -14.6175140350938
164000  ekin = 0.242690765770646 |  erot = 0.5754701254003 | epot = -15.4356749262112 | etot = -14.6175140350402
165000  ekin = 0.240661818237773 |  erot = 0.557993868664013 | epot = -15.4161697218898 | etot = -14.617514034988
166000  ekin = 0.239820672159938 |  erot = 0.539414388849556 | epot = -15.3967490959484 | etot = -14.6175140349389
167000  ekin = 0.24037368261711 |  erot = 0.520319112884873 | epot = -15.3782068303964 | etot = -14.6175140348944
168000  ekin = 0.24244635767351 |  erot = 0.501298426047331 | epot = -15.3612588185771 | etot = -14.6175140348562
169000  ekin = 0.246079081489649 |  erot = 0.482926967022199 | epot = -15.3465200833372 | etot = -14.6175140348253
170000  ekin = 0.2512263556708 |  erot = 0.465745518941327 | epot = -15.334485909415 | etot = -14.6175140348028
171000  ekin = 0.257759407502687 |  erot = 0.450244072412507 | epot = -15.3255175147045 | etot = -14.6175140347893
172000  ekin = 0.265471962315305 |  erot = 0.436846557572436 | epot = -15.3198325546728 | etot = -14.617514034785
173000  ekin = 0.274088992052948 |  erot = 0.425897760801831 | epot = -15.3175007876449 | etot = -14.6175140347901
174000  ekin = 0.283278228108448 |  erot = 0.417652965987037 | epot = -15.3184452288997 | etot = -14.6175140348042
175000  ekin = 0.292664164217591 |  erot = 0.412270652066437 | epot = -15.3224488511105 | etot = -14.6175140348264
176000  ekin = 0.301844276744599 |  erot = 0.409808663992694 | epot = -15.3291669755931 | etot = -14.6175140348558
177000  ekin = 0.310407103278429 |  erot = 0.410224178772685 | epot = -15.3381453169418 | etot = -14.6175140348907
178000  ekin = 0.317951707449239 |  erot = 0.413377690532346 | epot = -15.3488434329111 | etot = -14.6175140349295
179000  ekin = 0.324107901132174 |  erot = 0.419041092198358 | epot = -15.3606630283006 | etot = -14.6175140349701
180000  ekin = 0.328556397749118 |  erot = 0.426909726006353 | epot = -15.3729801587658 | etot = -14.6175140350103
181000  ekin = 0.331047834154798 |  erot = 0.436618006901549 | epot = -15.3851798761042 | etot = -14.6175140350478
182000  ekin = 0.331419420115411 |  erot = 0.447757936313848 | epot = -15.3966913915096 | etot = -14.6175140350804
183000  ekin = 0.329607792338432 |  erot = 0.459899520064776 | epot = -15.4070213475094 | etot = -14.6175140351062
184000  ekin = 0.325656516855951 |  erot = 0.472611792132538 | epot = -15.4157823441122 | etot = -14.6175140351237
185000  ekin = 0.319716934488103 |  erot = 0.485483030926984 | epot = -15.4227140005474 | etot = -14.6175140351323
186000  ekin = 0.312041347783061 |  erot = 0.498138700397667 | epot = -15.4276940833127 | etot = -14.6175140351319
187000  ekin = 0.302968200961952 |  erot = 0.510255791848641 | epot = -15.4307380279341 | etot = -14.6175140351235
188000  ekin = 0.292899787357099 |  erot = 0.521572552051206 | epot = -15.4319863745165 | etot = -14.6175140351082
189000  ekin = 0.282274048056294 |  erot = 0.531893031493142 | epot = -15.4316811146379 | etot = -14.6175140350885
190000  ekin = 0.271533034589587 |  erot = 0.541086413296707 | epot = -15.4301334829529 | etot = -14.6175140350666
191000  ekin = 0.261091384545769 |  erot = 0.54908161018572 | epot = -15.4276870297764 | etot = -14.6175140350449
192000  ekin = 0.251308489708551 |  erot = 0.555858063434352 | epot = -15.4246805881686 | etot = -14.6175140350257
193000  ekin = 0.242467771120031 |  erot = 0.561433978654736 | epot = -15.4214157847852 | etot = -14.6175140350104
194000  ekin = 0.2347655816246 |  erot = 0.565853352187793 | epot = -15.4181329688123 | etot = -14.6175140349999
195000  ekin = 0.228310848061445 |  erot = 0.569173077812631 | epot = -15.4149979608682 | etot = -14.6175140349941
196000  ekin = 0.223134890550306 |  erot = 0.57145120860725 | epot = -15.4121001341502 | etot = -14.6175140349926
197000  ekin = 0.219209242156003 |  erot = 0.572737138233763 | epot = -15.409460415384 | etot = -14.6175140349943
198000  ekin = 0.216468062809104 |  erot = 0.573064123808166 | epot = -15.4070462216152 | etot = -14.6175140349979
199000  ekin = 0.214831137522652 |  erot = 0.572444258403913 | epot = -15.4047894309289 | etot = -14.6175140350023
200000  ekin = 0.214223573902254 |  erot = 0.57086576066316 | epot = -15.4026033695722 | etot = -14.6175140350067
201000  ekin = 0.214589119166907 |  erot = 0.568292309386801 | epot = -15.4003954635645 | etot = -14.6175140350107
202000  ekin = 0.215895325602457 |  erot = 0.564664121433424 | epot = -15.3980734820503 | etot = -14.6175140350145
203000  ekin = 0.218130347570136 |  erot = 0.559900543318492 | epot = -15.395544925907 | etot = -14.6175140350184
204000  ekin = 0.221292667473869 |  erot = 0.553904074217835 | epot = -15.3927107767149 | etot = -14.6175140350232
205000  ekin = 0.225376258610798 |  erot = 0.546565915588112 | epot = -15.3894562092286 | etot = -14.6175140350297
206000  ekin = 0.230354397529151 |  erot = 0.537773288683187 | epot = -15.3856417212507 | etot = -14.6175140350384
207000  ekin = 0.236165428414771 |  erot = 0.527418806929786 | epot = -15.3810982703936 | etot = -14.617514035049
208000  ekin = 0.242703261860427 |  erot = 0.515412077175151 | epot = -15.3756293740966 | etot = -14.617514035061
209000  ekin = 0.249814382550021 |  erot = 0.501693407691568 | epot = -15.3690218253148 | etot = -14.6175140350732
210000  ekin = 0.257301864855649 |  erot = 0.486249049965564 | epot = -15.361064949905 | etot = -14.6175140350838
211000  ekin = 0.264935635394273 |  erot = 0.469126912720557 | epot = -15.3515765832057 | etot = -14.6175140350909
212000  ekin = 0.272467183646406 |  erot = 0.450451153648061 | epot = -15.3404323723872 | etot = -14.6175140350927
213000  ekin = 0.279646306736793 |  erot = 0.430433702677846 | epot = -15.3275940445023 | etot = -14.6175140350876
214000  ekin = 0.286237611276688 |  erot = 0.409381288017783 | epot = -15.3131329343691 | etot = -14.6175140350746
215000  ekin = 0.292034643872632 |  erot = 0.387696263734527 | epot = -15.2972449426606 | etot = -14.6175140350534
216000  ekin = 0.296870258152624 |  erot = 0.365870567411729 | epot = -15.2802548605889 | etot = -14.6175140350245
217000  ekin = 0.300622666324868 |  erot = 0.344472695102956 | epot = -15.2626093964168 | etot = -14.617514034989
218000  ekin = 0.303217269541043 |  erot = 0.324128407398458 | epot = -15.2448597118882 | etot = -14.6175140349487
219000  ekin = 0.304624843911682 |  erot = 0.305496496152239 | epot = -15.2276353749694 | etot = -14.6175140349055
220000  ekin = 0.304856982073792 |  erot = 0.289241221676068 | epot = -15.2116122386118 | etot = -14.6175140348619
221000  ekin = 0.303959749544065 |  erot = 0.276003133762455 | epot = -15.1974769181266 | etot = -14.61751403482
222000  ekin = 0.302006434070655 |  erot = 0.266369862265548 | epot = -15.1858903311184 | etot = -14.6175140347822
223000  ekin = 0.299090105490396 |  erot = 0.260848208954625 | epot = -15.1774523491954 | etot = -14.6175140347503
224000  ekin = 0.29531650374511 |  erot = 0.259838588557332 | epot = -15.1726691270288 | etot = -14.6175140347264
225000  ekin = 0.290797600317434 |  erot = 0.263612591735795 | epot = -15.1719242267649 | etot = -14.6175140347117
226000  ekin = 0.285646103232653 |  erot = 0.272294318080247 | epot = -15.1754544560203 | etot = -14.6175140347074
227000  ekin = 0.279971018689074 |  erot = 0.285846075011501 | epot = -15.1833311284151 | etot = -14.6175140347145
228000  ekin = 0.273874374727583 |  erot = 0.304059069119542 | epot = -15.1954474785804 | etot = -14.6175140347333
229000  ekin = 0.267449174159942 |  erot = 0.326549807965912 | epot = -15.2115130168895 | etot = -14.6175140347636
230000  ekin = 0.260778614118952 |  erot = 0.352763004039877 | epot = -15.2310556529637 | etot = -14.6175140348048
231000  ekin = 0.253936564976955 |  erot = 0.381981763344646 | epot = -15.2534323631772 | etot = -14.6175140348556
232000  ekin = 0.24698923084228 |  erot = 0.413345683736504 | epot = -15.2778489494931 | etot = -14.6175140349143
233000  ekin = 0.239997814735683 |  erot = 0.445877135783545 | epot = -15.3033889854978 | etot = -14.6175140349785
234000  ekin = 0.233021891669698 |  erot = 0.478515439398703 | epot = -15.3290513661138 | etot = -14.6175140350454
235000  ekin = 0.226123071286244 |  erot = 0.510157919201248 | epot = -15.3537950255994 | etot = -14.6175140351119
236000  ekin = 0.219368436952614 |  erot = 0.539706010633753 | epot = -15.3765884827609 | etot = -14.6175140351745
237000  ekin = 0.212833212708479 |  erot = 0.566113832023268 | epot = -15.3964610799618 | etot = -14.6175140352301
238000  ekin = 0.206602165162757 |  erot = 0.588436180449468 | epot = -15.412552380888 | etot = -14.6175140352757
239000  ekin = 0.200769360307635 |  erot = 0.605872583258753 | epot = -15.4241559788757 | etot = -14.6175140353093
240000  ekin = 0.195436190928488 |  erot = 0.617803458378408 | epot = -15.4307536846362 | etot = -14.6175140353293
241000  ekin = 0.190707920284559 |  erot = 0.623817360381655 | epot = -15.4320393160013 | etot = -14.6175140353351
242000  ekin = 0.186689132523883 |  erot = 0.623726737660644 | epot = -15.4279299055112 | etot = -14.6175140353267
243000  ekin = 0.18347888087463 |  erot = 0.61757185737741 | epot = -15.418564773557 | etot = -14.617514035305
244000  ekin = 0.181166166759762 |  erot = 0.60561292371356 | epot = -15.4042931257446 | etot = -14.6175140352713
245000  ekin = 0.179826690515581 |  erot = 0.588311983398978 | epot = -15.3856527091421 | etot = -14.6175140352276
246000  ekin = 0.179521473344392 |  erot = 0.566306329740652 | epot = -15.3633418382609 | etot = -14.6175140351758
247000  ekin = 0.180297726608685 |  erot = 0.54037552872489 | epot = -15.3381872904519 | etot = -14.6175140351184
248000  ekin = 0.182192022180427 |  erot = 0.511404282992934 | epot = -15.3111103402306 | etot = -14.6175140350572
249000  ekin = 0.185235475058219 |  erot = 0.480343275338998 | epot = -15.2830927853917 | etot = -14.6175140349945
250000  ekin = 0.18946032457762 |  erot = 0.448169956263045 | epot = -15.2551443157728 | etot = -14.6175140349321
251000  ekin = 0.194907020011059 |  erot = 0.415851007133659 | epot = -15.2282720620165 | etot = -14.6175140348718
252000  ekin = 0.201630699422451 |  erot = 0.384307951122869 | epot = -15.2034526853603 | etot = -14.617514034815
253000  ekin = 0.209705815254746 |  erot = 0.354387113740477 | epot = -15.1816069637584 | etot = -14.6175140347632
254000  ekin = 0.219227629545986 |  erot = 0.326834860919931 | epot = -15.1635765251836 | etot = -14.6175140347177
255000  ekin = 0.230309407956005 |  erot = 0.302278768995696 | epot = -15.1501022116313 | etot = -14.6175140346796
256000  ekin = 0.243074422920893 |  erot = 0.281215109558497 | epot = -15.1418035671295 | etot = -14.6175140346501
257000  ekin = 0.257642364628865 |  erot = 0.264002762945737 | epot = -15.139159162205 | etot = -14.6175140346304
258000  ekin = 0.274110461102935 |  erot = 0.250863404057276 | epot = -15.1424878997817 | etot = -14.6175140346215
259000  ekin = 0.292530483428745 |  erot = 0.241887528332562 | epot = -15.1519320463858 | etot = -14.6175140346245
260000  ekin = 0.312883750214262 |  erot = 0.237045600990929 | epot = -15.167443385845 | etot = -14.6175140346398
261000  ekin = 0.335057071665646 |  erot = 0.23620332462488 | epot = -15.1887744309582 | etot = -14.6175140346677
262000  ekin = 0.358823075932977 |  erot = 0.239139750883904 | epot = -15.2154768615246 | etot = -14.6175140347077
263000  ekin = 0.383828346058697 |  erot = 0.24556675356939 | epot = -15.2469091343868 | etot = -14.6175140347588
264000  ekin = 0.409592161639846 |  erot = 0.25514829095879 | epot = -15.2822544874178 | etot = -14.6175140348192
265000  ekin = 0.435517425641053 |  erot = 0.267517972446926 | epot = -15.3205494329745 | etot = -14.6175140348865
266000  ekin = 0.460913759434934 |  erot = 0.28229374222826 | epot = -15.3607215366211 | etot = -14.6175140349579
267000  ekin = 0.485031075314244 |  erot = 0.299088986461549 | epot = -15.4016340968062 | etot = -14.6175140350304
268000  ekin = 0.507100517474285 |  erot = 0.317519986657596 | epot = -15.4421345392328 | etot = -14.6175140351009
269000  ekin = 0.526378761164296 |  erot = 0.337210258004039 | epot = -15.4811030543346 | etot = -14.6175140351662
270000  ekin = 0.542191399558024 |  erot = 0.357792786171182 | epot = -15.5174982209533 | etot = -14.6175140352241
271000  ekin = 0.55397150127625 |  erot = 0.378911394713957 | epot = -15.5503969312626 | etot = -14.6175140352724
272000  ekin = 0.561290243477908 |  erot = 0.400222387434508 | epot = -15.579026666222 | etot = -14.6175140353095
273000  ekin = 0.563877614618956 |  erot = 0.421397250044594 | epot = -15.6027888999983 | etot = -14.6175140353347
274000  ekin = 0.561632338448697 |  erot = 0.442126671656052 | epot = -15.6212730454525 | etot = -14.6175140353478
275000  ekin = 0.554621238225524 |  erot = 0.462125606775959 | epot = -15.6342608803503 | etot = -14.6175140353488
276000  ekin = 0.543069132888247 |  erot = 0.481138682332307 | epot = -15.6417218505594 | etot = -14.6175140353389
277000  ekin = 0.527340979966703 |  erot = 0.498945052082944 | epot = -15.6438000673687 | etot = -14.617514035319
278000  ekin = 0.507918337218215 |  erot = 0.515361832412993 | epot = -15.6407942049222 | etot = -14.617514035291
279000  ekin = 0.485372319602766 |  erot = 0.53024547360125 | epot = -15.6331318284605 | etot = -14.6175140352565
280000  ekin = 0.460335116507262 |  erot = 0.543490744710295 | epot = -15.6213398964351 | etot = -14.6175140352175
281000  ekin = 0.433471859961099 |  erot = 0.555027349455695 | epot = -15.606013244593 | etot = -14.6175140351762
282000  ekin = 0.405454262481042 |  erot = 0.564814480005611 | epot = -15.5877827776215 | etot = -14.6175140351348
283000  ekin = 0.376937038993841 |  erot = 0.572833827991569 | epot = -15.56728490208 | etot = -14.6175140350946
284000  ekin = 0.348537747962758 |  erot = 0.579081711929156 | epot = -15.5451334949486 | etot = -14.6175140350567
285000  ekin = 0.320820372083395 |  erot = 0.583561068644996 | epot = -15.5218954757513 | etot = -14.6175140350229
286000  ekin = 0.294282726921591 |  erot = 0.586274110944376 | epot = -15.49807087286 | etot = -14.617514034994
287000  ekin = 0.269347634013421 |  erot = 0.58721647590847 | epot = -15.4740781448926 | etot = -14.6175140349707
288000  ekin = 0.246357704467551 |  erot = 0.586373659771232 | epot = -15.450245399192 | etot = -14.6175140349532
289000  ekin = 0.22557352214567 |  erot = 0.583720426230562 | epot = -15.4268079833179 | etot = -14.6175140349417
290000  ekin = 0.207174962818393 |  erot = 0.57922365744791 | epot = -15.4039126552014 | etot = -14.6175140349351
291000  ekin = 0.191265313940187 |  erot = 0.572848780862473 | epot = -15.3816281297352 | etot = -14.6175140349326
292000  ekin = 0.177877757396419 |  erot = 0.564569470031942 | epot = -15.3599612623613 | etot = -14.617514034933
293000  ekin = 0.166983649288418 |  erot = 0.554379837681261 | epot = -15.3388775219044 | etot = -14.6175140349348
294000  ekin = 0.158501898150678 |  erot = 0.542307895558042 | epot = -15.3183238286452 | etot = -14.6175140349364
295000  ekin = 0.152308641379645 |  erot = 0.528428741575596 | epot = -15.298251417892 | etot = -14.6175140349367
296000  ekin = 0.148246390134139 |  erot = 0.512875830575803 | epot = -15.2786362556445 | etot = -14.6175140349346
297000  ekin = 0.146131889948737 |  erot = 0.495848833634457 | epot = -15.2594947585125 | etot = -14.6175140349293
298000  ekin = 0.145762142540829 |  erot = 0.477616979344766 | epot = -15.2408931568064 | etot = -14.6175140349208
299000  ekin = 0.146918339842591 |  erot = 0.458517327975552 | epot = -15.2229497027275 | etot = -14.6175140349094
300000  ekin = 0.149367830717969 |  erot = 0.438948042713275 | epot = -15.205829908327 | etot = -14.6175140348958
301000  ekin = 0.152864610233931 |  erot = 0.419357266834875 | epot = -15.1897359119496 | etot = -14.6175140348808
302000  ekin = 0.157149122640062 |  erot = 0.400228590599294 | epot = -15.1748917481051 | etot = -14.6175140348658
303000  ekin = 0.16194834771892 |  erot = 0.382064246008704 | epot = -15.1615266285792 | etot = -14.6175140348516
304000  ekin = 0.166977167327322 |  erot = 0.365367110080369 | epot = -15.1498583122469 | etot = -14.6175140348392
305000  ekin = 0.171941885875759 |  erot = 0.350622387002877 | epot = -15.1400783077083 | etot = -14.6175140348297
306000  ekin = 0.176546522696758 |  erot = 0.338279561365245 | epot = -15.1323401188853 | etot = -14.6175140348233
307000  ekin = 0.180502080572099 |  erot = 0.328734935092634 | epot = -15.1267510504853 | etot = -14.6175140348206
308000  ekin = 0.183539117579173 |  erot = 0.32231506851894 | epot = -15.1233682209196 | etot = -14.6175140348214
309000  ekin = 0.185422589168761 |  erot = 0.31926113518105 | epot = -15.1221977591756 | etot = -14.6175140348258
310000  ekin = 0.18596838252546 |  erot = 0.319714556778101 | epot = -15.1231969741369 | etot = -14.6175140348333
311000  ekin = 0.185060444471766 |  erot = 0.323704474533048 | epot = -15.1262789538485 | etot = -14.6175140348436
312000  ekin = 0.18266705569995 |  erot = 0.331137883754578 | epot = -15.1313189743107 | etot = -14.6175140348562
313000  ekin = 0.178854671448202 |  erot = 0.341793554574001 | epot = -15.1381622608926 | etot = -14.6175140348704
314000  ekin = 0.173797674113419 |  erot = 0.355321045101389 | epot = -15.1466327541005 | etot = -14.6175140348857
315000  ekin = 0.167782440686126 |  erot = 0.371246117949507 | epot = -15.1565425935371 | etot = -14.6175140349014
316000  ekin = 0.161204347699483 |  erot = 0.388983636697569 | epot = -15.1677020193138 | etot = -14.6175140349167
317000  ekin = 0.154556738723145 |  erot = 0.407858516720337 | epot = -15.1799292903744 | etot = -14.6175140349309
318000  ekin = 0.148411457828143 |  erot = 0.427134549770667 | epot = -15.1930600425422 | etot = -14.6175140349434
319000  ekin = 0.143391260343367 |  erot = 0.446049980955804 | epot = -15.2069552762529 | etot = -14.6175140349537
320000  ekin = 0.140135163879429 |  erot = 0.463857713006082 | epot = -15.2215069118471 | etot = -14.6175140349616
321000  ekin = 0.139258496830789 |  erot = 0.479867117343116 | epot = -15.2366396491412 | etot = -14.6175140349673
322000  ekin = 0.141309963686665 |  erot = 0.493483840953484 | epot = -15.2523078396112 | etot = -14.6175140349711
323000  ekin = 0.146728465401823 |  erot = 0.504243890594755 | epot = -15.2684863909706 | etot = -14.6175140349741
324000  ekin = 0.155802740978128 |  erot = 0.511838753068286 | epot = -15.285155529024 | etot = -14.6175140349776
325000  ekin = 0.168637192339279 |  erot = 0.516129344219886 | epot = -15.3022805715426 | etot = -14.6175140349834
326000  ekin = 0.185127492740314 |  erot = 0.517147991937071 | epot = -15.31978951967 | etot = -14.6175140349926
327000  ekin = 0.204949583924698 |  erot = 0.515089155112464 | epot = -15.3375527740434 | etot = -14.6175140350062
328000  ekin = 0.227565145375698 |  erot = 0.510290835145397 | epot = -15.3553700155455 | etot = -14.6175140350244
329000  ekin = 0.252245305620947 |  erot = 0.503209396461946 | epot = -15.3729687371292 | etot = -14.6175140350463
330000  ekin = 0.278112223737838 |  erot = 0.494390678508285 | epot = -15.3900169373164 | etot = -14.6175140350703
331000  ekin = 0.304195517643728 |  erot = 0.484439927615862 | epot = -15.4061494803532 | etot = -14.6175140350936
332000  ekin = 0.329497983391289 |  erot = 0.473992405220338 | epot = -15.4210044237253 | etot = -14.6175140351137
333000  ekin = 0.353063353197021 |  erot = 0.463685785197061 | epot = -15.4342631735221 | etot = -14.617514035128
334000  ekin = 0.374038491014966 |  erot = 0.454134842084351 | epot = -15.4456873682339 | etot = -14.6175140351346
335000  ekin = 0.391723520498624 |  erot = 0.44590856262641 | epot = -15.4551461182577 | etot = -14.6175140351327
336000  ekin = 0.405605581596876 |  erot = 0.439509690041266 | epot = -15.4626293067607 | etot = -14.6175140351225
337000  ekin = 0.415374601836511 |  erot = 0.435356764652945 | epot = -15.4682454015947 | etot = -14.6175140351053
338000  ekin = 0.420921997008494 |  erot = 0.4337688621957 | epot = -15.4722048942871 | etot = -14.6175140350829
339000  ekin = 0.422325110445994 |  erot = 0.434953376212245 | epot = -15.4747925217162 | etot = -14.6175140350579
340000  ekin = 0.419821259879065 |  erot = 0.438997304560045 | epot = -15.4763325994719 | etot = -14.6175140350328
341000  ekin = 0.413775534579932 |  erot = 0.445862573585468 | epot = -15.4771521431752 | etot = -14.6175140350098
342000  ekin = 0.404646174019828 |  erot = 0.455385967573506 | epot = -15.4775461765844 | etot = -14.617514034991
343000  ekin = 0.392950705832007 |  erot = 0.467284215126369 | epot = -15.4777489559361 | etot = -14.6175140349777
344000  ekin = 0.379235231728315 |  erot = 0.481164689425287 | epot = -15.4779139561242 | etot = -14.6175140349706
345000  ekin = 0.364048459932831 |  erot = 0.49654196729344 | epot = -15.4781044621959 | etot = -14.6175140349696
346000  ekin = 0.347921358320248 |  erot = 0.512860132814242 | epot = -15.4782955261082 | etot = -14.6175140349738
347000  ekin = 0.331352665808313 |  erot = 0.529520204052381 | epot = -15.4783869048424 | etot = -14.6175140349817
348000  ekin = 0.314799955037007 |  erot = 0.545911447468509 | epot = -15.478225437497 | etot = -14.6175140349915
349000  ekin = 0.298675493175969 |  erot = 0.561444708833552 | epot = -15.4776342370106 | etot = -14.6175140350011
350000  ekin = 0.28334581552179 |  erot = 0.575585348315622 | epot = -15.4764451988457 | etot = -14.6175140350083
351000  ekin = 0.269133730328657 |  erot = 0.587883045338955 | epot = -15.474530810679 | etot = -14.6175140350114
352000  ekin = 0.256321431306528 |  erot = 0.597995738138102 | epot = -15.4718312044538 | etot = -14.6175140350092
353000  ekin = 0.245153509655857 |  erot = 0.605705335206491 | epot = -15.4683728798634 | etot = -14.617514035001
354000  ekin = 0.235838910987786 |  erot = 0.610923562934953 | epot = -15.4642765089099 | etot = -14.6175140349872
355000  ekin = 0.228551231301984 |  erot = 0.613687305426088 | epot = -15.4597525716969 | etot = -14.6175140349688
356000  ekin = 0.223427131308619 |  erot = 0.61414390282533 | epot = -15.4550850690815 | etot = -14.6175140349475
357000  ekin = 0.220563006919496 |  erot = 0.612527933402533 | epot = -15.4506049752473 | etot = -14.6175140349253
358000  ekin = 0.220010333199303 |  erot = 0.609131855544879 | epot = -15.4466562236489 | etot = -14.6175140349047
359000  ekin = 0.221770268741646 |  erot = 0.604273418958276 | epot = -15.443557722588 | etot = -14.6175140348881
360000  ekin = 0.225788163654918 |  erot = 0.598262925571842 | epot = -15.4415651241044 | etot = -14.6175140348777
361000  ekin = 0.231948578438913 |  erot = 0.59137325198523 | epot = -15.4408358652996 | etot = -14.6175140348754
362000  ekin = 0.240071331019464 |  erot = 0.583815109039738 | epot = -15.4414004749418 | etot = -14.6175140348826
363000  ekin = 0.249908988059078 |  erot = 0.575719406612622 | epot = -15.4431424295716 | etot = -14.6175140348999
364000  ekin = 0.261146140583132 |  erot = 0.56712790648618 | epot = -15.4457880819966 | etot = -14.6175140349273
365000  ekin = 0.273400773646818 |  erot = 0.557992653604894 | epot = -15.4489074622159 | etot = -14.6175140349642
366000  ekin = 0.286228056504663 |  erot = 0.548184015757871 | epot = -15.4519261072718 | etot = -14.6175140350093
367000  ekin = 0.299126926926786 |  erot = 0.537506547610907 | epot = -15.4541475095983 | etot = -14.6175140350606
368000  ekin = 0.311549892639084 |  erot = 0.525721330951755 | epot = -15.4547852587065 | etot = -14.6175140351156
369000  ekin = 0.322916493342769 |  erot = 0.512572942753926 | epot = -15.4530034712682 | etot = -14.6175140351715
370000  ekin = 0.332630833324557 |  erot = 0.497818805481132 | epot = -15.4479636740308 | etot = -14.6175140352251
371000  ekin = 0.340103492446634 |  erot = 0.481258447415918 | epot = -15.4388759751356 | etot = -14.6175140352731
372000  ekin = 0.344777943664193 |  erot = 0.462760223983496 | epot = -15.4250522029596 | etot = -14.6175140353119
373000  ekin = 0.346161332162081 |  erot = 0.442283380417406 | epot = -15.405958747918 | etot = -14.6175140353385
374000  ekin = 0.343859062980667 |  erot = 0.419893962766177 | epot = -15.3812670610967 | etot = -14.6175140353498
375000  ekin = 0.337612023151491 |  erot = 0.395773904235502 | epot = -15.35089996273 | etot = -14.617514035343
376000  ekin = 0.327334336193659 |  erot = 0.370223433835828 | epot = -15.3150718053453 | etot = -14.6175140353159
377000  ekin = 0.313148263712968 |  erot = 0.3436575453366 | epot = -15.2743198443167 | etot = -14.6175140352671
378000  ekin = 0.295411338277735 |  erot = 0.316597454537734 | epot = -15.2295228280119 | etot = -14.6175140351964
379000  ekin = 0.274729408510529 |  erot = 0.289657740939432 | epot = -15.1819011845551 | etot = -14.6175140351051
380000  ekin = 0.251948675267414 |  erot = 0.263529414055011 | epot = -15.1329921243187 | etot = -14.6175140349963
381000  ekin = 0.228120837035203 |  erot = 0.238958749468097 | epot = -15.0845936213794 | etot = -14.6175140348761
382000  ekin = 0.204438854506746 |  erot = 0.216721270519329 | epot = -15.0386741597779 | etot = -14.6175140347518
383000  ekin = 0.182146263755385 |  erot = 0.19759188098445 | epot = -14.9972521793722 | etot = -14.6175140346323
384000  ekin = 0.162429780679522 |  erot = 0.182311896924387 | epot = -14.9622557121308 | etot = -14.6175140345269
385000  ekin = 0.146310622123822 |  erot = 0.171555128911536 | epot = -14.9353797854792 | etot = -14.6175140344439
386000  ekin = 0.134552389652403 |  erot = 0.165895597224741 | epot = -14.9179620212657 | etot = -14.6175140343886
387000  ekin = 0.127600986328395 |  erot = 0.165779213534325 | epot = -14.9108942342266 | etot = -14.6175140343639
388000  ekin = 0.125565151523028 |  erot = 0.171500950984996 | epot = -14.9145801368772 | etot = -14.6175140343691
389000  ekin = 0.128237001096973 |  erot = 0.183188026636525 | epot = -14.9289390621349 | etot = -14.6175140344014
390000  ekin = 0.135143637923168 |  erot = 0.200788930663413 | epot = -14.9534466030433 | etot = -14.6175140344567
391000  ekin = 0.145616156499953 |  erot = 0.224068074688611 | epot = -14.9871982657191 | etot = -14.6175140345306
392000  ekin = 0.158862235246809 |  erot = 0.252606362171908 | epot = -15.0289826320371 | etot = -14.6175140346184
393000  ekin = 0.174032087603698 |  erot = 0.285808726839658 | epot = -15.0773548491589 | etot = -14.6175140347155
394000  ekin = 0.190272707003915 |  erot = 0.322920107512839 | epot = -15.1307068493349 | etot = -14.6175140348181
395000  ekin = 0.206769905102427 |  erot = 0.363051013228117 | epot = -15.1873349532527 | etot = -14.6175140349221
396000  ekin = 0.222780272470673 |  erot = 0.405212687947373 | epot = -15.2455069954414 | etot = -14.6175140350234
397000  ekin = 0.23765569871957 |  erot = 0.448360183482314 | epot = -15.3035299173199 | etot = -14.6175140351181
398000  ekin = 0.250862154070766 |  erot = 0.491439914329229 | epot = -15.3598161036022 | etot = -14.6175140352022
399000  ekin = 0.261993055954332 |  erot = 0.533437059170124 | epot = -15.4129441503972 | etot = -14.6175140352727
400000  ekin = 0.270776550507805 |  erot = 0.573417887949055 | epot = -15.4617084737844 | etot = -14.6175140353276
401000  ekin = 0.277075831016468 |  erot = 0.610562842823512 | epot = -15.505152709206 | etot = -14.617514035366
402000  ekin = 0.280882158892238 |  erot = 0.644187798759056 | epot = -15.5425839930397 | etot = -14.6175140353884
403000  ekin = 0.282301228579434 |  erot = 0.673752968641712 | epot = -15.5735682326173 | etot = -14.6175140353962
404000  ekin = 0.281534519812515 |  erot = 0.698860907481931 | epot = -15.5979094626858 | etot = -14.6175140353913
405000  ekin = 0.278857975737129 |  erot = 0.719246574878154 | epot = -15.6156185859915 | etot = -14.6175140353763
406000  ekin = 0.274600555759475 |  erot = 0.73476315739679 | epot = -15.6268777485094 | etot = -14.6175140353531
407000  ekin = 0.269124923358509 |  erot = 0.745367259285065 | epot = -15.6320062179673 | etot = -14.6175140353237
408000  ekin = 0.262811853165719 |  erot = 0.751106276665231 | epot = -15.63143216512 | etot = -14.6175140352891
409000  ekin = 0.256049112192117 |  erot = 0.752109968276187 | epot = -15.6256731157185 | etot = -14.6175140352502
410000  ekin = 0.249224269809732 |  erot = 0.74858433225965 | epot = -15.6153226372768 | etot = -14.6175140352074
411000  ekin = 0.242720888553437 |  erot = 0.740809103918433 | epot = -15.6010440276326 | etot = -14.6175140351607
412000  ekin = 0.236916379506095 |  erot = 0.729136085380854 | epot = -15.5835664999974 | etot = -14.6175140351104
413000  ekin = 0.232179735243653 |  erot = 0.713985498456999 | epot = -15.5636792687578 | etot = -14.6175140350572
414000  ekin = 0.228867632642243 |  erot = 0.695838652585891 | epot = -15.5422203202302 | etot = -14.6175140350021
415000  ekin = 0.227317772307856 |  erot = 0.675225695396218 | epot = -15.5200575026509 | etot = -14.6175140349469
416000  ekin = 0.227838940777607 |  erot = 0.652708261105161 | epot = -15.4980612367764 | etot = -14.6175140348937
417000  ekin = 0.230697970866891 |  erot = 0.628857925336047 | epot = -15.4770699310479 | etot = -14.617514034845
418000  ekin = 0.236104416120681 |  erot = 0.604232291329749 | epot = -15.4578507422538 | etot = -14.6175140348034
419000  ekin = 0.244194252200401 |  erot = 0.579351108945114 | epot = -15.4410593959166 | etot = -14.6175140347711
420000  ekin = 0.255014214168464 |  erot = 0.554674986841152 | epot = -15.4272032357598 | etot = -14.6175140347502
421000  ekin = 0.268508458340295 |  erot = 0.530589008736334 | epot = -15.4166115018185 | etot = -14.6175140347418
422000  ekin = 0.284509119560496 |  erot = 0.507392982380571 | epot = -15.4094161366875 | etot = -14.6175140347464
423000  ekin = 0.302732060426934 |  erot = 0.485299248118979 | epot = -15.4055453433093 | etot = -14.6175140347634
424000  ekin = 0.322778728051398 |  erot = 0.464438075670481 | epot = -15.4047308385137 | etot = -14.6175140347918
425000  ekin = 0.344144594922637 |  erot = 0.444869796712131 | epot = -15.4065284264641 | etot = -14.6175140348293
426000  ekin = 0.366234204300038 |  erot = 0.426602052983704 | epot = -15.4103502921573 | etot = -14.6175140348735
427000  ekin = 0.388382398339816 |  erot = 0.409609962240036 | epot = -15.4155063955013 | etot = -14.6175140349214
428000  ekin = 0.409880900047524 |  erot = 0.393856678091899 | epot = -15.4212516131094 | etot = -14.6175140349699
429000  ekin = 0.430009061106479 |  erot = 0.379311788381591 | epot = -15.4268348845041 | etot = -14.617514035016
430000  ekin = 0.448067283636575 |  erot = 0.3659652824005 | epot = -15.4315466010941 | etot = -14.617514035057
431000  ekin = 0.463411378723588 |  erot = 0.353835411175161 | epot = -15.4347608249895 | etot = -14.6175140350907
432000  ekin = 0.475485941535269 |  erot = 0.342969616703674 | epot = -15.4359695933546 | etot = -14.6175140351156
433000  ekin = 0.483854704021334 |  erot = 0.333438714396283 | epot = -15.4348074535483 | etot = -14.6175140351307
434000  ekin = 0.488225698519521 |  erot = 0.325325491782385 | epot = -15.4310652254377 | etot = -14.6175140351358
435000  ekin = 0.48846961521868 |  erot = 0.318709988965965 | epot = -15.4246936393157 | etot = -14.6175140351311
436000  ekin = 0.484629100798397 |  erot = 0.313653867974891 | epot = -15.4157970038909 | etot = -14.6175140351176
437000  ekin = 0.476917712285193 |  erot = 0.310186654191006 | epot = -15.4046184015729 | etot = -14.6175140350967
438000  ekin = 0.465707830236428 |  erot = 0.308296241623089 | epot = -15.3915181069294 | etot = -14.6175140350699
439000  ekin = 0.45150753680146 |  erot = 0.30792515377069 | epot = -15.3769467256113 | etot = -14.6175140350391
440000  ekin = 0.434927659014138 |  erot = 0.308973010492868 | epot = -15.3614147045135 | etot = -14.6175140350065
441000  ekin = 0.416641657349937 |  erot = 0.311304747383582 | epot = -15.3454604397074 | etot = -14.6175140349739
442000  ekin = 0.397341542601571 |  erot = 0.314762618736297 | epot = -15.3296181962812 | etot = -14.6175140349433
443000  ekin = 0.377694362715545 |  erot = 0.319179725729324 | epot = -15.314388123361 | etot = -14.6175140349161
444000  ekin = 0.358304425136817 |  erot = 0.32439329819003 | epot = -15.3002117582203 | etot = -14.6175140348934
445000  ekin = 0.339684383335156 |  erot = 0.330254911559461 | epot = -15.2874533297707 | etot = -14.6175140348761
446000  ekin = 0.322237701351822 |  erot = 0.336636009508 | epot = -15.2763877457241 | etot = -14.6175140348643
447000  ekin = 0.30625308658371 |  erot = 0.34342824275766 | epot = -15.2671953641993 | etot = -14.6175140348579
448000  ekin = 0.291909091343975 |  erot = 0.350538602019967 | epot = -15.2599617282208 | etot = -14.6175140348568
449000  ekin = 0.279285717664377 |  erot = 0.357880263087886 | epot = -15.254680015613 | etot = -14.6175140348608
450000  ekin = 0.268379332693754 |  erot = 0.365360767815974 | epot = -15.2512541353793 | etot = -14.6175140348696
451000  ekin = 0.259117719163031 |  erot = 0.372869677558793 | epot = -15.2495014316051 | etot = -14.6175140348833
452000  ekin = 0.251373384973835 |  erot = 0.380268095669032 | epot = -15.2491555155445 | etot = -14.6175140349017
453000  ekin = 0.24497482412797 |  erot = 0.387382402362676 | epot = -15.2498712614149 | etot = -14.6175140349243
454000  ekin = 0.239716691076598 |  erot = 0.394004131859313 | epot = -15.251234857886 | etot = -14.6175140349501
455000  ekin = 0.235370413814522 |  erot = 0.399897145639913 | epot = -15.252781594432 | etot = -14.6175140349776
456000  ekin = 0.231696513790871 |  erot = 0.404812188422525 | epot = -15.254022737218 | etot = -14.6175140350046
457000  ekin = 0.22845901443235 |  erot = 0.408507709512969 | epot = -15.2544807589739 | etot = -14.6175140350285
458000  ekin = 0.225441196082656 |  erot = 0.41077470562198 | epot = -15.2537299367515 | etot = -14.6175140350469
459000  ekin = 0.22246101894078 |  erot = 0.411462514810095 | epot = -15.251437568808 | etot = -14.6175140350572
460000  ekin = 0.219384094438714 |  erot = 0.410502136527495 | epot = -15.2474002660241 | etot = -14.6175140350579
461000  ekin = 0.21613224524022 |  erot = 0.40792384413126 | epot = -15.2415701244196 | etot = -14.6175140350481
462000  ekin = 0.212686361973382 |  erot = 0.403866554422734 | epot = -15.2340669514243 | etot = -14.6175140350282
463000  ekin = 0.209083218482854 |  erot = 0.398577486489151 | epot = -15.2251747399712 | etot = -14.6175140349992
464000  ekin = 0.20540688826373 |  erot = 0.392401883856613 | epot = -15.2153228070836 | etot = -14.6175140349633
465000  ekin = 0.201776197881068 |  erot = 0.385763783461919 | epot = -15.2050540162659 | etot = -14.6175140349229
466000  ekin = 0.198330130961181 |  erot = 0.379139817336986 | epot = -15.1949839831793 | etot = -14.6175140348811
467000  ekin = 0.195213224017124 |  erot = 0.373028711257475 | epot = -15.1857559701151 | etot = -14.6175140348405
468000  ekin = 0.192562810062158 |  erot = 0.367919448414916 | epot = -15.1779962932808 | etot = -14.6175140348037
469000  ekin = 0.190499545154769 |  erot = 0.364261004085612 | epot = -15.1722745840131 | etot = -14.6175140347727
470000  ekin = 0.18912208603274 |  erot = 0.362436180586983 | epot = -15.1690723013684 | etot = -14.6175140347487
471000  ekin = 0.188506156938867 |  erot = 0.362741456207278 | epot = -15.1687616478786 | etot = -14.6175140347325
472000  ekin = 0.188707621222394 |  erot = 0.365373993438347 | epot = -15.1715956493845 | etot = -14.6175140347238
473000  ekin = 0.189768618622282 |  erot = 0.370426120543888 | epot = -15.1777087738883 | etot = -14.6175140347222
474000  ekin = 0.191725397341772 |  erot = 0.377886798112635 | epot = -15.1871262301808 | etot = -14.6175140347264
475000  ekin = 0.194616213071371 |  erot = 0.387648901412467 | epot = -15.1997791492193 | etot = -14.6175140347354
476000  ekin = 0.19848763616133 |  erot = 0.399520678155556 | epot = -15.2155223490651 | etot = -14.6175140347483
477000  ekin = 0.203397790430575 |  erot = 0.413239540254448 | epot = -15.234151365449 | etot = -14.617514034764
478000  ekin = 0.209415519783994 |  erot = 0.428486466926518 | epot = -15.2554160214928 | etot = -14.6175140347823
479000  ekin = 0.216615156595488 |  erot = 0.444899686771521 | epot = -15.2790288781697 | etot = -14.6175140348027
480000  ekin = 0.225067223158495 |  erot = 0.462086880017487 | epot = -15.3046681380014 | etot = -14.6175140348255
481000  ekin = 0.234826185148526 |  erot = 0.479635803738694 | epot = -15.3319760237382 | etot = -14.6175140348509
482000  ekin = 0.24591693935593 |  erot = 0.497123799837189 | epot = -15.3605547740723 | etot = -14.6175140348792
483000  ekin = 0.258322039581471 |  erot = 0.514126984880484 | epot = -15.3899630593723 | etot = -14.6175140349103
484000  ekin = 0.271971667055458 |  erot = 0.530229960568097 | epot = -15.4197156625675 | etot = -14.617514034944
485000  ekin = 0.286738030810237 |  erot = 0.545036619609161 | epot = -15.4492886853988 | etot = -14.6175140349794
486000  ekin = 0.302435294442602 |  erot = 0.558182125190157 | epot = -15.4781314546481 | etot = -14.6175140350154
487000  ekin = 0.318825369858635 |  erot = 0.569345540302413 | epot = -15.5056849452114 | etot = -14.6175140350504
488000  ekin = 0.335629120856599 |  erot = 0.578262027782435 | epot = -15.5314051837218 | etot = -14.6175140350827
489000  ekin = 0.352541803825719 |  erot = 0.584733173542254 | epot = -15.5547890124787 | etot = -14.6175140351108
490000  ekin = 0.369251041133798 |  erot = 0.58863390237619 | epot = -15.5753989786432 | etot = -14.6175140351332
491000  ekin = 0.385455339944008 |  erot = 0.589914693970058 | epot = -15.5928840690631 | etot = -14.6175140351491
492000  ekin = 0.40088115647899 |  erot = 0.588598334680754 | epot = -15.6069935263179 | etot = -14.6175140351581
493000  ekin = 0.415296746377553 |  erot = 0.584771169137649 | epot = -15.6175819506758 | etot = -14.6175140351606
494000  ekin = 0.428521503102931 |  erot = 0.578569614095801 | epot = -15.6246051523561 | etot = -14.6175140351573
495000  ekin = 0.440430011858771 |  erot = 0.570163426568569 | epot = -15.6281074735768 | etot = -14.6175140351495
496000  ekin = 0.450950706316734 |  erot = 0.559737766477586 | epot = -15.628202507933 | etot = -14.6175140351387
497000  ekin = 0.460059581798191 |  erot = 0.547476355485745 | epot = -15.6250499724103 | etot = -14.6175140351264
498000  ekin = 0.467769906492318 |  erot = 0.533547985555278 | epot = -15.6188319271617 | etot = -14.6175140351141
499000  ekin = 0.474119221073082 |  erot = 0.518098277332704 | epot = -15.6097315335085 | etot = -14.6175140351027
500000  ekin = 0.47915510663518 |  erot = 0.501247978937513 | epot = -15.5979171206656 | etot = -14.6175140350929
501000  ekin = 0.482921233338969 |  erot = 0.483098304082662 | epot = -15.5835335725064 | etot = -14.6175140350848
502000  ekin = 0.485445093649088 |  erot = 0.463742920559554 | epot = -15.5667020492864 | etot = -14.6175140350777
503000  ekin = 0.486728599209648 |  erot = 0.443285305605623 | epot = -15.5475279398862 | etot = -14.6175140350709
504000  ekin = 0.486742408087926 |  erot = 0.421859374631785 | epot = -15.5261158177828 | etot = -14.6175140350631
505000  ekin = 0.485424480827694 |  erot = 0.399650657768087 | epot = -15.5025891736488 | etot = -14.617514035053
506000  ekin = 0.48268297341187 |  erot = 0.376914939267219 | epot = -15.4771119477182 | etot = -14.6175140350392
507000  ekin = 0.478403198154612 |  erot = 0.353991273961029 | epot = -15.4499085071364 | etot = -14.6175140350208
508000  ekin = 0.472458052935441 |  erot = 0.331306710133916 | epot = -15.4212787980666 | etot = -14.6175140349972
509000  ekin = 0.46472106285539 |  erot = 0.309370883447747 | epot = -15.3916059812718 | etot = -14.6175140349687
510000  ekin = 0.455081004104095 |  erot = 0.288759823578743 | epot = -15.3613548626186 | etot = -14.6175140349358
511000  ekin = 0.443456979180403 |  erot = 0.270089690707411 | epot = -15.3310607047875 | etot = -14.6175140348996
512000  ekin = 0.429812848219575 |  erot = 0.25398253489869 | epot = -15.3013094179802 | etot = -14.6175140348619
513000  ekin = 0.414169942618988 |  erot = 0.241027258547328 | epot = -15.2727112359908 | etot = -14.6175140348245
514000  ekin = 0.396617122319459 |  erot = 0.231739657368316 | epot = -15.245870814477 | etot = -14.6175140347893
515000  ekin = 0.377317407138787 |  erot = 0.226525548757195 | epot = -15.2213569906539 | etot = -14.6175140347579
516000  ekin = 0.356510629533613 |  erot = 0.225650587239684 | epot = -15.1996752515051 | etot = -14.6175140347318
517000  ekin = 0.334511811731556 |  erot = 0.229219509886492 | epot = -15.1812453563299 | etot = -14.6175140347118
518000  ekin = 0.311705249160021 |  erot = 0.23716641592675 | epot = -15.1663856997854 | etot = -14.6175140346987
519000  ekin = 0.288534562405509 |  erot = 0.249256456193826 | epot = -15.1553050532917 | etot = -14.6175140346923
520000  ekin = 0.265489234982404 |  erot = 0.265098165451267 | epot = -15.1481014351262 | etot = -14.6175140346925
521000  ekin = 0.243088358087729 |  erot = 0.284164745160129 | epot = -15.1447671379464 | etot = -14.6175140346986
522000  ekin = 0.221862437060792 |  erot = 0.305821970140486 | epot = -15.1451984419111 | etot = -14.6175140347098
523000  ekin = 0.202334169776215 |  erot = 0.329360070797338 | epot = -15.149208275299 | etot = -14.6175140347255
524000  ekin = 0.184999091076189 |  erot = 0.354026911471086 | epot = -15.1565400372918 | etot = -14.6175140347445
525000  ekin = 0.170306912739355 |  erot = 0.379059948771691 | epot = -15.1668808962774 | etot = -14.6175140347664
526000  ekin = 0.158644243148445 |  erot = 0.403715126925631 | epot = -15.1798734048646 | etot = -14.6175140347905
527000  ekin = 0.150319367666608 |  erot = 0.427291025812717 | epot = -15.1951244282958 | etot = -14.6175140348165
528000  ekin = 0.145549592055318 |  erot = 0.449147424933815 | epot = -15.2122110518333 | etot = -14.6175140348441
529000  ekin = 0.144451603984815 |  erot = 0.46871812185095 | epot = -15.2306837607091 | etot = -14.6175140348734
530000  ekin = 0.147035267138349 |  erot = 0.485518371011605 | epot = -15.2500676730542 | etot = -14.6175140349042
531000  ekin = 0.153201203684292 |  erot = 0.499147835497304 | epot = -15.2698630741182 | etot = -14.6175140349366
532000  ekin = 0.162742448479717 |  erot = 0.509290301682708 | epot = -15.2895467851327 | etot = -14.6175140349702
533000  ekin = 0.175350354881916 |  erot = 0.515711587206721 | epot = -15.3085759770934 | etot = -14.6175140350047
534000  ekin = 0.190624856013519 |  erot = 0.518257146630614 | epot = -15.3263960376834 | etot = -14.6175140350393
535000  ekin = 0.208088493536824 |  erot = 0.516850140104756 | epot = -15.3424526687142 | etot = -14.6175140350726
536000  ekin = 0.227204325842689 |  erot = 0.511491240065728 | epot = -15.3562096010119 | etot = -14.6175140351035
537000  ekin = 0.247396768812984 |  erot = 0.502260311074185 | epot = -15.3671711150173 | etot = -14.6175140351302
538000  ekin = 0.268074342413392 |  erot = 0.489319600961478 | epot = -15.3749079785256 | etot = -14.6175140351508
539000  ekin = 0.288653182933449 |  erot = 0.4729176796722 | epot = -15.3790848977693 | etot = -14.6175140351637
540000  ekin = 0.308579985825782 |  erot = 0.453392904739592 | epot = -15.3794869257329 | etot = -14.6175140351675
541000  ekin = 0.327353008191246 |  erot = 0.431174973010967 | epot = -15.3760420163633 | etot = -14.6175140351611
542000  ekin = 0.344539853506965 |  erot = 0.406783142889028 | epot = -15.3688370315399 | etot = -14.6175140351439
543000  ekin = 0.359790986513993 |  erot = 0.380819988063805 | epot = -15.3581250096939 | etot = -14.6175140351161
544000  ekin = 0.37284826309085 |  erot = 0.353960030672464 | epot = -15.344322328842 | etot = -14.6175140350787
545000  ekin = 0.383548167009815 |  erot = 0.326933212481791 | epot = -15.3279954145248 | etot = -14.6175140350332
546000  ekin = 0.391819867385749 |  erot = 0.300503784237994 | epot = -15.3098376866053 | etot = -14.6175140349815
547000  ekin = 0.397678590182396 |  erot = 0.275445713887096 | epot = -15.2906383389958 | etot = -14.6175140349263
548000  ekin = 0.401215088504832 |  erot = 0.252516050366015 | epot = -15.2712451737408 | etot = -14.6175140348699
549000  ekin = 0.402582175512791 |  erot = 0.232427794767637 | epot = -15.2525240050959 | etot = -14.6175140348155
550000  ekin = 0.401979352687969 |  erot = 0.215823740833009 | epot = -15.2353171282862 | etot = -14.6175140347652
551000  ekin = 0.399636550193996 |  erot = 0.203252510909739 | epot = -15.220403095825 | etot = -14.6175140347213
552000  ekin = 0.395797934840894 |  erot = 0.195147714573778 | epot = -15.2084596841007 | etot = -14.617514034686
553000  ekin = 0.390706676476196 |  erot = 0.191810879117336 | epot = -15.2000315902546 | etot = -14.6175140346611
554000  ekin = 0.384591526958096 |  erot = 0.19339860945437 | epot = -15.1955041710601 | etot = -14.6175140346476
555000  ekin = 0.377656068332676 |  erot = 0.199914362894006 | epot = -15.1950844658734 | etot = -14.6175140346467
556000  ekin = 0.370071512615683 |  erot = 0.211205266307111 | epot = -15.1987908135806 | etot = -14.6175140346578
557000  ekin = 0.361973939272813 |  erot = 0.226964515102972 | epot = -15.2064524890562 | etot = -14.6175140346805
558000  ekin = 0.353466765020817 |  erot = 0.246739996102199 | epot = -15.2177207958362 | etot = -14.6175140347132
559000  ekin = 0.344628961765223 |  erot = 0.269949765670651 | epot = -15.2320927621895 | etot = -14.6175140347536
560000  ekin = 0.335528980568065 |  erot = 0.295904778796298 | epot = -15.248947794163 | etot = -14.6175140347986
561000  ekin = 0.326243446081694 |  erot = 0.32383871490908 | epot = -15.2675961958353 | etot = -14.6175140348445
562000  ekin = 0.316878486813705 |  erot = 0.352943857553535 | epot = -15.2873363792542 | etot = -14.617514034887
563000  ekin = 0.307590234581993 |  erot = 0.382410843957943 | epot = -15.3075151134627 | etot = -14.6175140349227
564000  ekin = 0.298599911427723 |  erot = 0.411468934029848 | epot = -15.3275828804063 | etot = -14.6175140349488
565000  ekin = 0.290198521501613 |  erot = 0.439422606477982 | epot = -15.3471351629436 | etot = -14.617514034964
566000  ekin = 0.282736992095915 |  erot = 0.465680158920146 | epot = -15.3659311859852 | etot = -14.6175140349691
567000  ekin = 0.276599956454237 |  erot = 0.489770841523137 | epot = -15.3838848329439 | etot = -14.6175140349665
568000  ekin = 0.272165052790849 |  erot = 0.51134888782089 | epot = -15.4010279755719 | etot = -14.6175140349602
569000  ekin = 0.269753809413351 |  erot = 0.530185258477429 | epot = -15.4174531028455 | etot = -14.6175140349547
570000  ekin = 0.269583567607364 |  erot = 0.546150320474836 | epot = -15.4332479230362 | etot = -14.617514034954
571000  ekin = 0.271731068577875 |  erot = 0.559192265325752 | epot = -15.4484373688642 | etot = -14.6175140349606
572000  ekin = 0.276116495687091 |  erot = 0.569316321634121 | epot = -15.4629468522959 | etot = -14.6175140349747
573000  ekin = 0.282512256444534 |  erot = 0.576569321998237 | epot = -15.4765956134374 | etot = -14.6175140349946
574000  ekin = 0.290574483947443 |  erot = 0.58103049076154 | epot = -15.4891190097262 | etot = -14.6175140350172
575000  ekin = 0.299890113326593 |  erot = 0.582808418137594 | epot = -15.5002125665028 | etot = -14.6175140350386
576000  ekin = 0.310029076130859 |  erot = 0.582041678954832 | epot = -15.5095847901412 | etot = -14.6175140350555
577000  ekin = 0.320591144135675 |  erot = 0.578899817193377 | epot = -15.5170049963946 | etot = -14.6175140350655
578000  ekin = 0.331239680817734 |  erot = 0.573581904321388 | epot = -15.5223356202072 | etot = -14.6175140350681
579000  ekin = 0.341718767395713 |  erot = 0.566311213814816 | epot = -15.5255440162742 | etot = -14.6175140350637
580000  ekin = 0.351854361646192 |  erot = 0.557326170820746 | epot = -15.5266945675209 | etot = -14.617514035054
581000  ekin = 0.361543170719959 |  erot = 0.546869043111512 | epot = -15.5259262488727 | etot = -14.6175140350412
582000  ekin = 0.370734291431731 |  erot = 0.535174473618127 | epot = -15.5234228000774 | etot = -14.6175140350275
583000  ekin = 0.37940854514636 |  erot = 0.522459863754317 | epot = -15.5193824439152 | etot = -14.6175140350145
584000  ekin = 0.387559338332064 |  erot = 0.50891899993969 | epot = -15.5139923732753 | etot = -14.6175140350036
585000  ekin = 0.395177418309436 |  erot = 0.494719483694829 | epot = -15.5074109369994 | etot = -14.6175140349952
586000  ekin = 0.402240533516594 |  erot = 0.480003760424791 | epot = -15.4997583289309 | etot = -14.6175140349895
587000  ekin = 0.408707997145263 |  erot = 0.464893014294175 | epot = -15.4911150464257 | etot = -14.6175140349862
588000  ekin = 0.41451954577295 |  erot = 0.449492951760516 | epot = -15.4815265325182 | etot = -14.6175140349847
589000  ekin = 0.419597612555334 |  erot = 0.43390048790532 | epot = -15.4710121354448 | etot = -14.6175140349841
590000  ekin = 0.423852083806567 |  erot = 0.418210489542958 | epot = -15.4595766083332 | etot = -14.6175140349837
591000  ekin = 0.427186671517479 |  erot = 0.402521929657892 | epot = -15.447222636158 | etot = -14.6175140349826
592000  ekin = 0.429506137373686 |  erot = 0.386943005728737 | epot = -15.4339631780827 | etot = -14.6175140349802
593000  ekin = 0.430723706116615 |  erot = 0.371594936609099 | epot = -15.4198326777017 | etot = -14.617514034976
594000  ekin = 0.430768094953839 |  erot = 0.356614269836478 | epot = -15.4048963997596 | etot = -14.6175140349693
595000  ekin = 0.42958966483036 |  erot = 0.34215360916983 | epot = -15.3892573089602 | etot = -14.61751403496
596000  ekin = 0.427165296133674 |  erot = 0.328380718540701 | epot = -15.3730600496226 | etot = -14.6175140349482
597000  ekin = 0.423501658500188 |  erot = 0.315475989401846 | epot = -15.3564916828361 | etot = -14.617514034934
598000  ekin = 0.418636501255824 |  erot = 0.30362835958022 | epot = -15.3397788957539 | etot = -14.6175140349178
599000  ekin = 0.412638207582771 |  erot = 0.293029673722298 | epot = -15.3231819162053 | etot = -14.6175140349002
600000  ekin = 0.405603414753992 |  erot = 0.283867637225037 | epot = -15.306985086861 | etot = -14.6175140348819
601000  ekin = 0.397652939448924 |  erot = 0.27631757335997 | epot = -15.2914845476729 | etot = -14.617514034864
602000  ekin = 0.388926339151977 |  erot = 0.270533300127966 | epot = -15.2769736741272 | etot = -14.6175140348472
603000  ekin = 0.379575547711323 |  erot = 0.266637582798157 | epot = -15.2637271653422 | etot = -14.6175140348327
604000  ekin = 0.369758112224678 |  erot = 0.264712769809213 | epot = -15.2519849168553 | etot = -14.6175140348214
605000  ekin = 0.359630614964776 |  erot = 0.264792359550131 | epot = -15.241937009329 | etot = -14.617514034814
606000  ekin = 0.349342882571482 |  erot = 0.266854337886994 | epot = -15.2337112552696 | etot = -14.6175140348111
607000  ekin = 0.339033558751721 |  erot = 0.270817131627805 | epot = -15.2273647251923 | etot = -14.6175140348128
608000  ekin = 0.328827538259558 |  erot = 0.276538908097645 | epot = -15.2228804811762 | etot = -14.617514034819
609000  ekin = 0.318835621087791 |  erot = 0.283820700144912 | epot = -15.2201703560617 | etot = -14.617514034829
610000  ekin = 0.309156542568471 |  erot = 0.292413461056483 | epot = -15.2190840384669 | etot = -14.617514034842
611000  ekin = 0.29988127210835 |  erot = 0.302028697870677 | epot = -15.2194240048356 | etot = -14.6175140348566
612000  ekin = 0.291099167856382 |  erot = 0.312351863790435 | epot = -15.2209650665183 | etot = -14.6175140348715
613000  ekin = 0.282905257831731 |  erot = 0.323057294042835 | epot = -15.2234765867597 | etot = -14.6175140348851
614000  ekin = 0.275407632339994 |  erot = 0.333823223653581 | epot = -15.2267448908899 | etot = -14.6175140348963
615000  ekin = 0.268733725567278 |  erot = 0.344345386321387 | epot = -15.2305931467927 | etot = -14.617514034904
616000  ekin = 0.263034181136557 |  erot = 0.35434787992739 | epot = -15.2348960959719 | etot = -14.6175140349079
617000  ekin = 0.258483071857821 |  erot = 0.363590372787447 | epot = -15.2395874795532 | etot = -14.6175140349079
618000  ekin = 0.255273496413574 |  erot = 0.371871254538827 | epot = -15.2446587858571 | etot = -14.6175140349047
619000  ekin = 0.253608004174632 |  erot = 0.37902692128715 | epot = -15.2501489603613 | etot = -14.6175140348995
620000  ekin = 0.253683881421992 |  erot = 0.384927934513618 | epot = -15.2561258508295 | etot = -14.6175140348939
621000  ekin = 0.255674023709804 |  erot = 0.389473226071993 | epot = -15.2626612846714 | etot = -14.6175140348896
622000  ekin = 0.25970485336757 |  erot = 0.392583779639758 | epot = -15.2698026678959 | etot = -14.6175140348885
623000  ekin = 0.265833429999403 |  erot = 0.394197274405735 | epot = -15.2775447392974 | etot = -14.6175140348923
624000  ekin = 0.274026439188228 |  erot = 0.394265031624551 | epot = -15.2858055057147 | etot = -14.6175140349019
625000  ekin = 0.284144015738384 |  erot = 0.392752285176118 | epot = -15.2944103358322 | etot = -14.6175140349177
626000  ekin = 0.295931256226139 |  erot = 0.389642344380343 | epot = -15.3030876355457 | etot = -14.6175140349392
627000  ekin = 0.309019727829663 |  erot = 0.38494467650416 | epot = -15.3114784392987 | etot = -14.6175140349649
628000  ekin = 0.322940275279064 |  erot = 0.378706350959343 | epot = -15.3191606612307 | etot = -14.6175140349923
629000  ekin = 0.337147043698277 |  erot = 0.37102569897414 | epot = -15.3256867776908 | etot = -14.6175140350184
630000  ekin = 0.351051052994981 |  erot = 0.362066500826367 | epot = -15.3306315888613 | etot = -14.6175140350399
631000  ekin = 0.364060148819096 |  erot = 0.352070586245494 | epot = -15.333644770118 | etot = -14.6175140350534
632000  ekin = 0.375621025661737 |  erot = 0.341366514680777 | epot = -15.3345015753988 | etot = -14.6175140350563
633000  ekin = 0.385258541224816 |  erot = 0.33037209230534 | epot = -15.3331446685769 | etot = -14.6175140350467
634000  ekin = 0.392607865616762 |  erot = 0.31958895649352 | epot = -15.3297108571345 | etot = -14.6175140350242
635000  ekin = 0.39743609727868 |  erot = 0.309588318033271 | epot = -15.3245384503017 | etot = -14.6175140349897
636000  ekin = 0.399651602685353 |  erot = 0.30098809437835 | epot = -15.318153732009 | etot = -14.6175140349453
637000  ekin = 0.399301141333129 |  erot = 0.294422893568983 | epot = -15.3112380697961 | etot = -14.617514034894
638000  ekin = 0.396556439147407 |  erot = 0.290509369489655 | epot = -15.3045798434767 | etot = -14.6175140348397
639000  ekin = 0.391692975513997 |  erot = 0.289810143797434 | epot = -15.2990171540975 | etot = -14.617514034786
640000  ekin = 0.385064212934161 |  erot = 0.292799653113688 | epot = -15.2953779007847 | etot = -14.6175140347369
641000  ekin = 0.377074355551302 |  erot = 0.299834934663062 | epot = -15.2944233249094 | etot = -14.6175140346951
642000  ekin = 0.368152133961515 |  erot = 0.311133625026309 | epot = -15.2967997936509 | etot = -14.6175140346631
643000  ekin = 0.358727298275111 |  erot = 0.326760494743868 | epot = -15.3030018276614 | etot = -14.6175140346424
644000  ekin = 0.349210670243499 |  erot = 0.346622862554325 | epot = -15.3133475674317 | etot = -14.6175140346339
645000  ekin = 0.339977915474886 |  erot = 0.370474376280189 | epot = -15.3279663263927 | etot = -14.6175140346376
646000  ekin = 0.331356734049287 |  erot = 0.397926004729598 | epot = -15.3467967734319 | etot = -14.617514034653
647000  ekin = 0.323616951062021 |  erot = 0.428462692622343 | epot = -15.3695936783637 | etot = -14.6175140346794
648000  ekin = 0.316962984679749 |  erot = 0.461463981264525 | epot = -15.3959410006599 | etot = -14.6175140347156
649000  ekin = 0.311528303721769 |  erot = 0.496226945506609 | epot = -15.4252692839889 | etot = -14.6175140347605
650000  ekin = 0.307371814502051 |  erot = 0.53199011331203 | epot = -15.4568759626267 | etot = -14.6175140348127
651000  ekin = 0.304476169211528 |  erot = 0.567957247023637 | epot = -15.4899474511057 | etot = -14.6175140348705
652000  ekin = 0.302748327843063 |  erot = 0.603320352539344 | epot = -15.523582715315 | etot = -14.6175140349325
653000  ekin = 0.302022769689561 |  erot = 0.637281675063983 | epot = -15.5568184797505 | etot = -14.617514034997
654000  ekin = 0.302067723594154 |  erot = 0.669074745116258 | epot = -15.5886565037723 | etot = -14.6175140350619
[...]
837000  ekin = 0.164407483062706 |  erot = 0.36807582593139 | epot = -15.1499973437255 | etot = -14.6175140347314
838000  ekin = 0.146268295773454 |  erot = 0.362677435797712 | epot = -15.1264597662312 | etot = -14.61751403466
839000  ekin = 0.128757768426402 |  erot = 0.360527421580405 | epot = -15.1067992246056 | etot = -14.6175140345988
840000  ekin = 0.112649960717984 |  erot = 0.361806618656283 | epot = -15.091970613925 | etot = -14.6175140345507
841000  ekin = 0.0986919456677054 |  erot = 0.366512603929069 | epot = -15.0827185841153 | etot = -14.6175140345185
842000  ekin = 0.0875630029234395 |  erot = 0.374460003555771 | epot = -15.0795370409833 | etot = -14.6175140345041
843000  ekin = 0.0798341847686366 |  erot = 0.385290606532762 | epot = -15.08263882581 | etot = -14.6175140345086
844000  ekin = 0.0759310929907395 |  erot = 0.3984927697296 | epot = -15.0919378972525 | etot = -14.6175140345322
845000  ekin = 0.076102961020352 |  erot = 0.413429207168617 | epot = -15.107046202763 | etot = -14.617514034574
846000  ekin = 0.0804010613290235 |  erot = 0.429371869322532 | epot = -15.1272869652841 | etot = -14.6175140346325
847000  ekin = 0.0886689809240873 |  erot = 0.445542241998021 | epot = -15.1517252576265 | etot = -14.6175140347044
848000  ekin = 0.100546421459775 |  erot = 0.461155038711605 | epot = -15.179215494957 | etot = -14.6175140347856
849000  ekin = 0.115486960010826 |  erot = 0.475462945351677 | epot = -15.208463940234 | etot = -14.6175140348715
850000  ekin = 0.132788806695669 |  erot = 0.487799837752774 | epot = -15.2381026794056 | etot = -14.6175140349571
851000  ekin = 0.15163622778631 |  erot = 0.49761978557658 | epot = -15.2667700483999 | etot = -14.617514035037
852000  ekin = 0.171148194576093 |  erot = 0.5045292426275 | epot = -15.2931914723102 | etot = -14.6175140351066
853000  ekin = 0.19043015939564 |  erot = 0.508310157461229 | epot = -15.3162543520185 | etot = -14.6175140351617
854000  ekin = 0.208624756899512 |  erot = 0.508932337650922 | epot = -15.3350711297497 | etot = -14.6175140351993
855000  ekin = 0.224957674812131 |  erot = 0.506554231539335 | epot = -15.3490259415692 | etot = -14.6175140352178
856000  ekin = 0.238775816538934 |  erot = 0.501512259960027 | epot = -15.3578021117156 | etot = -14.6175140352166
857000  ekin = 0.249575992233887 |  erot = 0.494299801981668 | epot = -15.3613898294122 | etot = -14.6175140351967
858000  ekin = 0.257023502073677 |  erot = 0.485537766821904 | epot = -15.3600753040553 | etot = -14.6175140351598
859000  ekin = 0.260960921285557 |  erot = 0.47593924761589 | epot = -15.3544142040099 | etot = -14.6175140351084
860000  ekin = 0.261408037072254 |  erot = 0.466270984604724 | epot = -15.3451930567227 | etot = -14.6175140350457
861000  ekin = 0.258554187538227 |  erot = 0.457314264403266 | epot = -15.3333824869164 | etot = -14.6175140349749
862000  ekin = 0.252744258033032 |  erot = 0.449827506886351 | epot = -15.3200857998187 | etot = -14.6175140348993
863000  ekin = 0.24445941779656 |  erot = 0.444512141834286 | epot = -15.3064855944532 | etot = -14.6175140348224
864000  ekin = 0.234293368840191 |  erot = 0.441983030939893 | epot = -15.2937904345275 | etot = -14.6175140347474
865000  ekin = 0.222924696624028 |  erot = 0.442744308395087 | epot = -15.2831830396966 | etot = -14.6175140346775
866000  ekin = 0.211086026109153 |  erot = 0.447169652381141 | epot = -15.275769713106 | etot = -14.6175140346157
867000  ekin = 0.199530465892741 |  erot = 0.455487658924214 | epot = -15.2725321593816 | etot = -14.6175140345647
868000  ekin = 0.188996288427104 |  erot = 0.467771811643747 | epot = -15.2742821345979 | etot = -14.6175140345271
869000  ekin = 0.180171161859106 |  erot = 0.483934855626885 | epot = -15.2816200519912 | etot = -14.6175140345052
870000  ekin = 0.17365741386822 |  erot = 0.503727420429673 | epot = -15.2948988687985 | etot = -14.6175140345006
871000  ekin = 0.169940429081846 |  erot = 0.52674119313203 | epot = -15.3141956567285 | etot = -14.6175140345146
872000  ekin = 0.169362274178155 |  erot = 0.552417088945952 | epot = -15.3392933976716 | etot = -14.6175140345475
873000  ekin = 0.172102391201285 |  erot = 0.580058846014358 | epot = -15.3696752718142 | etot = -14.6175140345986
874000  ekin = 0.17816700290151 |  erot = 0.608852557307893 | epot = -15.4045335948759 | etot = -14.6175140346665
875000  ekin = 0.187388233890407 |  erot = 0.637892396630087 | epot = -15.4427946652692 | etot = -14.6175140347487
876000  ekin = 0.19943318136702 |  erot = 0.666212376945529 | epot = -15.4831595931541 | etot = -14.6175140348415
877000  ekin = 0.213822249050307 |  erot = 0.692823325238237 | epot = -15.5241596092293 | etot = -14.6175140349407
878000  ekin = 0.229955728385699 |  erot = 0.71675421264508 | epot = -15.5642239760723 | etot = -14.6175140350415
879000  ekin = 0.24714610464469 |  erot = 0.737095186135096 | epot = -15.6017553259188 | etot = -14.617514035139
880000  ekin = 0.264653797001986 |  erot = 0.753040153406107 | epot = -15.6352079856364 | etot = -14.6175140352283
881000  ekin = 0.281723784261025 |  erot = 0.763926241591362 | epot = -15.6631640611574 | etot = -14.617514035305
882000  ekin = 0.297620641606497 |  erot = 0.769267373447878 | epot = -15.6844020504201 | etot = -14.6175140353657
883000  ekin = 0.31165996716591 |  erot = 0.768779581882635 | epot = -15.6979535844562 | etot = -14.6175140354077
884000  ekin = 0.32323477376766 |  erot = 0.762396270684418 | epot = -15.7031450798815 | etot = -14.6175140354294
885000  ekin = 0.331836099624976 |  erot = 0.750272396067649 | epot = -15.6996225311232 | etot = -14.6175140354305
886000  ekin = 0.33706775156376 |  erot = 0.73277738526586 | epot = -15.6873591722413 | etot = -14.6175140354116
887000  ekin = 0.33865564976609 |  erot = 0.710477420750346 | epot = -15.6666471058906 | etot = -14.6175140353742
888000  ekin = 0.336452632420724 |  erot = 0.684108417156207 | epot = -15.6380750848973 | etot = -14.6175140353203
889000  ekin = 0.330439768515565 |  erot = 0.654541548240145 | epot = -15.6024953520085 | etot = -14.6175140352528
890000  ekin = 0.320725208484774 |  erot = 0.622743520027188 | epot = -15.5609827636863 | etot = -14.6175140351743
891000  ekin = 0.30754138620901 |  erot = 0.589733936087593 | epot = -15.5147893573847 | etot = -14.6175140350881
892000  ekin = 0.291240998129824 |  erot = 0.55654208039805 | epot = -15.4652971135248 | etot = -14.6175140349969
893000  ekin = 0.272291667891339 |  erot = 0.524165278720875 | epot = -15.413970981516 | etot = -14.6175140349038
894000  ekin = 0.251268620703469 |  erot = 0.493530718297772 | epot = -15.3623133738123 | etot = -14.617514034811
895000  ekin = 0.228844131843647 |  erot = 0.465462234286628 | epot = -15.3118204008517 | etot = -14.6175140347214
896000  ekin = 0.205772103521931 |  erot = 0.44065313730724 | epot = -15.2639392754666 | etot = -14.6175140346374
897000  ekin = 0.182866017803037 |  erot = 0.419645693758354 | epot = -15.2200257461231 | etot = -14.6175140345617
898000  ekin = 0.160968870008541 |  erot = 0.402817425242934 | epot = -15.1813003297485 | etot = -14.617514034497
899000  ekin = 0.140914625128407 |  erot = 0.390374024162942 | epot = -15.1488026837377 | etot = -14.6175140344464
900000  ekin = 0.123482269337592 |  erot = 0.382348451689143 | epot = -15.1233447554393 | etot = -14.6175140344126
901000  ekin = 0.109345484385137 |  erot = 0.3786057375543 | epot = -15.1054652563377 | etot = -14.6175140343982
902000  ekin = 0.0990229789068443 |  erot = 0.378853140166087 | epot = -15.0953901534781 | etot = -14.6175140344052
903000  ekin = 0.0928360184564003 |  erot = 0.382655585825594 | epot = -15.0930056387161 | etot = -14.6175140344341
904000  ekin = 0.0908801123879861 |  erot = 0.389456554773426 | epot = -15.0978507016452 | etot = -14.6175140344838
905000  ekin = 0.0930167096525759 |  erot = 0.398604648849945 | epot = -15.109135393054 | etot = -14.6175140345515
906000  ekin = 0.0988880708462299 |  erot = 0.409385812369135 | epot = -15.1257879178477 | etot = -14.6175140346323
907000  ekin = 0.107954659147321 |  erot = 0.421060528764021 | epot = -15.1465292226317 | etot = -14.6175140347203
908000  ekin = 0.119550305154264 |  erot = 0.432904367174404 | epot = -15.1699687071371 | etot = -14.6175140348085
909000  ekin = 0.132947118364171 |  erot = 0.44424923215812 | epot = -15.1947103854124 | etot = -14.6175140348901
910000  ekin = 0.147420543333256 |  erot = 0.454521879656354 | epot = -15.2194564579492 | etot = -14.6175140349595
911000  ekin = 0.162305506309105 |  erot = 0.463275978359162 | epot = -15.243095519681 | etot = -14.6175140350127
912000  ekin = 0.177037050912775 |  erot = 0.470214361754759 | epot = -15.264765447715 | etot = -14.6175140350475
913000  ekin = 0.191172462463145 |  erot = 0.47519909256641 | epot = -15.2838855900937 | etot = -14.6175140350641
914000  ekin = 0.204395616840717 |  erot = 0.478248345048037 | epot = -15.3001579969529 | etot = -14.6175140350642
915000  ekin = 0.216507238695372 |  erot = 0.479520616572283 | epot = -15.3135418903184 | etot = -14.6175140350507
916000  ekin = 0.227406352399354 |  erot = 0.479288139236181 | epot = -15.324208526663 | etot = -14.6175140350275
917000  ekin = 0.237068358848421 |  erot = 0.47790239272317 | epot = -15.3324847865699 | etot = -14.6175140349983
918000  ekin = 0.245524170399261 |  erot = 0.475755244752224 | epot = -15.3387934501184 | etot = -14.6175140349669
919000  ekin = 0.252843202023974 |  erot = 0.473239468155706 | epot = -15.343596705116 | etot = -14.6175140349363
920000  ekin = 0.259121284815254 |  erot = 0.470712244290015 | epot = -15.3473475640143 | etot = -14.617514034909
921000  ekin = 0.264473144076574 |  erot = 0.468464808092157 | epot = -15.3504519870554 | etot = -14.6175140348867
922000  ekin = 0.269028180853983 |  erot = 0.466700668341734 | epot = -15.3532428840659 | etot = -14.6175140348701
923000  ekin = 0.272927944745736 |  erot = 0.465523908452108 | epot = -15.3559658880573 | etot = -14.6175140348595
924000  ekin = 0.276323793829006 |  erot = 0.464938026324777 | epot = -15.3587758550082 | etot = -14.6175140348544
925000  ekin = 0.279373649323259 |  erot = 0.46485472138072 | epot = -15.361742405558 | etot = -14.617514034854
926000  ekin = 0.282237300897742 |  erot = 0.465111106681027 | epot = -15.3648624424358 | etot = -14.617514034857
927000  ekin = 0.285070250341507 |  erot = 0.465493135293317 | epot = -15.368077420497 | etot = -14.6175140348622
928000  ekin = 0.288016501944515 |  erot = 0.465762600718122 | epot = -15.3712931375312 | etot = -14.6175140348685
929000  ekin = 0.291201026098165 |  erot = 0.465684740678949 | epot = -15.3743998016517 | etot = -14.6175140348746
930000  ekin = 0.294722459178849 |  erot = 0.465054261989122 | epot = -15.3772907560474 | etot = -14.6175140348794
931000  ekin = 0.298646764015069 |  erot = 0.463717248452617 | epot = -15.37987804735 | etot = -14.6175140348823
932000  ekin = 0.303002304639518 |  erot = 0.461587311532337 | epot = -15.3821036510548 | etot = -14.6175140348829
933000  ekin = 0.307776651094703 |  erot = 0.458654945590446 | epot = -15.3839456315665 | etot = -14.6175140348813
934000  ekin = 0.312915338271949 |  erot = 0.454989722654232 | epot = -15.3854190958038 | etot = -14.6175140348776
935000  ekin = 0.318322768321298 |  erot = 0.450735625549576 | epot = -15.3865724287433 | etot = -14.6175140348724
936000  ekin = 0.323865441581078 |  erot = 0.4461003856938 | epot = -15.3874798621412 | etot = -14.6175140348663
937000  ekin = 0.329377658420705 |  erot = 0.441340069469478 | epot = -15.3882317627502 | etot = -14.61751403486
938000  ekin = 0.334669609401419 |  erot = 0.43674015463711 | epot = -15.3889237988925 | etot = -14.617514034854
939000  ekin = 0.339538182698638 |  erot = 0.43259572362611 | epot = -15.3896479411737 | etot = -14.6175140348489
940000  ekin = 0.343779460435286 |  erot = 0.429190561371808 | epot = -15.3904840566521 | etot = -14.617514034845
941000  ekin = 0.347202304174038 |  erot = 0.426777065358206 | epot = -15.3914934043749 | etot = -14.6175140348427
942000  ekin = 0.349642062607923 |  erot = 0.425558062624919 | epot = -15.3927141600748 | etot = -14.617514034842
943000  ekin = 0.350973206935894 |  erot = 0.425671371650785 | epot = -15.3941586134297 | etot = -14.617514034843
944000  ekin = 0.351119786154916 |  erot = 0.427178062459289 | epot = -15.3958118834598 | etot = -14.6175140348456
945000  ekin = 0.350062816508881 |  erot = 0.430055404933721 | epot = -15.3976322562924 | etot = -14.6175140348498
946000  ekin = 0.347844068536826 |  erot = 0.43419544779 | epot = -15.399553551182 | etot = -14.6175140348552
947000  ekin = 0.344566017441624 |  erot = 0.439410327984555 | epot = -15.4014903802875 | etot = -14.6175140348614
948000  ekin = 0.340388212507466 |  erot = 0.445444378277408 | epot = -15.4033466256523 | etot = -14.6175140348674
949000  ekin = 0.335520427168573 |  erot = 0.451992965714934 | epot = -15.405027427756 | etot = -14.6175140348725
950000  ekin = 0.330213181196302 |  erot = 0.458727107975965 | epot = -15.4064543240477 | etot = -14.6175140348755
951000  ekin = 0.32474581655651 |  erot = 0.465321341197607 | epot = -15.4075811926297 | etot = -14.6175140348755
952000  ekin = 0.319412679962215 |  erot = 0.471482169177628 | epot = -15.4084088840117 | etot = -14.6175140348718
953000  ekin = 0.314508037100187 |  erot = 0.476974139327395 | epot = -15.4089962112918 | etot = -14.6175140348642
954000  ekin = 0.310309685024338 |  erot = 0.48163943141798 | epot = -15.4094631512954 | etot = -14.6175140348531
955000  ekin = 0.307061947765172 |  erot = 0.485408201613879 | epot = -15.4099841842186 | etot = -14.6175140348396
956000  ekin = 0.304958921288845 |  erot = 0.488297803841432 | epot = -15.4107707599557 | etot = -14.6175140348254
957000  ekin = 0.304129209168544 |  erot = 0.490400499132465 | epot = -15.412043743114 | etot = -14.617514034813
958000  ekin = 0.30462371461979 |  erot = 0.491860923621405 | epot = -15.4139986730458 | etot = -14.6175140348046
959000  ekin = 0.306408207891338 |  erot = 0.492846142548894 | epot = -15.4167683852429 | etot = -14.6175140348027
960000  ekin = 0.309362278812989 |  erot = 0.493512316198202 | epot = -15.4203886298201 | etot = -14.6175140348089
961000  ekin = 0.313285873784586 |  erot = 0.493972653387296 | epot = -15.4247725619958 | etot = -14.6175140348239
962000  ekin = 0.31791392478401 |  erot = 0.494271324762717 | epot = -15.429699284394 | etot = -14.6175140348473
963000  ekin = 0.322938673952677 |  erot = 0.49436733773729 | epot = -15.4348200465674 | etot = -14.6175140348775
964000  ekin = 0.328038281530642 |  erot = 0.494131108238433 | epot = -15.4396834246807 | etot = -14.6175140349116
965000  ekin = 0.332909295682699 |  erot = 0.493354750676295 | epot = -15.4437780813051 | etot = -14.6175140349461
966000  ekin = 0.33729968976251 |  erot = 0.491775167781853 | epot = -15.4465888925212 | etot = -14.6175140349768
967000  ekin = 0.341038574326505 |  erot = 0.489107134739274 | epot = -15.4476597440655 | etot = -14.6175140349998
968000  ekin = 0.344058508086205 |  erot = 0.485082040988283 | epot = -15.446654584086 | etot = -14.6175140350116
969000  ekin = 0.346406687226292 |  erot = 0.479487053292162 | epot = -15.4434077755287 | etot = -14.6175140350102
970000  ekin = 0.348242259950603 |  erot = 0.472199376075359 | epot = -15.4379556710211 | etot = -14.6175140349951
971000  ekin = 0.34981857790832 |  erot = 0.46321104020783 | epot = -15.4305436530838 | etot = -14.6175140349677
972000  ekin = 0.351451221504254 |  erot = 0.452641107454446 | epot = -15.4216063638894 | etot = -14.6175140349307
973000  ekin = 0.353474851841754 |  erot = 0.440734047140903 | epot = -15.4117229338711 | etot = -14.6175140348884
974000  ekin = 0.356193968986792 |  erot = 0.42784496232361 | epot = -15.4015529661561 | etot = -14.6175140348457
975000  ekin = 0.359834072253393 |  erot = 0.414413971021987 | epot = -15.3917620780828 | etot = -14.6175140348074
976000  ekin = 0.364500158165202 |  erot = 0.400933139115816 | epot = -15.3829473320587 | etot = -14.6175140347777
977000  ekin = 0.370148756532482 |  erot = 0.387909813697021 | epot = -15.3755726049891 | etot = -14.6175140347596
978000  ekin = 0.376577842833215 |  erot = 0.375830059083025 | epot = -15.3699219366707 | etot = -14.6175140347545
979000  ekin = 0.38343628910019 |  erot = 0.365125297246779 | epot = -15.3660756211092 | etot = -14.6175140347622
980000  ekin = 0.390251542223294 |  erot = 0.35614439745949 | epot = -15.3639099744643 | etot = -14.6175140347816
981000  ekin = 0.396471539317082 |  erot = 0.349132547197932 | epot = -15.3631181213249 | etot = -14.6175140348099
982000  ekin = 0.401514997593021 |  erot = 0.344217435799683 | epot = -15.3632464682369 | etot = -14.6175140348442
983000  ekin = 0.40482345877132 |  erot = 0.341402706416172 | epot = -15.3637402000689 | etot = -14.6175140348814
984000  ekin = 0.40590886668651 |  erot = 0.340568324597744 | epot = -15.3639912262029 | etot = -14.6175140349187
985000  ekin = 0.40439180306127 |  erot = 0.341477444720355 | epot = -15.3633832827352 | etot = -14.6175140349536
986000  ekin = 0.400027422801574 |  erot = 0.34378943446128 | epot = -15.361330892247 | etot = -14.6175140349842
987000  ekin = 0.392718180745197 |  erot = 0.347078806738211 | epot = -15.3573110224925 | etot = -14.617514035009
988000  ekin = 0.38251423921461 |  erot = 0.35085976914659 | epot = -15.3508880433883 | etot = -14.6175140350271
989000  ekin = 0.369603726654237 |  erot = 0.354615837188711 | epot = -15.3417335988804 | etot = -14.6175140350375
990000  ekin = 0.354295674461643 |  erot = 0.357833454087933 | epot = -15.3296431635888 | etot = -14.6175140350392
991000  ekin = 0.336998529351755 |  erot = 0.360037895318059 | epot = -15.3145504597015 | etot = -14.6175140350317
992000  ekin = 0.318196763890793 |  erot = 0.360829065190808 | epot = -15.2965398640958 | etot = -14.6175140350142
993000  ekin = 0.298427479538949 |  erot = 0.359914303089432 | epot = -15.275855817615 | etot = -14.6175140349866
994000  ekin = 0.278258203580391 |  erot = 0.357135170965373 | epot = -15.2529074094948 | etot = -14.617514034949
995000  ekin = 0.258266471895345 |  erot = 0.352485480212691 | epot = -15.2282659870101 | etot = -14.617514034902
996000  ekin = 0.239021351636229 |  erot = 0.346118523027927 | epot = -15.2026539095112 | etot = -14.617514034847
997000  ekin = 0.221066818081289 |  erot = 0.338342492442898 | epot = -15.1769233453102 | etot = -14.617514034786
998000  ekin = 0.204906835818331 |  erot = 0.329604233509071 | epot = -15.1520251040488 | etot = -14.6175140347214
999000  ekin = 0.190992053959174 |  erot = 0.320462575795008 | epot = -15.1289686644104 | etot = -14.6175140346562
1000000  ekin = 0.179708146665509 |  erot = 0.311553394429298 | epot = -15.1087755756885 | etot = -14.6175140345937
 1000000  0.013311715   -1.5443684  0.033490821   -1.4929067 -3.7544839e-05 
Loop time of 18.4193 on 1 procs for 1000000 steps with 10 atoms

Performance: 46907.305 tau/day, 54290.862 timesteps/s
99.5% CPU use with 1 MPI tasks x no OpenMP threads

MPI task timing breakdown:
Section |  min time  |  avg time  |  max time  |%varavg| %total
---------------------------------------------------------------
Pair    | 14.935     | 14.935     | 14.935     |   0.0 | 81.08
Bond    | 0.55556    | 0.55556    | 0.55556    |   0.0 |  3.02
Neigh   | 0          | 0          | 0          |   0.0 |  0.00
Comm    | 0.16028    | 0.16028    | 0.16028    |   0.0 |  0.87
Output  | 7e-06      | 7e-06      | 7e-06      |   0.0 |  0.00
Modify  | 2.5402     | 2.5402     | 2.5402     |   0.0 | 13.79
Other   |            | 0.2285     |            |       |  1.24

Nlocal:    10 ave 10 max 10 min
Histogram: 1 0 0 0 0 0 0 0 0 0
Nghost:    0 ave 0 max 0 min
Histogram: 1 0 0 0 0 0 0 0 0 0
Neighs:    45 ave 45 max 45 min
Histogram: 1 0 0 0 0 0 0 0 0 0

Total # of neighbors = 45
Ave neighs/atom = 4.5
Ave special neighs/atom = 3.6
Neighbor list builds = 0
Dangerous builds = 0

#write_restart config.${number}.*
Total wall time: 0:00:18
