LAMMPS (24 Mar 2017)
variable number	equal 1
variable ofreq	equal 1000
variable efreq	equal 1000

units lj

dimension 3

newton off

boundary  p p p

atom_style hybrid bond ellipsoid
atom_modify sort 0 1.0

# Pair interactions require lists of neighbours to be calculated
neighbor 1.0 bin
neigh_modify every 1 delay 0 check yes

read_data data.duplex1
  orthogonal box = (-20 -20 -20) to (20 20 20)
  1 by 1 by 1 MPI processor grid
  reading atoms ...
  10 atoms
  reading velocities ...
  10 velocities
  10 ellipsoids
  scanning bonds ...
  2 = max bonds/atom
  reading bonds ...
  8 bonds
  2 = max # of 1-2 neighbors
  2 = max # of 1-3 neighbors
  2 = max # of 1-4 neighbors
  4 = max # of special neighbors

set atom * mass 3.1575
  10 settings made for mass

group all type 1 4
10 atoms in group all

# oxDNA bond interactions - FENE backbone
bond_style oxdna2/fene
bond_coeff * 2.0 0.25 0.7564

# oxDNA pair interactions
pair_style hybrid/overlay oxdna2/excv oxdna2/stk oxdna2/hbond oxdna2/xstk oxdna2/coaxstk oxdna2/dh
pair_coeff * * oxdna2/excv    2.0 0.7 0.675 2.0 0.515 0.5 2.0 0.33 0.32
pair_coeff * * oxdna2/stk     0.1 6.0 0.4 0.9 0.32 0.6 1.3 0 0.8 0.9 0 0.95 0.9 0 0.95 2.0 0.65 2.0 0.65
pair_coeff * * oxdna2/hbond   0.0 8.0 0.4 0.75 0.34 0.7 1.5 0 0.7 1.5 0 0.7 1.5 0 0.7 0.46 3.141592653589793 0.7 4.0 1.5707963267948966 0.45 4.0 1.5707963267948966 0.45
pair_coeff 1 4 oxdna2/hbond   1.0678 8.0 0.4 0.75 0.34 0.7 1.5 0 0.7 1.5 0 0.7 1.5 0 0.7 0.46 3.141592653589793 0.7 4.0 1.5707963267948966 0.45 4.0 1.5707963267948966 0.45
pair_coeff 2 3 oxdna2/hbond   1.0678 8.0 0.4 0.75 0.34 0.7 1.5 0 0.7 1.5 0 0.7 1.5 0 0.7 0.46 3.141592653589793 0.7 4.0 1.5707963267948966 0.45 4.0 1.5707963267948966 0.45
pair_coeff * * oxdna2/xstk    47.5 0.575 0.675 0.495 0.655 2.25 0.791592653589793 0.58 1.7 1.0 0.68 1.7 1.0 0.68 1.5 0 0.65 1.7 0.875 0.68 1.7 0.875 0.68
pair_coeff * * oxdna2/coaxstk 58.5 0.4 0.6 0.22 0.58 2.0 2.891592653589793 0.65 1.3 0 0.8 0.9 0 0.95 0.9 0 0.95 40.0 3.116592653589793
pair_coeff * * oxdna2/dh      0.1 1.0 0.815

# NVE ensemble
fix 1 all nve/dot
#fix 1 all nve/dotc/langevin 0.1 0.1 0.03 457145 angmom 10
#fix 1 all nve/asphere
#fix 2 all langevin 0.1 0.1 0.03 457145 angmom 10

timestep 1e-5

#comm_style tiled
#fix 3 all balance 10000 1.1 rcb

#compute mol all chunk/atom molecule
#compute mychunk all vcm/chunk mol
#fix 4 all ave/time 10000 1 10000 c_mychunk[1] c_mychunk[2] c_mychunk[3] file vcm.txt mode vector

#dump pos all xyz ${ofreq} traj.${number}.xyz

#compute quat all property/atom quatw quati quatj quatk
#dump quat all custom ${ofreq} quat.${number}.txt id c_quat[1] c_quat[2] c_quat[3] c_quat[4]
#dump_modify quat sort id
#dump_modify quat format line "%d  %13.6le  %13.6le  %13.6le  %13.6le"

compute erot all erotate/asphere
compute ekin all ke
compute epot all pe
variable erot equal c_erot
variable ekin equal c_ekin
variable epot equal c_epot
variable etot equal c_erot+c_ekin+c_epot
fix 5 all print ${efreq} "$(step)  ekin = ${ekin} |  erot = ${erot} | epot = ${epot} | etot = ${etot}" screen yes
fix 5 all print 1000 "$(step)  ekin = ${ekin} |  erot = ${erot} | epot = ${epot} | etot = ${etot}" screen yes

#dump out all custom ${ofreq} out.${number}.txt id x y z vx vy vz fx fy fz tqx tqy tqz
#dump_modify out sort id
#dump_modify out format line "%d   %13.6le %13.6le %13.6le  %13.6le %13.6le %13.6le  %13.6le %13.6le %13.6le  %13.6le %13.6le %13.6le"

run 1000000
Neighbor list info ...
  update every 1 steps, delay 0 steps, check yes
  max neighbors/atom: 2000, page size: 100000
  master list distance cutoff = 2.6274
  ghost atom cutoff = 2.6274
  binsize = 1.3137, bins = 31 31 31
  6 neighbor lists, perpetual/occasional/extra = 6 0 0
  (1) pair oxdna2/excv, perpetual
      attributes: half, newton off
      pair build: half/bin/newtoff
      stencil: half/bin/3d/newtoff
      bin: standard
  (2) pair oxdna2/stk, perpetual, copy from (1)
      attributes: half, newton off
      pair build: copy
      stencil: none
      bin: none
  (3) pair oxdna2/hbond, perpetual, copy from (1)
      attributes: half, newton off
      pair build: copy
      stencil: none
      bin: none
  (4) pair oxdna2/xstk, perpetual, copy from (1)
      attributes: half, newton off
      pair build: copy
      stencil: none
      bin: none
  (5) pair oxdna2/coaxstk, perpetual, copy from (1)
      attributes: half, newton off
      pair build: copy
      stencil: none
      bin: none
  (6) pair oxdna2/dh, perpetual, copy from (1)
      attributes: half, newton off
      pair build: copy
      stencil: none
      bin: none
Per MPI rank memory allocation (min/avg/max) = 3.023 | 3.023 | 3.023 Mbytes
Step Temp E_pair E_mol TotEng Press 
       0            0   -1.4712768  0.009525411   -1.4617514 -5.8922361e-05 
1000  ekin = 0.00113086229080528 |  erot = 0.0043101016040658 | epot = -14.6229549982368 | etot = -14.617514034342
2000  ekin = 0.0044853322434243 |  erot = 0.0171407706505008 | epot = -14.6391401372615 | etot = -14.6175140343675
3000  ekin = 0.00995035259649285 |  erot = 0.0381961780846484 | epot = -14.6656605650904 | etot = -14.6175140344093
4000  ekin = 0.0173418024862054 |  erot = 0.0669935184860634 | epot = -14.7018493554381 | etot = -14.6175140344659
5000  ekin = 0.0264109356286075 |  erot = 0.102878288094517 | epot = -14.7468032582586 | etot = -14.6175140345355
6000  ekin = 0.0368533113591442 |  erot = 0.14504542056987 | epot = -14.7994127665447 | etot = -14.6175140346157
7000  ekin = 0.0483200640564843 |  erot = 0.192565862515508 | epot = -14.8583999612756 | etot = -14.6175140347036
8000  ekin = 0.0604312317605998 |  erot = 0.244417870131508 | epot = -14.9223631366883 | etot = -14.6175140347962
9000  ekin = 0.0727907119671751 |  erot = 0.299521949931839 | epot = -14.989826696789 | etot = -14.6175140348899
10000  ekin = 0.0850022498875221 |  erot = 0.356777997217902 | epot = -15.0592942820869 | etot = -14.6175140349815
11000  ekin = 0.0966857134041704 |  erot = 0.415102860829614 | epot = -15.1293026093013 | etot = -14.6175140350675
12000  ekin = 0.107492790688446 |  erot = 0.473466334178045 | epot = -15.1984731600115 | etot = -14.617514035145
13000  ekin = 0.117121180381715 |  erot = 0.530923485009724 | epot = -15.2655587006029 | etot = -14.6175140352115
14000  ekin = 0.125326348459166 |  erot = 0.586641324447693 | epot = -15.329481708172 | etot = -14.6175140352651
15000  ekin = 0.131930017119452 |  erot = 0.639918104234695 | epot = -15.389362156659 | etot = -14.6175140353048
16000  ekin = 0.136824741331535 |  erot = 0.690194029501056 | epot = -15.4445328061632 | etot = -14.6175140353306
17000  ekin = 0.139974218116303 |  erot = 0.73705286614779 | epot = -15.4945411196072 | etot = -14.6175140353432
18000  ekin = 0.141409342139924 |  erot = 0.780214750583505 | epot = -15.5391381280674 | etot = -14.617514035344
19000  ekin = 0.14122042490348 |  erot = 0.819521373491594 | epot = -15.5782558337303 | etot = -14.6175140353352
20000  ekin = 0.139546371890615 |  erot = 0.854915474127934 | epot = -15.6119758813378 | etot = -14.6175140353193
21000  ekin = 0.136561897558623 |  erot = 0.886417110947779 | epot = -15.6404930438051 | etot = -14.6175140352987
22000  ekin = 0.132464002543739 |  erot = 0.914099368829953 | epot = -15.6640774066495 | etot = -14.6175140352758
23000  ekin = 0.127458921012922 |  erot = 0.938065991541773 | epot = -15.6830389478072 | etot = -14.6175140352525
24000  ekin = 0.121750582423385 |  erot = 0.958432936326242 | epot = -15.6976975539802 | etot = -14.6175140352305
25000  ekin = 0.115531361418989 |  erot = 0.97531514293118 | epot = -15.7083605395609 | etot = -14.6175140352107
26000  ekin = 0.108975565586104 |  erot = 0.988819027952036 | epot = -15.7153086287315 | etot = -14.6175140351934
27000  ekin = 0.102235785319049 |  erot = 0.999040485514132 | epot = -15.7187903060115 | etot = -14.6175140351783
28000  ekin = 0.095441943431881 |  erot = 1.00606759140964 | epot = -15.7190235700066 | etot = -14.6175140351651
29000  ekin = 0.0887026587343887 |  erot = 1.00998681843601 | epot = -15.7162035123233 | etot = -14.6175140351529
30000  ekin = 0.0821083868014372 |  erot = 1.01089138149893 | epot = -15.7105138034411 | etot = -14.6175140351407
31000  ekin = 0.0757357206087773 |  erot = 1.00889031641317 | epot = -15.7021400721498 | etot = -14.6175140351278
32000  ekin = 0.0696522149388972 |  erot = 1.00411701389994 | epot = -15.691283263952 | etot = -14.6175140351132
33000  ekin = 0.0639211300028632 |  erot = 0.996736133735177 | epot = -15.6781712988344 | etot = -14.6175140350964
34000  ekin = 0.0586055597939536 |  erot = 0.986948071943124 | epot = -15.6630676668141 | etot = -14.617514035077
35000  ekin = 0.0537715085519321 |  erot = 0.97499041461744 | epot = -15.6462759582244 | etot = -14.617514035055
36000  ekin = 0.0494895953264297 |  erot = 0.961136064967259 | epot = -15.6281396953245 | etot = -14.6175140350308
37000  ekin = 0.0458351949405726 |  erot = 0.945687966086967 | epot = -15.6090371960325 | etot = -14.617514035005
38000  ekin = 0.0428869588016531 |  erot = 0.928970560852795 | epot = -15.5893715546332 | etot = -14.6175140349787
39000  ekin = 0.0407237982122988 |  erot = 0.9113183396798 | epot = -15.5695561728451 | etot = -14.617514034953
40000  ekin = 0.0394205547754457 |  erot = 0.893062038097747 | epot = -15.5499966278026 | etot = -14.6175140349294
41000  ekin = 0.0390427256107104 |  erot = 0.874513269990878 | epot = -15.5310700305109 | etot = -14.6175140349093
42000  ekin = 0.0396407506458402 |  erot = 0.855948622306271 | epot = -15.5131034078461 | etot = -14.617514034894
43000  ekin = 0.0412444930542154 |  erot = 0.837594480923697 | epot = -15.4963530088628 | etot = -14.6175140348849
44000  ekin = 0.0438586280730372 |  erot = 0.819614069272971 | epot = -15.4809867322287 | etot = -14.6175140348826
45000  ekin = 0.0474596621516281 |  erot = 0.802098297010783 | epot = -15.4670719940501 | etot = -14.6175140348877
46000  ekin = 0.0519951857192148 |  erot = 0.785061947877571 | epot = -15.4545711684965 | etot = -14.6175140348997
47000  ekin = 0.0573856747191636 |  erot = 0.76844639238657 | epot = -15.4433461020232 | etot = -14.6175140349174
48000  ekin = 0.0635286843632004 |  erot = 0.75212933501618 | epot = -15.433172054319 | etot = -14.6175140349396
49000  ekin = 0.070304673538874 |  erot = 0.735941123250837 | epot = -15.4237598317539 | etot = -14.6175140349642
50000  ekin = 0.0775831019857076 |  erot = 0.719686007781425 | epot = -15.4147831447563 | etot = -14.6175140349892
51000  ekin = 0.0852270843845694 |  erot = 0.703165726695028 | epot = -15.4059068460928 | etot = -14.6175140350132
52000  ekin = 0.0930950223451647 |  erot = 0.686202231166125 | epot = -15.396811288546 | etot = -14.6175140350347
53000  ekin = 0.101038429252995 |  erot = 0.668656546988927 | epot = -15.3872090112954 | etot = -14.6175140350535
54000  ekin = 0.10889654098061 |  erot = 0.650441726174306 | epot = -15.3768523022246 | etot = -14.6175140350697
55000  ekin = 0.116489881626234 |  erot = 0.631529329348001 | epot = -15.3655332460579 | etot = -14.6175140350836
56000  ekin = 0.12361610349192 |  erot = 0.611950383382611 | epot = -15.35308052197 | etot = -14.6175140350954
57000  ekin = 0.130051530401153 |  erot = 0.591792721317295 | epot = -15.3393582868232 | etot = -14.6175140351048
58000  ekin = 0.135560625193501 |  erot = 0.571196690673292 | epot = -15.3242713509773 | etot = -14.6175140351105
59000  ekin = 0.139913350827135 |  erot = 0.550350463180279 | epot = -15.307777849119 | etot = -14.6175140351115
60000  ekin = 0.142907875045794 |  erot = 0.529485019662529 | epot = -15.2899069298147 | etot = -14.6175140351063
61000  ekin = 0.144394224777542 |  erot = 0.508867904998907 | epot = -15.2707761648706 | etot = -14.6175140350941
62000  ekin = 0.144294003785763 |  erot = 0.488794507592477 | epot = -15.2506025464531 | etot = -14.6175140350748
63000  ekin = 0.142612256998146 |  erot = 0.469576039421557 | epot = -15.2297023314688 | etot = -14.6175140350491
64000  ekin = 0.139439544726902 |  erot = 0.45152434495459 | epot = -15.2084779247003 | etot = -14.6175140350188
65000  ekin = 0.134944526553566 |  erot = 0.434934714913839 | epot = -15.1873932764535 | etot = -14.6175140349861
66000  ekin = 0.129359146358223 |  erot = 0.420068607767106 | epot = -15.1669417890788 | etot = -14.6175140349535
67000  ekin = 0.122959458764236 |  erot = 0.407138362059705 | epot = -15.1476118557469 | etot = -14.617514034923
68000  ekin = 0.116045210525559 |  erot = 0.396295631876262 | epot = -15.1298548772986 | etot = -14.6175140348968
69000  ekin = 0.108920722072365 |  erot = 0.38762458997195 | epot = -15.1140593469202 | etot = -14.6175140348758
70000  ekin = 0.101878740729572 |  erot = 0.381140173640836 | epot = -15.1005329492313 | etot = -14.6175140348609
71000  ekin = 0.0951880561484016 |  erot = 0.376791007701538 | epot = -15.0894930987019 | etot = -14.617514034852
72000  ekin = 0.0890849677261927 |  erot = 0.374466237250371 | epot = -15.0810652398255 | etot = -14.6175140348489
73000  ekin = 0.0837682427021612 |  erot = 0.374005347599889 | epot = -15.0752876251531 | etot = -14.617514034851
74000  ekin = 0.0793969849744096 |  erot = 0.375210076750601 | epot = -15.0721210965825 | etot = -14.6175140348575
75000  ekin = 0.0760907865069267 |  erot = 0.377857644572265 | epot = -15.0714624659463 | etot = -14.6175140348671
76000  ekin = 0.0739315834908328 |  erot = 0.381714646755152 | epot = -15.0731602651247 | etot = -14.6175140348788
77000  ekin = 0.0729667273608161 |  erot = 0.386551032956121 | epot = -15.0770317952083 | etot = -14.6175140348914
78000  ekin = 0.073212865507933 |  erot = 0.392153586683229 | epot = -15.0828804870951 | etot = -14.617514034904
79000  ekin = 0.074660287835072 |  erot = 0.398338263929461 | epot = -15.09051258668 | etot = -14.6175140349155
80000  ekin = 0.0772774298944847 |  erot = 0.404960669863083 | epot = -15.0997521346826 | etot = -14.6175140349251
81000  ekin = 0.0810152396746107 |  erot = 0.411923913359048 | epot = -15.1104531879657 | etot = -14.617514034932
82000  ekin = 0.0858111278279411 |  erot = 0.419183131304986 | epot = -15.1225082940691 | etot = -14.6175140349362
83000  ekin = 0.0915922459205373 |  erot = 0.426746154030553 | epot = -15.1358524348887 | etot = -14.6175140349376
84000  ekin = 0.0982778862653023 |  erot = 0.434670094582779 | epot = -15.1504620157846 | etot = -14.6175140349365
85000  ekin = 0.105780875252123 |  erot = 0.443054055542032 | epot = -15.1663489657278 | etot = -14.6175140349337
86000  ekin = 0.114007936320491 |  erot = 0.452028591870552 | epot = -15.183550563121 | etot = -14.6175140349299
87000  ekin = 0.122859117093021 |  erot = 0.461742961599068 | epot = -15.2021161136185 | etot = -14.6175140349264
88000  ekin = 0.132226490250365 |  erot = 0.472351454260961 | epot = -15.2220919794351 | etot = -14.6175140349238
89000  ekin = 0.14199243043518 |  erot = 0.484000150228927 | epot = -15.2435066155872 | etot = -14.6175140349231
90000  ekin = 0.152027823848745 |  erot = 0.49681531383988 | epot = -15.2663571726137 | etot = -14.6175140349251
91000  ekin = 0.162190574344125 |  erot = 0.510894287760631 | epot = -15.2905988970349 | etot = -14.6175140349302
92000  ekin = 0.172324730223241 |  erot = 0.526299304076712 | epot = -15.3161380692387 | etot = -14.6175140349387
93000  ekin = 0.182260479602514 |  erot = 0.543054150883983 | epot = -15.342828665437 | etot = -14.6175140349505
94000  ekin = 0.191815166424497 |  erot = 0.561143224560487 | epot = -15.3704724259505 | etot = -14.6175140349655
95000  ekin = 0.200795384589871 |  erot = 0.580512230413669 | epot = -15.398821649987 | etot = -14.6175140349834
96000  ekin = 0.209000133284301 |  erot = 0.601069706845445 | epot = -15.4275838751336 | etot = -14.6175140350039
97000  ekin = 0.216224974983076 |  erot = 0.622688639933065 | epot = -15.4564276499427 | etot = -14.6175140350266
98000  ekin = 0.222267131485452 |  erot = 0.645207670246426 | epot = -15.4849888367829 | etot = -14.617514035051
99000  ekin = 0.226931474008822 |  erot = 0.668431711040234 | epot = -15.5128772201258 | etot = -14.6175140350768
100000  ekin = 0.230037392185194 |  erot = 0.692132125756912 | epot = -15.5396835530455 | etot = -14.6175140351034
101000  ekin = 0.231426538774339 |  erot = 0.716046886549487 | epot = -15.5649874604541 | etot = -14.6175140351302
102000  ekin = 0.230971416186116 |  erot = 0.739881303910906 | epot = -15.5883667552535 | etot = -14.6175140351565
103000  ekin = 0.228584676860968 |  erot = 0.763309953365433 | epot = -15.6094086654079 | etot = -14.6175140351815
104000  ekin = 0.224228843046698 |  erot = 0.785980326921886 | epot = -15.6277232051725 | etot = -14.6175140352039
105000  ekin = 0.217925953180593 |  erot = 0.807518535460022 | epot = -15.6429585238635 | etot = -14.6175140352229
106000  ekin = 0.209766205881976 |  erot = 0.827537066837565 | epot = -15.6548173079567 | etot = -14.6175140352372
107000  ekin = 0.19991466311948 |  erot = 0.845644346598459 | epot = -15.6630730449638 | etot = -14.6175140352459
108000  ekin = 0.188614735691129 |  erot = 0.861455562303715 | epot = -15.6675843332431 | etot = -14.6175140352483
109000  ekin = 0.176187061061687 |  erot = 0.874603999194433 | epot = -15.6683050955002 | etot = -14.6175140352441
110000  ekin = 0.163022626611995 |  erot = 0.88475208463374 | epot = -15.6652887464792 | etot = -14.6175140352335
111000  ekin = 0.14956938211077 |  erot = 0.89160140093568 | epot = -15.6586848182637 | etot = -14.6175140352173
112000  ekin = 0.136312261124986 |  erot = 0.8949011206007 | epot = -15.6487274169225 | etot = -14.6175140351968
113000  ekin = 0.123747404857758 |  erot = 0.894454602033368 | epot = -15.6357160420648 | etot = -14.6175140351736
114000  ekin = 0.112352324429831 |  erot = 0.890124196452667 | epot = -15.6199905560322 | etot = -14.6175140351497
115000  ekin = 0.102554569787556 |  erot = 0.881834585426713 | epot = -15.6019031903412 | etot = -14.6175140351269
116000  ekin = 0.0947020047096738 |  erot = 0.869575126614186 | epot = -15.5817911664307 | etot = -14.6175140351068
117000  ekin = 0.0890378681937318 |  erot = 0.853401690493949 | epot = -15.559953593778 | etot = -14.6175140350903
118000  ekin = 0.0856833736308548 |  erot = 0.833438318818926 | epot = -15.5366357275277 | etot = -14.6175140350779
119000  ekin = 0.0846297171118248 |  erot = 0.809878764032089 | epot = -15.5120225162133 | etot = -14.6175140350694
120000  ekin = 0.0857402026936468 |  erot = 0.782987649501416 | epot = -15.4862418872589 | etot = -14.6175140350638
121000  ekin = 0.088761978164944 |  erot = 0.753100709615785 | epot = -15.4593767228408 | etot = -14.61751403506
122000  ekin = 0.0933458418336512 |  erot = 0.720623403982127 | epot = -15.4314832808722 | etot = -14.6175140350564
123000  ekin = 0.0990718975139699 |  erot = 0.68602719834959 | epot = -15.4026131309152 | etot = -14.6175140350516
124000  ekin = 0.105478567535099 |  erot = 0.649842971567299 | epot = -15.3728355741467 | etot = -14.6175140350443
125000  ekin = 0.112092583657528 |  erot = 0.61265130691034 | epot = -15.3422579256011 | etot = -14.6175140350332
126000  ekin = 0.118457948670349 |  erot = 0.575069793125981 | epot = -15.3110417768144 | etot = -14.617514035018
127000  ekin = 0.124162352097832 |  erot = 0.537737821903371 | epot = -15.2794142089993 | etot = -14.6175140349981
128000  ekin = 0.128860000475183 |  erot = 0.501299660072983 | epot = -15.2476736955218 | etot = -14.6175140349736
129000  ekin = 0.132290197681538 |  erot = 0.466386755141783 | epot = -15.2161909877681 | etot = -14.6175140349448
130000  ekin = 0.134291248323408 |  erot = 0.433600287194685 | epot = -15.1854055704302 | etot = -14.6175140349121
131000  ekin = 0.134809368079367 |  erot = 0.403494917851113 | epot = -15.1558183208069 | etot = -14.6175140348764
132000  ekin = 0.133902311413259 |  erot = 0.376564532721602 | epot = -15.1279808789733 | etot = -14.6175140348385
133000  ekin = 0.131737425950174 |  erot = 0.353230559449875 | epot = -15.1024820201993 | etot = -14.6175140347993
134000  ekin = 0.128583872250139 |  erot = 0.333833200745338 | epot = -15.0799311077557 | etot = -14.6175140347602
135000  ekin = 0.124798858319487 |  erot = 0.31862567876175 | epot = -15.0609385718037 | etot = -14.6175140347224
136000  ekin = 0.12080796695122 |  erot = 0.307771366705934 | epot = -15.0460933683448 | etot = -14.6175140346877
137000  ekin = 0.117080018573556 |  erot = 0.301343503849859 | epot = -15.0359375570811 | etot = -14.6175140346577
138000  ekin = 0.114097404451637 |  erot = 0.299327064918768 | epot = -15.0309385040046 | etot = -14.6175140346342
139000  ekin = 0.112323403877397 |  erot = 0.301622293047273 | epot = -15.0314597315437 | etot = -14.6175140346191
140000  ekin = 0.112168587317134 |  erot = 0.308049410073558 | epot = -15.0377320320047 | etot = -14.617514034614
141000  ekin = 0.113958896787483 |  erot = 0.318354084563277 | epot = -15.0498270159712 | etot = -14.6175140346204
142000  ekin = 0.117908250110044 |  erot = 0.332213334114174 | epot = -15.0676356188633 | etot = -14.6175140346391
143000  ekin = 0.124098500240116 |  erot = 0.349241744868859 | epot = -15.0908542797794 | etot = -14.6175140346704
144000  ekin = 0.132469049162244 |  erot = 0.36899804234383 | epot = -15.1189811262199 | etot = -14.6175140347138
145000  ekin = 0.142817534773294 |  erot = 0.390992018433025 | epot = -15.1513235879745 | etot = -14.6175140347682
146000  ekin = 0.154812002594044 |  erot = 0.414692148538822 | epot = -15.1870181859643 | etot = -14.6175140348315
147000  ekin = 0.168013608208165 |  erot = 0.43953414756317 | epot = -15.2250617906724 | etot = -14.6175140349011
148000  ekin = 0.181907755044192 |  erot = 0.46493071599216 | epot = -15.2643525060103 | etot = -14.617514034974
149000  ekin = 0.195940689918404 |  erot = 0.490282644230507 | epot = -15.3037373691959 | etot = -14.6175140350469
150000  ekin = 0.209558115498161 |  erot = 0.514991307802203 | epot = -15.3420634584171 | etot = -14.6175140351168
151000  ekin = 0.222242375358722 |  erot = 0.538472447669863 | epot = -15.3782288582089 | etot = -14.6175140351803
152000  ekin = 0.233545181100895 |  erot = 0.560170967504241 | epot = -15.4112301838403 | etot = -14.6175140352351
153000  ekin = 0.243113638171897 |  erot = 0.579575715963473 | epot = -15.4402033894145 | etot = -14.6175140352791
154000  ekin = 0.250708030719563 |  erot = 0.596234520730074 | epot = -15.4644565867606 | etot = -14.617514035311
155000  ekin = 0.256210874594961 |  erot = 0.609768185048496 | epot = -15.4834930949732 | etot = -14.6175140353298
156000  ekin = 0.259627463842806 |  erot = 0.619882772314079 | epot = -15.4970242714923 | etot = -14.6175140353354
157000  ekin = 0.26107875673392 |  erot = 0.626379517381585 | epot = -15.5049723094438 | etot = -14.6175140353283
158000  ekin = 0.260787877594978 |  erot = 0.629161788909624 | epot = -15.5074637018139 | etot = -14.6175140353093
159000  ekin = 0.259061752299553 |  erot = 0.628238692725195 | epot = -15.5048144803046 | etot = -14.6175140352799
160000  ekin = 0.256269476948141 |  erot = 0.623725097357881 | epot = -15.4975086095477 | etot = -14.6175140352417
161000  ekin = 0.252818974262866 |  erot = 0.615838055765116 | epot = -15.4861710652245 | etot = -14.6175140351965
162000  ekin = 0.249133354781009 |  erot = 0.604889772114047 | epot = -15.4715371620415 | etot = -14.6175140351465
163000  ekin = 0.245628201594233 |  erot = 0.591277407066157 | epot = -15.4544196437542 | etot = -14.6175140350938
164000  ekin = 0.242690765770646 |  erot = 0.5754701254003 | epot = -15.4356749262112 | etot = -14.6175140350402
165000  ekin = 0.240661818237773 |  erot = 0.557993868664013 | epot = -15.4161697218898 | etot = -14.617514034988
166000  ekin = 0.239820672159938 |  erot = 0.539414388849556 | epot = -15.3967490959484 | etot = -14.6175140349389
167000  ekin = 0.24037368261711 |  erot = 0.520319112884873 | epot = -15.3782068303964 | etot = -14.6175140348944
168000  ekin = 0.24244635767351 |  erot = 0.501298426047331 | epot = -15.3612588185771 | etot = -14.6175140348562
169000  ekin = 0.246079081489649 |  erot = 0.482926967022199 | epot = -15.3465200833372 | etot = -14.6175140348253
170000  ekin = 0.2512263556708 |  erot = 0.465745518941327 | epot = -15.334485909415 | etot = -14.6175140348028
171000  ekin = 0.257759407502687 |  erot = 0.450244072412507 | epot = -15.3255175147045 | etot = -14.6175140347893
172000  ekin = 0.265471962315305 |  erot = 0.436846557572436 | epot = -15.3198325546728 | etot = -14.617514034785
173000  ekin = 0.274088992052948 |  erot = 0.425897760801831 | epot = -15.3175007876449 | etot = -14.6175140347901
174000  ekin = 0.283278228108448 |  erot = 0.417652965987037 | epot = -15.3184452288997 | etot = -14.6175140348042
175000  ekin = 0.292664164217591 |  erot = 0.412270652066437 | epot = -15.3224488511105 | etot = -14.6175140348264
176000  ekin = 0.301844276744599 |  erot = 0.409808663992694 | epot = -15.3291669755931 | etot = -14.6175140348558
177000  ekin = 0.310407103278429 |  erot = 0.410224178772685 | epot = -15.3381453169418 | etot = -14.6175140348907
178000  ekin = 0.317951707449239 |  erot = 0.413377690532346 | epot = -15.3488434329111 | etot = -14.6175140349295
179000  ekin = 0.324107901132174 |  erot = 0.419041092198358 | epot = -15.3606630283006 | etot = -14.6175140349701
180000  ekin = 0.328556397749118 |  erot = 0.426909726006353 | epot = -15.3729801587658 | etot = -14.6175140350103
181000  ekin = 0.331047834154798 |  erot = 0.436618006901549 | epot = -15.3851798761042 | etot = -14.6175140350478
182000  ekin = 0.331419420115411 |  erot = 0.447757936313848 | epot = -15.3966913915096 | etot = -14.6175140350804
183000  ekin = 0.329607792338432 |  erot = 0.459899520064776 | epot = -15.4070213475094 | etot = -14.6175140351062
184000  ekin = 0.325656516855951 |  erot = 0.472611792132538 | epot = -15.4157823441122 | etot = -14.6175140351237
185000  ekin = 0.319716934488103 |  erot = 0.485483030926984 | epot = -15.4227140005474 | etot = -14.6175140351323
186000  ekin = 0.312041347783061 |  erot = 0.498138700397667 | epot = -15.4276940833127 | etot = -14.6175140351319
187000  ekin = 0.302968200961952 |  erot = 0.510255791848641 | epot = -15.4307380279341 | etot = -14.6175140351235
188000  ekin = 0.292899787357099 |  erot = 0.521572552051206 | epot = -15.4319863745165 | etot = -14.6175140351082
189000  ekin = 0.282274048056294 |  erot = 0.531893031493142 | epot = -15.4316811146379 | etot = -14.6175140350885
190000  ekin = 0.271533034589587 |  erot = 0.541086413296707 | epot = -15.4301334829529 | etot = -14.6175140350666
191000  ekin = 0.261091384545769 |  erot = 0.54908161018572 | epot = -15.4276870297764 | etot = -14.6175140350449
192000  ekin = 0.251308489708551 |  erot = 0.555858063434352 | epot = -15.4246805881686 | etot = -14.6175140350257
193000  ekin = 0.242467771120031 |  erot = 0.561433978654736 | epot = -15.4214157847852 | etot = -14.6175140350104
194000  ekin = 0.2347655816246 |  erot = 0.565853352187793 | epot = -15.4181329688123 | etot = -14.6175140349999
195000  ekin = 0.228310848061445 |  erot = 0.569173077812631 | epot = -15.4149979608682 | etot = -14.6175140349941
196000  ekin = 0.223134890550306 |  erot = 0.57145120860725 | epot = -15.4121001341502 | etot = -14.6175140349926
197000  ekin = 0.219209242156003 |  erot = 0.572737138233763 | epot = -15.409460415384 | etot = -14.6175140349943
198000  ekin = 0.216468062809104 |  erot = 0.573064123808166 | epot = -15.4070462216152 | etot = -14.6175140349979
199000  ekin = 0.214831137522652 |  erot = 0.572444258403913 | epot = -15.4047894309289 | etot = -14.6175140350023
200000  ekin = 0.214223573902254 |  erot = 0.57086576066316 | epot = -15.4026033695722 | etot = -14.6175140350067
201000  ekin = 0.214589119166907 |  erot = 0.568292309386801 | epot = -15.4003954635645 | etot = -14.6175140350107
202000  ekin = 0.215895325602457 |  erot = 0.564664121433424 | epot = -15.3980734820503 | etot = -14.6175140350145
203000  ekin = 0.218130347570136 |  erot = 0.559900543318492 | epot = -15.395544925907 | etot = -14.6175140350184
204000  ekin = 0.221292667473869 |  erot = 0.553904074217835 | epot = -15.3927107767149 | etot = -14.6175140350232
205000  ekin = 0.225376258610798 |  erot = 0.546565915588112 | epot = -15.3894562092286 | etot = -14.6175140350297
206000  ekin = 0.230354397529151 |  erot = 0.537773288683187 | epot = -15.3856417212507 | etot = -14.6175140350384
207000  ekin = 0.236165428414771 |  erot = 0.527418806929786 | epot = -15.3810982703936 | etot = -14.617514035049
208000  ekin = 0.242703261860427 |  erot = 0.515412077175151 | epot = -15.3756293740966 | etot = -14.617514035061
209000  ekin = 0.249814382550021 |  erot = 0.501693407691568 | epot = -15.3690218253148 | etot = -14.6175140350732
210000  ekin = 0.257301864855649 |  erot = 0.486249049965564 | epot = -15.361064949905 | etot = -14.6175140350838
211000  ekin = 0.264935635394273 |  erot = 0.469126912720557 | epot = -15.3515765832057 | etot = -14.6175140350909
212000  ekin = 0.272467183646406 |  erot = 0.450451153648061 | epot = -15.3404323723872 | etot = -14.6175140350927
213000  ekin = 0.279646306736793 |  erot = 0.430433702677846 | epot = -15.3275940445023 | etot = -14.6175140350876
214000  ekin = 0.286237611276688 |  erot = 0.409381288017783 | epot = -15.3131329343691 | etot = -14.6175140350746
215000  ekin = 0.292034643872632 |  erot = 0.387696263734527 | epot = -15.2972449426606 | etot = -14.6175140350534
216000  ekin = 0.296870258152624 |  erot = 0.365870567411729 | epot = -15.2802548605889 | etot = -14.6175140350245
217000  ekin = 0.300622666324868 |  erot = 0.344472695102956 | epot = -15.2626093964168 | etot = -14.617514034989
218000  ekin = 0.303217269541043 |  erot = 0.324128407398458 | epot = -15.2448597118882 | etot = -14.6175140349487
219000  ekin = 0.304624843911682 |  erot = 0.305496496152239 | epot = -15.2276353749694 | etot = -14.6175140349055
220000  ekin = 0.304856982073792 |  erot = 0.289241221676068 | epot = -15.2116122386118 | etot = -14.6175140348619
221000  ekin = 0.303959749544065 |  erot = 0.276003133762455 | epot = -15.1974769181266 | etot = -14.61751403482
222000  ekin = 0.302006434070655 |  erot = 0.266369862265548 | epot = -15.1858903311184 | etot = -14.6175140347822
223000  ekin = 0.299090105490396 |  erot = 0.260848208954625 | epot = -15.1774523491954 | etot = -14.6175140347503
224000  ekin = 0.29531650374511 |  erot = 0.259838588557332 | epot = -15.1726691270288 | etot = -14.6175140347264
225000  ekin = 0.290797600317434 |  erot = 0.263612591735795 | epot = -15.1719242267649 | etot = -14.6175140347117
226000  ekin = 0.285646103232653 |  erot = 0.272294318080247 | epot = -15.1754544560203 | etot = -14.6175140347074
227000  ekin = 0.279971018689074 |  erot = 0.285846075011501 | epot = -15.1833311284151 | etot = -14.6175140347145
228000  ekin = 0.273874374727583 |  erot = 0.304059069119542 | epot = -15.1954474785804 | etot = -14.6175140347333
229000  ekin = 0.267449174159942 |  erot = 0.326549807965912 | epot = -15.2115130168895 | etot = -14.6175140347636
230000  ekin = 0.260778614118952 |  erot = 0.352763004039877 | epot = -15.2310556529637 | etot = -14.6175140348048
231000  ekin = 0.253936564976955 |  erot = 0.381981763344646 | epot = -15.2534323631772 | etot = -14.6175140348556
232000  ekin = 0.24698923084228 |  erot = 0.413345683736504 | epot = -15.2778489494931 | etot = -14.6175140349143
233000  ekin = 0.239997814735683 |  erot = 0.445877135783545 | epot = -15.3033889854978 | etot = -14.6175140349785
234000  ekin = 0.233021891669698 |  erot = 0.478515439398703 | epot = -15.3290513661138 | etot = -14.6175140350454
235000  ekin = 0.226123071286244 |  erot = 0.510157919201248 | epot = -15.3537950255994 | etot = -14.6175140351119
236000  ekin = 0.219368436952614 |  erot = 0.539706010633753 | epot = -15.3765884827609 | etot = -14.6175140351745
237000  ekin = 0.212833212708479 |  erot = 0.566113832023268 | epot = -15.3964610799618 | etot = -14.6175140352301
238000  ekin = 0.206602165162757 |  erot = 0.588436180449468 | epot = -15.412552380888 | etot = -14.6175140352757
239000  ekin = 0.200769360307635 |  erot = 0.605872583258753 | epot = -15.4241559788757 | etot = -14.6175140353093
240000  ekin = 0.195436190928488 |  erot = 0.617803458378408 | epot = -15.4307536846362 | etot = -14.6175140353293
241000  ekin = 0.190707920284559 |  erot = 0.623817360381655 | epot = -15.4320393160013 | etot = -14.6175140353351
242000  ekin = 0.186689132523883 |  erot = 0.623726737660644 | epot = -15.4279299055112 | etot = -14.6175140353267
243000  ekin = 0.18347888087463 |  erot = 0.61757185737741 | epot = -15.418564773557 | etot = -14.617514035305
244000  ekin = 0.181166166759762 |  erot = 0.60561292371356 | epot = -15.4042931257446 | etot = -14.6175140352713
245000  ekin = 0.179826690515581 |  erot = 0.588311983398978 | epot = -15.3856527091421 | etot = -14.6175140352276
246000  ekin = 0.179521473344392 |  erot = 0.566306329740652 | epot = -15.3633418382609 | etot = -14.6175140351758
247000  ekin = 0.180297726608685 |  erot = 0.54037552872489 | epot = -15.3381872904519 | etot = -14.6175140351184
248000  ekin = 0.182192022180427 |  erot = 0.511404282992934 | epot = -15.3111103402306 | etot = -14.6175140350572
249000  ekin = 0.185235475058219 |  erot = 0.480343275338998 | epot = -15.2830927853917 | etot = -14.6175140349945
250000  ekin = 0.18946032457762 |  erot = 0.448169956263045 | epot = -15.2551443157728 | etot = -14.6175140349321
251000  ekin = 0.194907020011059 |  erot = 0.415851007133659 | epot = -15.2282720620165 | etot = -14.6175140348718
252000  ekin = 0.201630699422451 |  erot = 0.384307951122869 | epot = -15.2034526853603 | etot = -14.617514034815
253000  ekin = 0.209705815254746 |  erot = 0.354387113740477 | epot = -15.1816069637584 | etot = -14.6175140347632
254000  ekin = 0.219227629545986 |  erot = 0.326834860919931 | epot = -15.1635765251836 | etot = -14.6175140347177
255000  ekin = 0.230309407956005 |  erot = 0.302278768995696 | epot = -15.1501022116313 | etot = -14.6175140346796
256000  ekin = 0.243074422920893 |  erot = 0.281215109558497 | epot = -15.1418035671295 | etot = -14.6175140346501
257000  ekin = 0.257642364628865 |  erot = 0.264002762945737 | epot = -15.139159162205 | etot = -14.6175140346304
258000  ekin = 0.274110461102935 |  erot = 0.250863404057276 | epot = -15.1424878997817 | etot = -14.6175140346215
259000  ekin = 0.292530483428745 |  erot = 0.241887528332562 | epot = -15.1519320463858 | etot = -14.6175140346245
260000  ekin = 0.312883750214262 |  erot = 0.237045600990929 | epot = -15.167443385845 | etot = -14.6175140346398
261000  ekin = 0.335057071665646 |  erot = 0.23620332462488 | epot = -15.1887744309582 | etot = -14.6175140346677
262000  ekin = 0.358823075932977 |  erot = 0.239139750883904 | epot = -15.2154768615246 | etot = -14.6175140347077
263000  ekin = 0.383828346058697 |  erot = 0.24556675356939 | epot = -15.2469091343868 | etot = -14.6175140347588
264000  ekin = 0.409592161639846 |  erot = 0.25514829095879 | epot = -15.2822544874178 | etot = -14.6175140348192
265000  ekin = 0.435517425641053 |  erot = 0.267517972446926 | epot = -15.3205494329745 | etot = -14.6175140348865
266000  ekin = 0.460913759434934 |  erot = 0.28229374222826 | epot = -15.3607215366211 | etot = -14.6175140349579
267000  ekin = 0.485031075314244 |  erot = 0.299088986461549 | epot = -15.4016340968062 | etot = -14.6175140350304
268000  ekin = 0.507100517474285 |  erot = 0.317519986657596 | epot = -15.4421345392328 | etot = -14.6175140351009
269000  ekin = 0.526378761164296 |  erot = 0.337210258004039 | epot = -15.4811030543346 | etot = -14.6175140351662
270000  ekin = 0.542191399558024 |  erot = 0.357792786171182 | epot = -15.5174982209533 | etot = -14.6175140352241
271000  ekin = 0.55397150127625 |  erot = 0.378911394713957 | epot = -15.5503969312626 | etot = -14.6175140352724
272000  ekin = 0.561290243477908 |  erot = 0.400222387434508 | epot = -15.579026666222 | etot = -14.6175140353095
273000  ekin = 0.563877614618957 |  erot = 0.421397250044594 | epot = -15.6027888999983 | etot = -14.6175140353347
274000  ekin = 0.561632338448697 |  erot = 0.442126671656052 | epot = -15.6212730454525 | etot = -14.6175140353478
275000  ekin = 0.554621238225524 |  erot = 0.462125606775959 | epot = -15.6342608803503 | etot = -14.6175140353488
276000  ekin = 0.543069132888247 |  erot = 0.481138682332307 | epot = -15.6417218505594 | etot = -14.6175140353389
277000  ekin = 0.527340979966703 |  erot = 0.498945052082944 | epot = -15.6438000673687 | etot = -14.617514035319
278000  ekin = 0.507918337218215 |  erot = 0.515361832412993 | epot = -15.6407942049222 | etot = -14.617514035291
279000  ekin = 0.485372319602766 |  erot = 0.53024547360125 | epot = -15.6331318284605 | etot = -14.6175140352565
280000  ekin = 0.460335116507262 |  erot = 0.543490744710295 | epot = -15.6213398964351 | etot = -14.6175140352175
281000  ekin = 0.433471859961099 |  erot = 0.555027349455695 | epot = -15.606013244593 | etot = -14.6175140351762
282000  ekin = 0.405454262481042 |  erot = 0.564814480005611 | epot = -15.5877827776215 | etot = -14.6175140351348
283000  ekin = 0.376937038993841 |  erot = 0.572833827991569 | epot = -15.56728490208 | etot = -14.6175140350946
284000  ekin = 0.348537747962758 |  erot = 0.579081711929156 | epot = -15.5451334949486 | etot = -14.6175140350567
285000  ekin = 0.320820372083395 |  erot = 0.583561068644996 | epot = -15.5218954757513 | etot = -14.6175140350229
286000  ekin = 0.294282726921591 |  erot = 0.586274110944376 | epot = -15.49807087286 | etot = -14.617514034994
287000  ekin = 0.269347634013421 |  erot = 0.58721647590847 | epot = -15.4740781448926 | etot = -14.6175140349707
288000  ekin = 0.246357704467551 |  erot = 0.586373659771232 | epot = -15.450245399192 | etot = -14.6175140349532
289000  ekin = 0.22557352214567 |  erot = 0.583720426230562 | epot = -15.4268079833179 | etot = -14.6175140349417
290000  ekin = 0.207174962818393 |  erot = 0.57922365744791 | epot = -15.4039126552014 | etot = -14.6175140349351
291000  ekin = 0.191265313940187 |  erot = 0.572848780862473 | epot = -15.3816281297352 | etot = -14.6175140349326
292000  ekin = 0.177877757396419 |  erot = 0.564569470031942 | epot = -15.3599612623613 | etot = -14.617514034933
293000  ekin = 0.166983649288418 |  erot = 0.554379837681261 | epot = -15.3388775219044 | etot = -14.6175140349348
294000  ekin = 0.158501898150678 |  erot = 0.542307895558042 | epot = -15.3183238286452 | etot = -14.6175140349364
295000  ekin = 0.152308641379645 |  erot = 0.528428741575596 | epot = -15.298251417892 | etot = -14.6175140349367
296000  ekin = 0.148246390134139 |  erot = 0.512875830575803 | epot = -15.2786362556445 | etot = -14.6175140349346
297000  ekin = 0.146131889948737 |  erot = 0.495848833634457 | epot = -15.2594947585125 | etot = -14.6175140349293
298000  ekin = 0.145762142540829 |  erot = 0.477616979344766 | epot = -15.2408931568064 | etot = -14.6175140349208
299000  ekin = 0.146918339842591 |  erot = 0.458517327975552 | epot = -15.2229497027275 | etot = -14.6175140349094
300000  ekin = 0.149367830717969 |  erot = 0.438948042713275 | epot = -15.205829908327 | etot = -14.6175140348958
301000  ekin = 0.152864610233931 |  erot = 0.419357266834875 | epot = -15.1897359119496 | etot = -14.6175140348808
302000  ekin = 0.157149122640062 |  erot = 0.400228590599294 | epot = -15.1748917481051 | etot = -14.6175140348658
303000  ekin = 0.16194834771892 |  erot = 0.382064246008704 | epot = -15.1615266285792 | etot = -14.6175140348516
304000  ekin = 0.166977167327322 |  erot = 0.365367110080369 | epot = -15.1498583122469 | etot = -14.6175140348392
305000  ekin = 0.171941885875759 |  erot = 0.350622387002877 | epot = -15.1400783077083 | etot = -14.6175140348297
306000  ekin = 0.176546522696758 |  erot = 0.338279561365245 | epot = -15.1323401188853 | etot = -14.6175140348233
307000  ekin = 0.180502080572099 |  erot = 0.328734935092634 | epot = -15.1267510504853 | etot = -14.6175140348206
308000  ekin = 0.183539117579173 |  erot = 0.32231506851894 | epot = -15.1233682209196 | etot = -14.6175140348214
309000  ekin = 0.185422589168761 |  erot = 0.31926113518105 | epot = -15.1221977591756 | etot = -14.6175140348258
310000  ekin = 0.18596838252546 |  erot = 0.319714556778101 | epot = -15.1231969741369 | etot = -14.6175140348333
311000  ekin = 0.185060444471766 |  erot = 0.323704474533048 | epot = -15.1262789538485 | etot = -14.6175140348436
312000  ekin = 0.18266705569995 |  erot = 0.331137883754578 | epot = -15.1313189743107 | etot = -14.6175140348562
313000  ekin = 0.178854671448202 |  erot = 0.341793554574001 | epot = -15.1381622608926 | etot = -14.6175140348704
314000  ekin = 0.173797674113419 |  erot = 0.355321045101389 | epot = -15.1466327541005 | etot = -14.6175140348857
315000  ekin = 0.167782440686126 |  erot = 0.371246117949507 | epot = -15.1565425935371 | etot = -14.6175140349014
316000  ekin = 0.161204347699483 |  erot = 0.388983636697569 | epot = -15.1677020193138 | etot = -14.6175140349167
317000  ekin = 0.154556738723145 |  erot = 0.407858516720337 | epot = -15.1799292903744 | etot = -14.6175140349309
318000  ekin = 0.148411457828143 |  erot = 0.427134549770667 | epot = -15.1930600425422 | etot = -14.6175140349434
319000  ekin = 0.143391260343367 |  erot = 0.446049980955804 | epot = -15.2069552762529 | etot = -14.6175140349537
320000  ekin = 0.140135163879429 |  erot = 0.463857713006082 | epot = -15.2215069118471 | etot = -14.6175140349616
321000  ekin = 0.139258496830789 |  erot = 0.479867117343116 | epot = -15.2366396491412 | etot = -14.6175140349673
322000  ekin = 0.141309963686665 |  erot = 0.493483840953484 | epot = -15.2523078396112 | etot = -14.6175140349711
323000  ekin = 0.146728465401823 |  erot = 0.504243890594755 | epot = -15.2684863909706 | etot = -14.6175140349741
324000  ekin = 0.155802740978128 |  erot = 0.511838753068286 | epot = -15.285155529024 | etot = -14.6175140349776
325000  ekin = 0.168637192339279 |  erot = 0.516129344219886 | epot = -15.3022805715426 | etot = -14.6175140349834
326000  ekin = 0.185127492740314 |  erot = 0.517147991937071 | epot = -15.31978951967 | etot = -14.6175140349926
327000  ekin = 0.204949583924698 |  erot = 0.515089155112464 | epot = -15.3375527740434 | etot = -14.6175140350062
328000  ekin = 0.227565145375698 |  erot = 0.510290835145397 | epot = -15.3553700155455 | etot = -14.6175140350244
329000  ekin = 0.252245305620947 |  erot = 0.503209396461946 | epot = -15.3729687371292 | etot = -14.6175140350463
330000  ekin = 0.278112223737838 |  erot = 0.494390678508285 | epot = -15.3900169373164 | etot = -14.6175140350703
331000  ekin = 0.304195517643728 |  erot = 0.484439927615862 | epot = -15.4061494803532 | etot = -14.6175140350936
332000  ekin = 0.329497983391289 |  erot = 0.473992405220338 | epot = -15.4210044237253 | etot = -14.6175140351137
333000  ekin = 0.353063353197021 |  erot = 0.463685785197061 | epot = -15.4342631735221 | etot = -14.617514035128
334000  ekin = 0.374038491014966 |  erot = 0.454134842084351 | epot = -15.4456873682339 | etot = -14.6175140351346
335000  ekin = 0.391723520498624 |  erot = 0.44590856262641 | epot = -15.4551461182577 | etot = -14.6175140351327
336000  ekin = 0.405605581596876 |  erot = 0.439509690041266 | epot = -15.4626293067607 | etot = -14.6175140351225
337000  ekin = 0.415374601836511 |  erot = 0.435356764652945 | epot = -15.4682454015947 | etot = -14.6175140351053
338000  ekin = 0.420921997008494 |  erot = 0.4337688621957 | epot = -15.4722048942871 | etot = -14.6175140350829
339000  ekin = 0.422325110445994 |  erot = 0.434953376212245 | epot = -15.4747925217162 | etot = -14.6175140350579
340000  ekin = 0.419821259879065 |  erot = 0.438997304560045 | epot = -15.4763325994719 | etot = -14.6175140350328
341000  ekin = 0.413775534579932 |  erot = 0.445862573585468 | epot = -15.4771521431752 | etot = -14.6175140350098
342000  ekin = 0.404646174019828 |  erot = 0.455385967573506 | epot = -15.4775461765844 | etot = -14.617514034991
343000  ekin = 0.392950705832007 |  erot = 0.467284215126369 | epot = -15.4777489559361 | etot = -14.6175140349777
344000  ekin = 0.379235231728315 |  erot = 0.481164689425287 | epot = -15.4779139561242 | etot = -14.6175140349706
345000  ekin = 0.364048459932831 |  erot = 0.49654196729344 | epot = -15.4781044621959 | etot = -14.6175140349696
346000  ekin = 0.347921358320248 |  erot = 0.512860132814242 | epot = -15.4782955261082 | etot = -14.6175140349738
347000  ekin = 0.331352665808313 |  erot = 0.529520204052381 | epot = -15.4783869048424 | etot = -14.6175140349817
348000  ekin = 0.314799955037007 |  erot = 0.545911447468509 | epot = -15.478225437497 | etot = -14.6175140349915
349000  ekin = 0.298675493175969 |  erot = 0.561444708833552 | epot = -15.4776342370106 | etot = -14.6175140350011
350000  ekin = 0.28334581552179 |  erot = 0.575585348315622 | epot = -15.4764451988457 | etot = -14.6175140350083
351000  ekin = 0.269133730328657 |  erot = 0.587883045338955 | epot = -15.474530810679 | etot = -14.6175140350114
352000  ekin = 0.256321431306528 |  erot = 0.597995738138102 | epot = -15.4718312044538 | etot = -14.6175140350092
353000  ekin = 0.245153509655857 |  erot = 0.605705335206491 | epot = -15.4683728798634 | etot = -14.617514035001
354000  ekin = 0.235838910987786 |  erot = 0.610923562934953 | epot = -15.4642765089099 | etot = -14.6175140349872
355000  ekin = 0.228551231301984 |  erot = 0.613687305426088 | epot = -15.4597525716969 | etot = -14.6175140349688
356000  ekin = 0.223427131308619 |  erot = 0.61414390282533 | epot = -15.4550850690815 | etot = -14.6175140349475
357000  ekin = 0.220563006919496 |  erot = 0.612527933402533 | epot = -15.4506049752473 | etot = -14.6175140349253
358000  ekin = 0.220010333199303 |  erot = 0.609131855544879 | epot = -15.4466562236489 | etot = -14.6175140349047
359000  ekin = 0.221770268741646 |  erot = 0.604273418958276 | epot = -15.443557722588 | etot = -14.6175140348881
360000  ekin = 0.225788163654918 |  erot = 0.598262925571842 | epot = -15.4415651241044 | etot = -14.6175140348777
361000  ekin = 0.231948578438913 |  erot = 0.59137325198523 | epot = -15.4408358652996 | etot = -14.6175140348754
362000  ekin = 0.240071331019464 |  erot = 0.583815109039738 | epot = -15.4414004749418 | etot = -14.6175140348826
363000  ekin = 0.249908988059078 |  erot = 0.575719406612622 | epot = -15.4431424295716 | etot = -14.6175140348999
364000  ekin = 0.261146140583132 |  erot = 0.56712790648618 | epot = -15.4457880819966 | etot = -14.6175140349273
365000  ekin = 0.273400773646818 |  erot = 0.557992653604894 | epot = -15.4489074622159 | etot = -14.6175140349642
366000  ekin = 0.286228056504663 |  erot = 0.548184015757871 | epot = -15.4519261072718 | etot = -14.6175140350093
367000  ekin = 0.299126926926786 |  erot = 0.537506547610907 | epot = -15.4541475095983 | etot = -14.6175140350606
368000  ekin = 0.311549892639084 |  erot = 0.525721330951755 | epot = -15.4547852587065 | etot = -14.6175140351156
369000  ekin = 0.322916493342769 |  erot = 0.512572942753926 | epot = -15.4530034712682 | etot = -14.6175140351715
370000  ekin = 0.332630833324557 |  erot = 0.497818805481132 | epot = -15.4479636740308 | etot = -14.6175140352251
371000  ekin = 0.340103492446634 |  erot = 0.481258447415918 | epot = -15.4388759751356 | etot = -14.6175140352731
372000  ekin = 0.344777943664193 |  erot = 0.462760223983496 | epot = -15.4250522029596 | etot = -14.6175140353119
373000  ekin = 0.346161332162081 |  erot = 0.442283380417406 | epot = -15.405958747918 | etot = -14.6175140353385
374000  ekin = 0.343859062980667 |  erot = 0.419893962766177 | epot = -15.3812670610967 | etot = -14.6175140353498
375000  ekin = 0.337612023151491 |  erot = 0.395773904235502 | epot = -15.35089996273 | etot = -14.617514035343
376000  ekin = 0.327334336193659 |  erot = 0.370223433835828 | epot = -15.3150718053453 | etot = -14.6175140353159
377000  ekin = 0.313148263712968 |  erot = 0.3436575453366 | epot = -15.2743198443167 | etot = -14.6175140352671
378000  ekin = 0.295411338277735 |  erot = 0.316597454537734 | epot = -15.2295228280119 | etot = -14.6175140351964
379000  ekin = 0.274729408510529 |  erot = 0.289657740939432 | epot = -15.1819011845551 | etot = -14.6175140351051
380000  ekin = 0.251948675267414 |  erot = 0.263529414055011 | epot = -15.1329921243187 | etot = -14.6175140349963
381000  ekin = 0.228120837035203 |  erot = 0.238958749468097 | epot = -15.0845936213794 | etot = -14.6175140348761
382000  ekin = 0.204438854506746 |  erot = 0.216721270519329 | epot = -15.0386741597779 | etot = -14.6175140347518
383000  ekin = 0.182146263755385 |  erot = 0.19759188098445 | epot = -14.9972521793722 | etot = -14.6175140346323
384000  ekin = 0.162429780679522 |  erot = 0.182311896924387 | epot = -14.9622557121308 | etot = -14.6175140345269
385000  ekin = 0.146310622123822 |  erot = 0.171555128911536 | epot = -14.9353797854792 | etot = -14.6175140344439
386000  ekin = 0.134552389652403 |  erot = 0.165895597224741 | epot = -14.9179620212657 | etot = -14.6175140343886
387000  ekin = 0.127600986328395 |  erot = 0.165779213534325 | epot = -14.9108942342266 | etot = -14.6175140343639
388000  ekin = 0.125565151523028 |  erot = 0.171500950984996 | epot = -14.9145801368772 | etot = -14.6175140343691
389000  ekin = 0.128237001096973 |  erot = 0.183188026636525 | epot = -14.9289390621349 | etot = -14.6175140344014
390000  ekin = 0.135143637923168 |  erot = 0.200788930663413 | epot = -14.9534466030433 | etot = -14.6175140344567
391000  ekin = 0.145616156499953 |  erot = 0.224068074688611 | epot = -14.9871982657191 | etot = -14.6175140345306
392000  ekin = 0.158862235246809 |  erot = 0.252606362171908 | epot = -15.0289826320371 | etot = -14.6175140346184
393000  ekin = 0.174032087603698 |  erot = 0.285808726839658 | epot = -15.0773548491589 | etot = -14.6175140347155
394000  ekin = 0.190272707003915 |  erot = 0.322920107512839 | epot = -15.1307068493349 | etot = -14.6175140348181
395000  ekin = 0.206769905102427 |  erot = 0.363051013228117 | epot = -15.1873349532527 | etot = -14.6175140349221
396000  ekin = 0.222780272470673 |  erot = 0.405212687947374 | epot = -15.2455069954414 | etot = -14.6175140350234
397000  ekin = 0.23765569871957 |  erot = 0.448360183482314 | epot = -15.3035299173199 | etot = -14.6175140351181
398000  ekin = 0.250862154070767 |  erot = 0.491439914329226 | epot = -15.3598161036022 | etot = -14.6175140352022
399000  ekin = 0.261993055954332 |  erot = 0.533437059170117 | epot = -15.4129441503972 | etot = -14.6175140352727
400000  ekin = 0.270776550507805 |  erot = 0.573417887949047 | epot = -15.4617084737844 | etot = -14.6175140353276
401000  ekin = 0.277075831016468 |  erot = 0.610562842823497 | epot = -15.505152709206 | etot = -14.6175140353661
402000  ekin = 0.280882158892238 |  erot = 0.644187798759039 | epot = -15.5425839930397 | etot = -14.6175140353884
403000  ekin = 0.282301228579434 |  erot = 0.67375296864169 | epot = -15.5735682326173 | etot = -14.6175140353962
404000  ekin = 0.281534519812515 |  erot = 0.698860907481897 | epot = -15.5979094626858 | etot = -14.6175140353913
405000  ekin = 0.278857975737129 |  erot = 0.719246574878127 | epot = -15.6156185859915 | etot = -14.6175140353763
406000  ekin = 0.274600555759476 |  erot = 0.734763157396773 | epot = -15.6268777485094 | etot = -14.6175140353531
407000  ekin = 0.269124923358509 |  erot = 0.745367259285043 | epot = -15.6320062179672 | etot = -14.6175140353237
408000  ekin = 0.26281185316572 |  erot = 0.751106276665205 | epot = -15.63143216512 | etot = -14.6175140352891
409000  ekin = 0.256049112192118 |  erot = 0.752109968276165 | epot = -15.6256731157185 | etot = -14.6175140352503
410000  ekin = 0.249224269809733 |  erot = 0.748584332259637 | epot = -15.6153226372768 | etot = -14.6175140352074
411000  ekin = 0.242720888553438 |  erot = 0.740809103918405 | epot = -15.6010440276326 | etot = -14.6175140351607
412000  ekin = 0.236916379506096 |  erot = 0.729136085380813 | epot = -15.5835664999974 | etot = -14.6175140351105
413000  ekin = 0.232179735243654 |  erot = 0.713985498456962 | epot = -15.5636792687578 | etot = -14.6175140350572
414000  ekin = 0.228867632642245 |  erot = 0.695838652585844 | epot = -15.5422203202303 | etot = -14.6175140350022
415000  ekin = 0.227317772307857 |  erot = 0.67522569539618 | epot = -15.520057502651 | etot = -14.6175140349469
416000  ekin = 0.227838940777609 |  erot = 0.652708261105125 | epot = -15.4980612367764 | etot = -14.6175140348937
417000  ekin = 0.230697970866892 |  erot = 0.628857925336008 | epot = -15.477069931048 | etot = -14.6175140348451
418000  ekin = 0.236104416120682 |  erot = 0.604232291329717 | epot = -15.4578507422538 | etot = -14.6175140348034
419000  ekin = 0.244194252200402 |  erot = 0.579351108945084 | epot = -15.4410593959167 | etot = -14.6175140347712
420000  ekin = 0.255014214168465 |  erot = 0.554674986841137 | epot = -15.4272032357599 | etot = -14.6175140347503
421000  ekin = 0.268508458340296 |  erot = 0.530589008736319 | epot = -15.4166115018185 | etot = -14.6175140347419
422000  ekin = 0.284509119560497 |  erot = 0.507392982380563 | epot = -15.4094161366875 | etot = -14.6175140347464
423000  ekin = 0.302732060426935 |  erot = 0.485299248118974 | epot = -15.4055453433094 | etot = -14.6175140347635
424000  ekin = 0.322778728051397 |  erot = 0.464438075670481 | epot = -15.4047308385137 | etot = -14.6175140347918
425000  ekin = 0.344144594922636 |  erot = 0.444869796712133 | epot = -15.4065284264641 | etot = -14.6175140348294
426000  ekin = 0.366234204300036 |  erot = 0.42660205298371 | epot = -15.4103502921573 | etot = -14.6175140348736
427000  ekin = 0.388382398339813 |  erot = 0.409609962240046 | epot = -15.4155063955013 | etot = -14.6175140349215
428000  ekin = 0.409880900047521 |  erot = 0.393856678091914 | epot = -15.4212516131094 | etot = -14.61751403497
429000  ekin = 0.430009061106474 |  erot = 0.379311788381608 | epot = -15.4268348845041 | etot = -14.617514035016
430000  ekin = 0.448067283636569 |  erot = 0.365965282400515 | epot = -15.4315466010941 | etot = -14.617514035057
431000  ekin = 0.463411378723581 |  erot = 0.353835411175173 | epot = -15.4347608249895 | etot = -14.6175140350908
432000  ekin = 0.475485941535261 |  erot = 0.342969616703679 | epot = -15.4359695933546 | etot = -14.6175140351157
433000  ekin = 0.483854704021325 |  erot = 0.333438714396286 | epot = -15.4348074535484 | etot = -14.6175140351308
434000  ekin = 0.488225698519512 |  erot = 0.325325491782385 | epot = -15.4310652254377 | etot = -14.6175140351358
435000  ekin = 0.48846961521867 |  erot = 0.318709988965961 | epot = -15.4246936393158 | etot = -14.6175140351311
436000  ekin = 0.484629100798387 |  erot = 0.313653867974887 | epot = -15.4157970038909 | etot = -14.6175140351177
437000  ekin = 0.476917712285183 |  erot = 0.310186654191005 | epot = -15.4046184015729 | etot = -14.6175140350967
438000  ekin = 0.465707830236418 |  erot = 0.308296241623084 | epot = -15.3915181069294 | etot = -14.6175140350699
439000  ekin = 0.451507536801451 |  erot = 0.307925153770687 | epot = -15.3769467256113 | etot = -14.6175140350392
440000  ekin = 0.43492765901413 |  erot = 0.308973010492867 | epot = -15.3614147045135 | etot = -14.6175140350065
441000  ekin = 0.41664165734993 |  erot = 0.311304747383586 | epot = -15.3454604397074 | etot = -14.6175140349739
442000  ekin = 0.397341542601565 |  erot = 0.314762618736299 | epot = -15.3296181962812 | etot = -14.6175140349433
443000  ekin = 0.377694362715541 |  erot = 0.319179725729324 | epot = -15.314388123361 | etot = -14.6175140349161
444000  ekin = 0.358304425136815 |  erot = 0.324393298190027 | epot = -15.3002117582203 | etot = -14.6175140348934
445000  ekin = 0.339684383335157 |  erot = 0.330254911559458 | epot = -15.2874533297707 | etot = -14.6175140348761
446000  ekin = 0.322237701351825 |  erot = 0.336636009507997 | epot = -15.2763877457241 | etot = -14.6175140348643
447000  ekin = 0.306253086583715 |  erot = 0.343428242757654 | epot = -15.2671953641993 | etot = -14.6175140348579
448000  ekin = 0.291909091343981 |  erot = 0.350538602019956 | epot = -15.2599617282208 | etot = -14.6175140348568
449000  ekin = 0.279285717664383 |  erot = 0.357880263087869 | epot = -15.254680015613 | etot = -14.6175140348608
450000  ekin = 0.268379332693761 |  erot = 0.365360767815961 | epot = -15.2512541353793 | etot = -14.6175140348696
451000  ekin = 0.259117719163038 |  erot = 0.372869677558774 | epot = -15.2495014316051 | etot = -14.6175140348833
452000  ekin = 0.251373384973841 |  erot = 0.380268095669017 | epot = -15.2491555155445 | etot = -14.6175140349017
453000  ekin = 0.244974824127976 |  erot = 0.387382402362654 | epot = -15.2498712614149 | etot = -14.6175140349243
454000  ekin = 0.239716691076602 |  erot = 0.394004131859282 | epot = -15.251234857886 | etot = -14.6175140349502
455000  ekin = 0.235370413814525 |  erot = 0.399897145639886 | epot = -15.252781594432 | etot = -14.6175140349776
456000  ekin = 0.231696513790873 |  erot = 0.404812188422494 | epot = -15.254022737218 | etot = -14.6175140350046
457000  ekin = 0.22845901443235 |  erot = 0.408507709512941 | epot = -15.2544807589739 | etot = -14.6175140350286
458000  ekin = 0.225441196082655 |  erot = 0.410774705621955 | epot = -15.2537299367515 | etot = -14.6175140350469
459000  ekin = 0.222461018940778 |  erot = 0.411462514810065 | epot = -15.251437568808 | etot = -14.6175140350572
460000  ekin = 0.219384094438711 |  erot = 0.410502136527464 | epot = -15.2474002660241 | etot = -14.6175140350579
461000  ekin = 0.216132245240217 |  erot = 0.407923844131223 | epot = -15.2415701244196 | etot = -14.6175140350481
462000  ekin = 0.212686361973379 |  erot = 0.403866554422698 | epot = -15.2340669514243 | etot = -14.6175140350282
463000  ekin = 0.20908321848285 |  erot = 0.398577486489113 | epot = -15.2251747399712 | etot = -14.6175140349992
464000  ekin = 0.205406888263726 |  erot = 0.392401883856584 | epot = -15.2153228070836 | etot = -14.6175140349633
465000  ekin = 0.201776197881064 |  erot = 0.385763783461888 | epot = -15.205054016266 | etot = -14.617514034923
466000  ekin = 0.198330130961176 |  erot = 0.379139817336958 | epot = -15.1949839831793 | etot = -14.6175140348812
467000  ekin = 0.195213224017119 |  erot = 0.373028711257446 | epot = -15.1857559701151 | etot = -14.6175140348405
468000  ekin = 0.192562810062153 |  erot = 0.367919448414883 | epot = -15.1779962932808 | etot = -14.6175140348038
469000  ekin = 0.190499545154762 |  erot = 0.364261004085585 | epot = -15.1722745840131 | etot = -14.6175140347728
470000  ekin = 0.189122086032732 |  erot = 0.362436180586967 | epot = -15.1690723013685 | etot = -14.6175140347488
471000  ekin = 0.188506156938858 |  erot = 0.362741456207262 | epot = -15.1687616478786 | etot = -14.6175140347325
472000  ekin = 0.188707621222383 |  erot = 0.365373993438327 | epot = -15.1715956493846 | etot = -14.6175140347239
473000  ekin = 0.189768618622269 |  erot = 0.370426120543873 | epot = -15.1777087738884 | etot = -14.6175140347222
474000  ekin = 0.191725397341757 |  erot = 0.377886798112627 | epot = -15.1871262301808 | etot = -14.6175140347264
475000  ekin = 0.194616213071354 |  erot = 0.387648901412458 | epot = -15.1997791492193 | etot = -14.6175140347355
476000  ekin = 0.198487636161311 |  erot = 0.39952067815555 | epot = -15.2155223490652 | etot = -14.6175140347483
477000  ekin = 0.203397790430554 |  erot = 0.413239540254437 | epot = -15.2341513654491 | etot = -14.6175140347641
478000  ekin = 0.209415519783972 |  erot = 0.42848646692651 | epot = -15.2554160214928 | etot = -14.6175140347823
479000  ekin = 0.216615156595466 |  erot = 0.444899686771501 | epot = -15.2790288781697 | etot = -14.6175140348028
480000  ekin = 0.225067223158473 |  erot = 0.462086880017466 | epot = -15.3046681380015 | etot = -14.6175140348255
481000  ekin = 0.234826185148504 |  erot = 0.479635803738671 | epot = -15.3319760237382 | etot = -14.617514034851
482000  ekin = 0.24591693935591 |  erot = 0.497123799837159 | epot = -15.3605547740724 | etot = -14.6175140348793
483000  ekin = 0.258322039581452 |  erot = 0.514126984880453 | epot = -15.3899630593723 | etot = -14.6175140349104
484000  ekin = 0.27197166705544 |  erot = 0.530229960568061 | epot = -15.4197156625675 | etot = -14.617514034944
485000  ekin = 0.28673803081022 |  erot = 0.545036619609118 | epot = -15.4492886853988 | etot = -14.6175140349795
486000  ekin = 0.302435294442587 |  erot = 0.558182125190107 | epot = -15.4781314546481 | etot = -14.6175140350154
487000  ekin = 0.318825369858622 |  erot = 0.569345540302361 | epot = -15.5056849452114 | etot = -14.6175140350504
488000  ekin = 0.335629120856587 |  erot = 0.578262027782387 | epot = -15.5314051837218 | etot = -14.6175140350828
489000  ekin = 0.352541803825709 |  erot = 0.584733173542209 | epot = -15.5547890124787 | etot = -14.6175140351108
490000  ekin = 0.369251041133789 |  erot = 0.588633902376135 | epot = -15.5753989786432 | etot = -14.6175140351333
491000  ekin = 0.385455339944 |  erot = 0.589914693970006 | epot = -15.5928840690632 | etot = -14.6175140351492
492000  ekin = 0.400881156478982 |  erot = 0.588598334680707 | epot = -15.6069935263179 | etot = -14.6175140351582
493000  ekin = 0.415296746377544 |  erot = 0.584771169137607 | epot = -15.6175819506758 | etot = -14.6175140351607
494000  ekin = 0.428521503102922 |  erot = 0.578569614095767 | epot = -15.6246051523561 | etot = -14.6175140351574
495000  ekin = 0.440430011858761 |  erot = 0.570163426568541 | epot = -15.6281074735769 | etot = -14.6175140351496
496000  ekin = 0.450950706316723 |  erot = 0.559737766477561 | epot = -15.628202507933 | etot = -14.6175140351387
497000  ekin = 0.460059581798179 |  erot = 0.547476355485722 | epot = -15.6250499724103 | etot = -14.6175140351264
498000  ekin = 0.467769906492305 |  erot = 0.533547985555255 | epot = -15.6188319271617 | etot = -14.6175140351141
499000  ekin = 0.474119221073068 |  erot = 0.518098277332677 | epot = -15.6097315335085 | etot = -14.6175140351028
500000  ekin = 0.479155106635165 |  erot = 0.50124797893749 | epot = -15.5979171206657 | etot = -14.617514035093
501000  ekin = 0.482921233338954 |  erot = 0.483098304082639 | epot = -15.5835335725064 | etot = -14.6175140350848
502000  ekin = 0.485445093649074 |  erot = 0.463742920559534 | epot = -15.5667020492864 | etot = -14.6175140350778
503000  ekin = 0.486728599209635 |  erot = 0.443285305605599 | epot = -15.5475279398862 | etot = -14.617514035071
504000  ekin = 0.486742408087914 |  erot = 0.42185937463177 | epot = -15.5261158177829 | etot = -14.6175140350632
505000  ekin = 0.485424480827684 |  erot = 0.399650657768078 | epot = -15.5025891736488 | etot = -14.6175140350531
506000  ekin = 0.482682973411861 |  erot = 0.376914939267211 | epot = -15.4771119477183 | etot = -14.6175140350393
507000  ekin = 0.478403198154604 |  erot = 0.353991273961022 | epot = -15.4499085071364 | etot = -14.6175140350208
508000  ekin = 0.472458052935435 |  erot = 0.33130671013391 | epot = -15.4212787980667 | etot = -14.6175140349973
509000  ekin = 0.464721062855385 |  erot = 0.309370883447746 | epot = -15.3916059812719 | etot = -14.6175140349688
510000  ekin = 0.455081004104092 |  erot = 0.288759823578743 | epot = -15.3613548626187 | etot = -14.6175140349359
511000  ekin = 0.443456979180403 |  erot = 0.270089690707412 | epot = -15.3310607047875 | etot = -14.6175140348997
512000  ekin = 0.429812848219576 |  erot = 0.253982534898693 | epot = -15.3013094179802 | etot = -14.617514034862
513000  ekin = 0.414169942618991 |  erot = 0.241027258547331 | epot = -15.2727112359909 | etot = -14.6175140348246
514000  ekin = 0.396617122319463 |  erot = 0.231739657368321 | epot = -15.2458708144771 | etot = -14.6175140347893
515000  ekin = 0.377317407138792 |  erot = 0.2265255487572 | epot = -15.221356990654 | etot = -14.617514034758
516000  ekin = 0.356510629533619 |  erot = 0.225650587239691 | epot = -15.1996752515051 | etot = -14.6175140347318
517000  ekin = 0.334511811731562 |  erot = 0.229219509886498 | epot = -15.18124535633 | etot = -14.6175140347119
518000  ekin = 0.311705249160027 |  erot = 0.237166415926756 | epot = -15.1663856997855 | etot = -14.6175140346987
519000  ekin = 0.288534562405514 |  erot = 0.24925645619383 | epot = -15.1553050532917 | etot = -14.6175140346924
520000  ekin = 0.265489234982409 |  erot = 0.265098165451265 | epot = -15.1481014351262 | etot = -14.6175140346926
521000  ekin = 0.243088358087734 |  erot = 0.28416474516013 | epot = -15.1447671379465 | etot = -14.6175140346986
522000  ekin = 0.221862437060796 |  erot = 0.305821970140485 | epot = -15.1451984419112 | etot = -14.6175140347099
523000  ekin = 0.202334169776219 |  erot = 0.329360070797331 | epot = -15.1492082752991 | etot = -14.6175140347255
524000  ekin = 0.184999091076192 |  erot = 0.354026911471077 | epot = -15.1565400372919 | etot = -14.6175140347446
525000  ekin = 0.170306912739357 |  erot = 0.379059948771681 | epot = -15.1668808962775 | etot = -14.6175140347665
526000  ekin = 0.158644243148446 |  erot = 0.403715126925617 | epot = -15.1798734048646 | etot = -14.6175140347905
527000  ekin = 0.150319367666608 |  erot = 0.42729102581269 | epot = -15.1951244282959 | etot = -14.6175140348166
528000  ekin = 0.145549592055317 |  erot = 0.449147424933789 | epot = -15.2122110518333 | etot = -14.6175140348442
529000  ekin = 0.144451603984813 |  erot = 0.468718121850924 | epot = -15.2306837607091 | etot = -14.6175140348734
530000  ekin = 0.147035267138347 |  erot = 0.485518371011576 | epot = -15.2500676730542 | etot = -14.6175140349043
531000  ekin = 0.153201203684288 |  erot = 0.49914783549727 | epot = -15.2698630741182 | etot = -14.6175140349366
532000  ekin = 0.162742448479711 |  erot = 0.509290301682675 | epot = -15.2895467851327 | etot = -14.6175140349703
533000  ekin = 0.17535035488191 |  erot = 0.515711587206687 | epot = -15.3085759770934 | etot = -14.6175140350048
534000  ekin = 0.190624856013511 |  erot = 0.518257146630579 | epot = -15.3263960376834 | etot = -14.6175140350393
535000  ekin = 0.208088493536815 |  erot = 0.516850140104718 | epot = -15.3424526687142 | etot = -14.6175140350727
536000  ekin = 0.227204325842678 |  erot = 0.511491240065689 | epot = -15.3562096010119 | etot = -14.6175140351036
537000  ekin = 0.247396768812971 |  erot = 0.502260311074144 | epot = -15.3671711150173 | etot = -14.6175140351302
538000  ekin = 0.268074342413378 |  erot = 0.489319600961445 | epot = -15.3749079785256 | etot = -14.6175140351508
539000  ekin = 0.288653182933434 |  erot = 0.472917679672164 | epot = -15.3790848977693 | etot = -14.6175140351637
540000  ekin = 0.308579985825766 |  erot = 0.453392904739558 | epot = -15.3794869257329 | etot = -14.6175140351676
541000  ekin = 0.327353008191228 |  erot = 0.431174973010935 | epot = -15.3760420163632 | etot = -14.6175140351611
542000  ekin = 0.344539853506947 |  erot = 0.406783142888998 | epot = -15.3688370315398 | etot = -14.6175140351439
543000  ekin = 0.359790986513975 |  erot = 0.380819988063775 | epot = -15.3581250096939 | etot = -14.6175140351162
544000  ekin = 0.372848263090832 |  erot = 0.35396003067243 | epot = -15.344322328842 | etot = -14.6175140350787
545000  ekin = 0.383548167009797 |  erot = 0.32693321248176 | epot = -15.3279954145248 | etot = -14.6175140350332
546000  ekin = 0.39181986738573 |  erot = 0.300503784237963 | epot = -15.3098376866052 | etot = -14.6175140349816
547000  ekin = 0.397678590182378 |  erot = 0.27544571388707 | epot = -15.2906383389957 | etot = -14.6175140349263
548000  ekin = 0.401215088504814 |  erot = 0.25251605036599 | epot = -15.2712451737407 | etot = -14.6175140348699
549000  ekin = 0.402582175512773 |  erot = 0.232427794767611 | epot = -15.2525240050959 | etot = -14.6175140348155
550000  ekin = 0.401979352687952 |  erot = 0.21582374083298 | epot = -15.2353171282862 | etot = -14.6175140347652
551000  ekin = 0.399636550193979 |  erot = 0.203252510909713 | epot = -15.220403095825 | etot = -14.6175140347213
552000  ekin = 0.395797934840878 |  erot = 0.195147714573752 | epot = -15.2084596841006 | etot = -14.617514034686
553000  ekin = 0.390706676476181 |  erot = 0.191810879117309 | epot = -15.2000315902546 | etot = -14.6175140346611
554000  ekin = 0.384591526958083 |  erot = 0.193398609454344 | epot = -15.1955041710601 | etot = -14.6175140346477
555000  ekin = 0.377656068332665 |  erot = 0.199914362893988 | epot = -15.1950844658734 | etot = -14.6175140346468
556000  ekin = 0.370071512615674 |  erot = 0.211205266307097 | epot = -15.1987908135806 | etot = -14.6175140346578
557000  ekin = 0.361973939272807 |  erot = 0.226964515102961 | epot = -15.2064524890562 | etot = -14.6175140346805
558000  ekin = 0.353466765020814 |  erot = 0.246739996102198 | epot = -15.2177207958362 | etot = -14.6175140347132
559000  ekin = 0.344628961765223 |  erot = 0.26994976567065 | epot = -15.2320927621895 | etot = -14.6175140347536
560000  ekin = 0.335528980568069 |  erot = 0.295904778796301 | epot = -15.2489477941631 | etot = -14.6175140347987
561000  ekin = 0.326243446081701 |  erot = 0.323838714909082 | epot = -15.2675961958353 | etot = -14.6175140348445
562000  ekin = 0.316878486813716 |  erot = 0.352943857553535 | epot = -15.2873363792543 | etot = -14.617514034887
563000  ekin = 0.307590234582006 |  erot = 0.382410843957942 | epot = -15.3075151134627 | etot = -14.6175140349228
564000  ekin = 0.298599911427738 |  erot = 0.411468934029839 | epot = -15.3275828804064 | etot = -14.6175140349488
565000  ekin = 0.290198521501629 |  erot = 0.439422606477971 | epot = -15.3471351629437 | etot = -14.6175140349641
566000  ekin = 0.282736992095932 |  erot = 0.465680158920132 | epot = -15.3659311859852 | etot = -14.6175140349691
567000  ekin = 0.276599956454254 |  erot = 0.489770841523124 | epot = -15.3838848329439 | etot = -14.6175140349665
568000  ekin = 0.272165052790864 |  erot = 0.511348887820875 | epot = -15.401027975572 | etot = -14.6175140349602
569000  ekin = 0.269753809413365 |  erot = 0.530185258477411 | epot = -15.4174531028455 | etot = -14.6175140349548
570000  ekin = 0.269583567607375 |  erot = 0.546150320474818 | epot = -15.4332479230362 | etot = -14.617514034954
571000  ekin = 0.271731068577883 |  erot = 0.559192265325737 | epot = -15.4484373688642 | etot = -14.6175140349606
572000  ekin = 0.276116495687097 |  erot = 0.5693163216341 | epot = -15.4629468522959 | etot = -14.6175140349747
573000  ekin = 0.282512256444537 |  erot = 0.576569321998212 | epot = -15.4765956134374 | etot = -14.6175140349947
574000  ekin = 0.290574483947443 |  erot = 0.581030490761516 | epot = -15.4891190097262 | etot = -14.6175140350173
575000  ekin = 0.299890113326591 |  erot = 0.582808418137568 | epot = -15.5002125665028 | etot = -14.6175140350386
576000  ekin = 0.310029076130856 |  erot = 0.582041678954806 | epot = -15.5095847901412 | etot = -14.6175140350555
577000  ekin = 0.320591144135671 |  erot = 0.578899817193345 | epot = -15.5170049963946 | etot = -14.6175140350656
578000  ekin = 0.33123968081773 |  erot = 0.573581904321356 | epot = -15.5223356202072 | etot = -14.6175140350681
579000  ekin = 0.341718767395709 |  erot = 0.566311213814785 | epot = -15.5255440162742 | etot = -14.6175140350637
580000  ekin = 0.351854361646189 |  erot = 0.557326170820722 | epot = -15.526694567521 | etot = -14.617514035054
581000  ekin = 0.361543170719957 |  erot = 0.546869043111496 | epot = -15.5259262488727 | etot = -14.6175140350413
582000  ekin = 0.370734291431731 |  erot = 0.535174473618109 | epot = -15.5234228000774 | etot = -14.6175140350276
583000  ekin = 0.379408545146361 |  erot = 0.522459863754298 | epot = -15.5193824439152 | etot = -14.6175140350145
584000  ekin = 0.387559338332067 |  erot = 0.508918999939668 | epot = -15.5139923732753 | etot = -14.6175140350036
585000  ekin = 0.395177418309442 |  erot = 0.494719483694806 | epot = -15.5074109369995 | etot = -14.6175140349952
586000  ekin = 0.402240533516603 |  erot = 0.480003760424766 | epot = -15.4997583289309 | etot = -14.6175140349896
587000  ekin = 0.408707997145274 |  erot = 0.464893014294149 | epot = -15.4911150464257 | etot = -14.6175140349863
588000  ekin = 0.414519545772962 |  erot = 0.449492951760492 | epot = -15.4815265325182 | etot = -14.6175140349848
589000  ekin = 0.419597612555348 |  erot = 0.433900487905301 | epot = -15.4710121354448 | etot = -14.6175140349842
590000  ekin = 0.423852083806582 |  erot = 0.418210489542943 | epot = -15.4595766083332 | etot = -14.6175140349837
591000  ekin = 0.427186671517495 |  erot = 0.402521929657886 | epot = -15.447222636158 | etot = -14.6175140349827
592000  ekin = 0.429506137373701 |  erot = 0.386943005728732 | epot = -15.4339631780827 | etot = -14.6175140349803
593000  ekin = 0.430723706116628 |  erot = 0.371594936609101 | epot = -15.4198326777017 | etot = -14.617514034976
594000  ekin = 0.430768094953851 |  erot = 0.356614269836485 | epot = -15.4048963997596 | etot = -14.6175140349693
595000  ekin = 0.429589664830371 |  erot = 0.342153609169837 | epot = -15.3892573089603 | etot = -14.6175140349601
596000  ekin = 0.427165296133683 |  erot = 0.328380718540713 | epot = -15.3730600496226 | etot = -14.6175140349482
597000  ekin = 0.423501658500194 |  erot = 0.315475989401854 | epot = -15.3564916828361 | etot = -14.6175140349341
598000  ekin = 0.418636501255828 |  erot = 0.303628359580228 | epot = -15.3397788957539 | etot = -14.6175140349179
599000  ekin = 0.412638207582772 |  erot = 0.293029673722308 | epot = -15.3231819162053 | etot = -14.6175140349002
600000  ekin = 0.405603414753991 |  erot = 0.283867637225042 | epot = -15.306985086861 | etot = -14.617514034882
601000  ekin = 0.397652939448921 |  erot = 0.276317573359969 | epot = -15.2914845476729 | etot = -14.617514034864
602000  ekin = 0.388926339151973 |  erot = 0.270533300127964 | epot = -15.2769736741272 | etot = -14.6175140348473
603000  ekin = 0.379575547711316 |  erot = 0.266637582798161 | epot = -15.2637271653423 | etot = -14.6175140348328
604000  ekin = 0.36975811222467 |  erot = 0.264712769809215 | epot = -15.2519849168554 | etot = -14.6175140348215
605000  ekin = 0.359630614964768 |  erot = 0.264792359550132 | epot = -15.241937009329 | etot = -14.6175140348141
606000  ekin = 0.349342882571473 |  erot = 0.266854337886995 | epot = -15.2337112552696 | etot = -14.6175140348112
607000  ekin = 0.339033558751712 |  erot = 0.270817131627804 | epot = -15.2273647251924 | etot = -14.6175140348129
608000  ekin = 0.328827538259548 |  erot = 0.276538908097638 | epot = -15.2228804811762 | etot = -14.617514034819
609000  ekin = 0.31883562108778 |  erot = 0.283820700144897 | epot = -15.2201703560617 | etot = -14.6175140348291
610000  ekin = 0.30915654256846 |  erot = 0.292413461056469 | epot = -15.219084038467 | etot = -14.617514034842
611000  ekin = 0.299881272108338 |  erot = 0.302028697870661 | epot = -15.2194240048357 | etot = -14.6175140348567
612000  ekin = 0.291099167856369 |  erot = 0.312351863790414 | epot = -15.2209650665183 | etot = -14.6175140348715
613000  ekin = 0.282905257831717 |  erot = 0.323057294042809 | epot = -15.2234765867597 | etot = -14.6175140348852
614000  ekin = 0.275407632339979 |  erot = 0.333823223653552 | epot = -15.2267448908899 | etot = -14.6175140348964
615000  ekin = 0.268733725567263 |  erot = 0.344345386321353 | epot = -15.2305931467927 | etot = -14.6175140349041
616000  ekin = 0.26303418113654 |  erot = 0.354347879927357 | epot = -15.2348960959719 | etot = -14.617514034908
617000  ekin = 0.258483071857804 |  erot = 0.363590372787407 | epot = -15.2395874795532 | etot = -14.617514034908
618000  ekin = 0.255273496413556 |  erot = 0.37187125453879 | epot = -15.2446587858571 | etot = -14.6175140349048
619000  ekin = 0.253608004174612 |  erot = 0.379026921287115 | epot = -15.2501489603613 | etot = -14.6175140348996
620000  ekin = 0.253683881421971 |  erot = 0.38492793451358 | epot = -15.2561258508295 | etot = -14.6175140348939
621000  ekin = 0.255674023709782 |  erot = 0.389473226071952 | epot = -15.2626612846714 | etot = -14.6175140348897
622000  ekin = 0.259704853367547 |  erot = 0.392583779639718 | epot = -15.2698026678959 | etot = -14.6175140348886
623000  ekin = 0.26583342999938 |  erot = 0.394197274405698 | epot = -15.2775447392974 | etot = -14.6175140348924
624000  ekin = 0.274026439188205 |  erot = 0.394265031624513 | epot = -15.2858055057147 | etot = -14.617514034902
625000  ekin = 0.284144015738361 |  erot = 0.392752285176072 | epot = -15.2944103358322 | etot = -14.6175140349178
626000  ekin = 0.295931256226117 |  erot = 0.3896423443803 | epot = -15.3030876355457 | etot = -14.6175140349393
627000  ekin = 0.309019727829642 |  erot = 0.384944676504115 | epot = -15.3114784392987 | etot = -14.6175140349649
628000  ekin = 0.322940275279045 |  erot = 0.378706350959298 | epot = -15.3191606612307 | etot = -14.6175140349924
629000  ekin = 0.33714704369826 |  erot = 0.371025698974093 | epot = -15.3256867776909 | etot = -14.6175140350185
630000  ekin = 0.351051052994966 |  erot = 0.362066500826319 | epot = -15.3306315888613 | etot = -14.61751403504
631000  ekin = 0.364060148819084 |  erot = 0.352070586245444 | epot = -15.333644770118 | etot = -14.6175140350535
632000  ekin = 0.375621025661728 |  erot = 0.341366514680726 | epot = -15.3345015753988 | etot = -14.6175140350564
633000  ekin = 0.38525854122481 |  erot = 0.330372092305293 | epot = -15.3331446685769 | etot = -14.6175140350468
634000  ekin = 0.39260786561676 |  erot = 0.319588956493476 | epot = -15.3297108571345 | etot = -14.6175140350243
635000  ekin = 0.39743609727868 |  erot = 0.309588318033233 | epot = -15.3245384503017 | etot = -14.6175140349898
636000  ekin = 0.399651602685356 |  erot = 0.300988094378316 | epot = -15.318153732009 | etot = -14.6175140349453
637000  ekin = 0.399301141333133 |  erot = 0.294422893568946 | epot = -15.3112380697961 | etot = -14.6175140348941
638000  ekin = 0.396556439147412 |  erot = 0.290509369489622 | epot = -15.3045798434768 | etot = -14.6175140348397
639000  ekin = 0.391692975514002 |  erot = 0.289810143797406 | epot = -15.2990171540975 | etot = -14.6175140347861
640000  ekin = 0.385064212934167 |  erot = 0.292799653113662 | epot = -15.2953779007848 | etot = -14.617514034737
641000  ekin = 0.377074355551307 |  erot = 0.299834934663043 | epot = -15.2944233249095 | etot = -14.6175140346952
642000  ekin = 0.368152133961519 |  erot = 0.311133625026294 | epot = -15.296799793651 | etot = -14.6175140346632
643000  ekin = 0.358727298275115 |  erot = 0.326760494743852 | epot = -15.3030018276615 | etot = -14.6175140346425
644000  ekin = 0.349210670243501 |  erot = 0.346622862554313 | epot = -15.3133475674318 | etot = -14.617514034634
645000  ekin = 0.339977915474887 |  erot = 0.370474376280179 | epot = -15.3279663263927 | etot = -14.6175140346377
646000  ekin = 0.331356734049285 |  erot = 0.397926004729584 | epot = -15.346796773432 | etot = -14.6175140346531
647000  ekin = 0.323616951062017 |  erot = 0.428462692622329 | epot = -15.3695936783638 | etot = -14.6175140346795
648000  ekin = 0.316962984679742 |  erot = 0.461463981264509 | epot = -15.39594100066 | etot = -14.6175140347157
649000  ekin = 0.311528303721762 |  erot = 0.496226945506592 | epot = -15.4252692839889 | etot = -14.6175140347606
650000  ekin = 0.307371814502042 |  erot = 0.531990113312007 | epot = -15.4568759626268 | etot = -14.6175140348128
651000  ekin = 0.304476169211518 |  erot = 0.567957247023611 | epot = -15.4899474511058 | etot = -14.6175140348706
652000  ekin = 0.302748327843053 |  erot = 0.603320352539316 | epot = -15.523582715315 | etot = -14.6175140349326
653000  ekin = 0.302022769689551 |  erot = 0.637281675063945 | epot = -15.5568184797506 | etot = -14.6175140349971
654000  ekin = 0.302067723594143 |  erot = 0.669074745116215 | epot = -15.5886565037724 | etot = -14.617514035062
655000  ekin = 0.302594671774764 |  erot = 0.697984728110322 | epot = -15.6180934350104 | etot = -14.6175140351253
656000  ekin = 0.30327116127365 |  erot = 0.723368330432018 | epot = -15.6441535268902 | etot = -14.6175140351846
[...]
838000  ekin = 0.146268295773427 |  erot = 0.362677435797702 | epot = -15.1264597662312 | etot = -14.6175140346601
839000  ekin = 0.128757768426377 |  erot = 0.360527421580394 | epot = -15.1067992246057 | etot = -14.6175140345989
840000  ekin = 0.112649960717962 |  erot = 0.361806618656276 | epot = -15.0919706139251 | etot = -14.6175140345508
841000  ekin = 0.0986919456676882 |  erot = 0.366512603929065 | epot = -15.0827185841154 | etot = -14.6175140345186
842000  ekin = 0.0875630029234267 |  erot = 0.374460003555766 | epot = -15.0795370409834 | etot = -14.6175140345042
843000  ekin = 0.0798341847686289 |  erot = 0.385290606532755 | epot = -15.08263882581 | etot = -14.6175140345086
844000  ekin = 0.0759310929907371 |  erot = 0.398492769729592 | epot = -15.0919378972526 | etot = -14.6175140345323
845000  ekin = 0.0761029610203549 |  erot = 0.413429207168603 | epot = -15.1070462027631 | etot = -14.6175140345741
846000  ekin = 0.0804010613290312 |  erot = 0.429371869322519 | epot = -15.1272869652842 | etot = -14.6175140346326
847000  ekin = 0.0886689809240991 |  erot = 0.445542241998012 | epot = -15.1517252576266 | etot = -14.6175140347045
848000  ekin = 0.10054642145979 |  erot = 0.461155038711596 | epot = -15.1792154949571 | etot = -14.6175140347857
849000  ekin = 0.115486960010843 |  erot = 0.475462945351667 | epot = -15.2084639402341 | etot = -14.6175140348716
850000  ekin = 0.132788806695687 |  erot = 0.487799837752767 | epot = -15.2381026794056 | etot = -14.6175140349572
851000  ekin = 0.151636227786327 |  erot = 0.497619785576575 | epot = -15.2667700484 | etot = -14.6175140350371
852000  ekin = 0.171148194576108 |  erot = 0.504529242627505 | epot = -15.2931914723103 | etot = -14.6175140351066
853000  ekin = 0.19043015939565 |  erot = 0.508310157461236 | epot = -15.3162543520186 | etot = -14.6175140351617
854000  ekin = 0.208624756899518 |  erot = 0.508932337650936 | epot = -15.3350711297498 | etot = -14.6175140351993
855000  ekin = 0.224957674812131 |  erot = 0.506554231539352 | epot = -15.3490259415693 | etot = -14.6175140352178
856000  ekin = 0.238775816538927 |  erot = 0.501512259960049 | epot = -15.3578021117157 | etot = -14.6175140352167
857000  ekin = 0.249575992233873 |  erot = 0.494299801981698 | epot = -15.3613898294123 | etot = -14.6175140351968
858000  ekin = 0.257023502073655 |  erot = 0.485537766821928 | epot = -15.3600753040554 | etot = -14.6175140351598
859000  ekin = 0.260960921285528 |  erot = 0.475939247615908 | epot = -15.3544142040099 | etot = -14.6175140351085
860000  ekin = 0.261408037072217 |  erot = 0.46627098460475 | epot = -15.3451930567228 | etot = -14.6175140350458
861000  ekin = 0.258554187538184 |  erot = 0.457314264403307 | epot = -15.3333824869164 | etot = -14.6175140349749
862000  ekin = 0.252744258032984 |  erot = 0.449827506886398 | epot = -15.3200857998187 | etot = -14.6175140348993
863000  ekin = 0.244459417796508 |  erot = 0.44451214183432 | epot = -15.3064855944533 | etot = -14.6175140348225
864000  ekin = 0.234293368840137 |  erot = 0.441983030939926 | epot = -15.2937904345275 | etot = -14.6175140347475
865000  ekin = 0.222924696623973 |  erot = 0.442744308395109 | epot = -15.2831830396966 | etot = -14.6175140346776
866000  ekin = 0.211086026109098 |  erot = 0.447169652381157 | epot = -15.275769713106 | etot = -14.6175140346158
867000  ekin = 0.199530465892687 |  erot = 0.455487658924226 | epot = -15.2725321593816 | etot = -14.6175140345647
868000  ekin = 0.188996288427053 |  erot = 0.467771811643752 | epot = -15.2742821345979 | etot = -14.6175140345271
869000  ekin = 0.180171161859058 |  erot = 0.4839348556269 | epot = -15.2816200519912 | etot = -14.6175140345052
870000  ekin = 0.173657413868177 |  erot = 0.503727420429686 | epot = -15.2948988687985 | etot = -14.6175140345006
871000  ekin = 0.169940429081807 |  erot = 0.526741193132036 | epot = -15.3141956567285 | etot = -14.6175140345146
872000  ekin = 0.16936227417812 |  erot = 0.552417088945945 | epot = -15.3392933976716 | etot = -14.6175140345475
873000  ekin = 0.172102391201256 |  erot = 0.580058846014348 | epot = -15.3696752718142 | etot = -14.6175140345986
874000  ekin = 0.178167002901486 |  erot = 0.608852557307869 | epot = -15.4045335948759 | etot = -14.6175140346666
875000  ekin = 0.187388233890387 |  erot = 0.637892396630056 | epot = -15.4427946652691 | etot = -14.6175140347487
876000  ekin = 0.199433181367003 |  erot = 0.666212376945488 | epot = -15.4831595931541 | etot = -14.6175140348416
877000  ekin = 0.213822249050295 |  erot = 0.69282332523819 | epot = -15.5241596092293 | etot = -14.6175140349408
878000  ekin = 0.229955728385689 |  erot = 0.716754212645022 | epot = -15.5642239760723 | etot = -14.6175140350416
879000  ekin = 0.247146104644683 |  erot = 0.737095186135023 | epot = -15.6017553259188 | etot = -14.6175140351391
880000  ekin = 0.264653797001979 |  erot = 0.753040153406023 | epot = -15.6352079856363 | etot = -14.6175140352283
881000  ekin = 0.281723784261018 |  erot = 0.76392624159128 | epot = -15.6631640611574 | etot = -14.6175140353051
882000  ekin = 0.29762064160649 |  erot = 0.769267373447792 | epot = -15.68440205042 | etot = -14.6175140353658
883000  ekin = 0.311659967165901 |  erot = 0.768779581882543 | epot = -15.6979535844562 | etot = -14.6175140354077
884000  ekin = 0.323234773767649 |  erot = 0.762396270684338 | epot = -15.7031450798815 | etot = -14.6175140354295
885000  ekin = 0.331836099624964 |  erot = 0.750272396067583 | epot = -15.6996225311231 | etot = -14.6175140354306
886000  ekin = 0.337067751563746 |  erot = 0.732777385265791 | epot = -15.6873591722412 | etot = -14.6175140354117
887000  ekin = 0.338655649766074 |  erot = 0.710477420750299 | epot = -15.6666471058906 | etot = -14.6175140353742
888000  ekin = 0.336452632420706 |  erot = 0.684108417156166 | epot = -15.6380750848972 | etot = -14.6175140353204
889000  ekin = 0.330439768515544 |  erot = 0.654541548240117 | epot = -15.6024953520084 | etot = -14.6175140352528
890000  ekin = 0.320725208484752 |  erot = 0.622743520027164 | epot = -15.5609827636863 | etot = -14.6175140351744
891000  ekin = 0.307541386208986 |  erot = 0.589733936087572 | epot = -15.5147893573846 | etot = -14.6175140350881
892000  ekin = 0.2912409981298 |  erot = 0.556542080398037 | epot = -15.4652971135247 | etot = -14.6175140349969
893000  ekin = 0.272291667891316 |  erot = 0.524165278720867 | epot = -15.413970981516 | etot = -14.6175140349038
894000  ekin = 0.251268620703445 |  erot = 0.493530718297755 | epot = -15.3623133738123 | etot = -14.6175140348111
895000  ekin = 0.228844131843626 |  erot = 0.465462234286617 | epot = -15.3118204008516 | etot = -14.6175140347214
896000  ekin = 0.205772103521913 |  erot = 0.440653137307236 | epot = -15.2639392754666 | etot = -14.6175140346375
897000  ekin = 0.182866017803022 |  erot = 0.419645693758353 | epot = -15.2200257461231 | etot = -14.6175140345618
898000  ekin = 0.16096887000853 |  erot = 0.402817425242944 | epot = -15.1813003297485 | etot = -14.617514034497
899000  ekin = 0.1409146251284 |  erot = 0.39037402416295 | epot = -15.1488026837377 | etot = -14.6175140344464
900000  ekin = 0.123482269337589 |  erot = 0.38234845168916 | epot = -15.1233447554394 | etot = -14.6175140344126
901000  ekin = 0.109345484385139 |  erot = 0.37860573755432 | epot = -15.1054652563377 | etot = -14.6175140343982
902000  ekin = 0.0990229789068497 |  erot = 0.378853140166106 | epot = -15.0953901534782 | etot = -14.6175140344052
903000  ekin = 0.0928360184564096 |  erot = 0.382655585825617 | epot = -15.0930056387162 | etot = -14.6175140344341
904000  ekin = 0.090880112387998 |  erot = 0.389456554773451 | epot = -15.0978507016453 | etot = -14.6175140344838
905000  ekin = 0.0930167096525896 |  erot = 0.39860464884997 | epot = -15.1091353930541 | etot = -14.6175140345515
906000  ekin = 0.0988880708462436 |  erot = 0.409385812369162 | epot = -15.1257879178478 | etot = -14.6175140346324
907000  ekin = 0.107954659147334 |  erot = 0.421060528764045 | epot = -15.1465292226318 | etot = -14.6175140347204
908000  ekin = 0.119550305154274 |  erot = 0.432904367174429 | epot = -15.1699687071372 | etot = -14.6175140348085
909000  ekin = 0.132947118364179 |  erot = 0.444249232158146 | epot = -15.1947103854125 | etot = -14.6175140348901
910000  ekin = 0.147420543333259 |  erot = 0.454521879656393 | epot = -15.2194564579492 | etot = -14.6175140349596
911000  ekin = 0.162305506309105 |  erot = 0.463275978359197 | epot = -15.243095519681 | etot = -14.6175140350127
912000  ekin = 0.177037050912772 |  erot = 0.470214361754794 | epot = -15.2647654477151 | etot = -14.6175140350475
913000  ekin = 0.191172462463139 |  erot = 0.47519909256644 | epot = -15.2838855900937 | etot = -14.6175140350642
914000  ekin = 0.204395616840708 |  erot = 0.478248345048065 | epot = -15.300157996953 | etot = -14.6175140350642
915000  ekin = 0.21650723869536 |  erot = 0.479520616572313 | epot = -15.3135418903184 | etot = -14.6175140350508
916000  ekin = 0.227406352399341 |  erot = 0.479288139236201 | epot = -15.3242085266631 | etot = -14.6175140350275
917000  ekin = 0.237068358848407 |  erot = 0.477902392723181 | epot = -15.33248478657 | etot = -14.6175140349984
918000  ekin = 0.245524170399248 |  erot = 0.475755244752233 | epot = -15.3387934501184 | etot = -14.6175140349669
919000  ekin = 0.252843202023962 |  erot = 0.473239468155714 | epot = -15.3435967051161 | etot = -14.6175140349364
920000  ekin = 0.259121284815245 |  erot = 0.470712244290019 | epot = -15.3473475640143 | etot = -14.6175140349091
921000  ekin = 0.264473144076567 |  erot = 0.468464808092164 | epot = -15.3504519870555 | etot = -14.6175140348867
922000  ekin = 0.269028180853978 |  erot = 0.466700668341743 | epot = -15.3532428840659 | etot = -14.6175140348702
923000  ekin = 0.272927944745733 |  erot = 0.465523908452111 | epot = -15.3559658880574 | etot = -14.6175140348595
924000  ekin = 0.276323793829006 |  erot = 0.464938026324776 | epot = -15.3587758550082 | etot = -14.6175140348544
925000  ekin = 0.279373649323261 |  erot = 0.464854721380715 | epot = -15.361742405558 | etot = -14.617514034854
926000  ekin = 0.282237300897746 |  erot = 0.465111106681012 | epot = -15.3648624424358 | etot = -14.617514034857
927000  ekin = 0.285070250341514 |  erot = 0.465493135293291 | epot = -15.368077420497 | etot = -14.6175140348622
928000  ekin = 0.288016501944524 |  erot = 0.465762600718085 | epot = -15.3712931375312 | etot = -14.6175140348686
929000  ekin = 0.291201026098177 |  erot = 0.465684740678902 | epot = -15.3743998016517 | etot = -14.6175140348746
930000  ekin = 0.294722459178862 |  erot = 0.465054261989064 | epot = -15.3772907560474 | etot = -14.6175140348795
931000  ekin = 0.298646764015084 |  erot = 0.463717248452556 | epot = -15.37987804735 | etot = -14.6175140348824
932000  ekin = 0.303002304639533 |  erot = 0.461587311532279 | epot = -15.3821036510548 | etot = -14.617514034883
933000  ekin = 0.307776651094719 |  erot = 0.45865494559038 | epot = -15.3839456315665 | etot = -14.6175140348814
934000  ekin = 0.312915338271965 |  erot = 0.454989722654165 | epot = -15.3854190958038 | etot = -14.6175140348777
935000  ekin = 0.318322768321313 |  erot = 0.450735625549507 | epot = -15.3865724287433 | etot = -14.6175140348725
936000  ekin = 0.323865441581091 |  erot = 0.446100385693733 | epot = -15.3874798621412 | etot = -14.6175140348664
937000  ekin = 0.329377658420717 |  erot = 0.441340069469407 | epot = -15.3882317627502 | etot = -14.6175140348601
938000  ekin = 0.334669609401427 |  erot = 0.436740154637041 | epot = -15.3889237988926 | etot = -14.6175140348541
939000  ekin = 0.339538182698642 |  erot = 0.432595723626032 | epot = -15.3896479411737 | etot = -14.617514034849
940000  ekin = 0.343779460435288 |  erot = 0.429190561371735 | epot = -15.3904840566522 | etot = -14.6175140348451
941000  ekin = 0.347202304174036 |  erot = 0.42677706535814 | epot = -15.391493404375 | etot = -14.6175140348428
942000  ekin = 0.349642062607919 |  erot = 0.425558062624862 | epot = -15.3927141600748 | etot = -14.617514034842
943000  ekin = 0.350973206935886 |  erot = 0.425671371650738 | epot = -15.3941586134297 | etot = -14.6175140348431
944000  ekin = 0.351119786154907 |  erot = 0.427178062459248 | epot = -15.3958118834598 | etot = -14.6175140348457
945000  ekin = 0.35006281650887 |  erot = 0.430055404933682 | epot = -15.3976322562924 | etot = -14.6175140348499
946000  ekin = 0.347844068536815 |  erot = 0.434195447789962 | epot = -15.3995535511821 | etot = -14.6175140348553
947000  ekin = 0.344566017441613 |  erot = 0.439410327984511 | epot = -15.4014903802876 | etot = -14.6175140348614
948000  ekin = 0.340388212507457 |  erot = 0.445444378277369 | epot = -15.4033466256523 | etot = -14.6175140348675
949000  ekin = 0.335520427168566 |  erot = 0.451992965714887 | epot = -15.405027427756 | etot = -14.6175140348726
950000  ekin = 0.330213181196298 |  erot = 0.458727107975925 | epot = -15.4064543240478 | etot = -14.6175140348755
951000  ekin = 0.324745816556508 |  erot = 0.465321341197559 | epot = -15.4075811926297 | etot = -14.6175140348756
952000  ekin = 0.319412679962217 |  erot = 0.471482169177577 | epot = -15.4084088840117 | etot = -14.6175140348719
953000  ekin = 0.314508037100193 |  erot = 0.476974139327336 | epot = -15.4089962112918 | etot = -14.6175140348643
954000  ekin = 0.310309685024347 |  erot = 0.48163943141791 | epot = -15.4094631512954 | etot = -14.6175140348532
955000  ekin = 0.307061947765186 |  erot = 0.485408201613806 | epot = -15.4099841842186 | etot = -14.6175140348396
956000  ekin = 0.304958921288862 |  erot = 0.488297803841355 | epot = -15.4107707599557 | etot = -14.6175140348255
957000  ekin = 0.304129209168565 |  erot = 0.490400499132381 | epot = -15.412043743114 | etot = -14.6175140348131
958000  ekin = 0.304623714619813 |  erot = 0.491860923621326 | epot = -15.4139986730459 | etot = -14.6175140348048
959000  ekin = 0.306408207891363 |  erot = 0.492846142548816 | epot = -15.416768385243 | etot = -14.6175140348028
960000  ekin = 0.309362278813016 |  erot = 0.493512316198131 | epot = -15.4203886298201 | etot = -14.617514034809
961000  ekin = 0.313285873784613 |  erot = 0.493972653387225 | epot = -15.4247725619958 | etot = -14.6175140348239
962000  ekin = 0.317913924784037 |  erot = 0.49427132476265 | epot = -15.4296992843941 | etot = -14.6175140348474
963000  ekin = 0.322938673952701 |  erot = 0.494367337737219 | epot = -15.4348200465675 | etot = -14.6175140348776
964000  ekin = 0.328038281530663 |  erot = 0.494131108238372 | epot = -15.4396834246808 | etot = -14.6175140349117
965000  ekin = 0.332909295682717 |  erot = 0.49335475067624 | epot = -15.4437780813052 | etot = -14.6175140349462
966000  ekin = 0.337299689762522 |  erot = 0.491775167781797 | epot = -15.4465888925212 | etot = -14.6175140349769
967000  ekin = 0.34103857432651 |  erot = 0.489107134739221 | epot = -15.4476597440656 | etot = -14.6175140349998
968000  ekin = 0.344058508086205 |  erot = 0.485082040988229 | epot = -15.4466545840861 | etot = -14.6175140350116
969000  ekin = 0.346406687226285 |  erot = 0.479487053292109 | epot = -15.4434077755287 | etot = -14.6175140350103
970000  ekin = 0.34824225995059 |  erot = 0.472199376075301 | epot = -15.4379556710211 | etot = -14.6175140349952
971000  ekin = 0.349818577908303 |  erot = 0.463211040207767 | epot = -15.4305436530838 | etot = -14.6175140349677
972000  ekin = 0.351451221504232 |  erot = 0.452641107454375 | epot = -15.4216063638894 | etot = -14.6175140349308
973000  ekin = 0.353474851841729 |  erot = 0.440734047140837 | epot = -15.4117229338711 | etot = -14.6175140348885
974000  ekin = 0.356193968986766 |  erot = 0.427844962323539 | epot = -15.4015529661561 | etot = -14.6175140348458
975000  ekin = 0.359834072253365 |  erot = 0.414413971021917 | epot = -15.3917620780827 | etot = -14.6175140348075
976000  ekin = 0.364500158165173 |  erot = 0.400933139115753 | epot = -15.3829473320587 | etot = -14.6175140347778
977000  ekin = 0.370148756532453 |  erot = 0.387909813696966 | epot = -15.3755726049891 | etot = -14.6175140347597
978000  ekin = 0.376577842833186 |  erot = 0.375830059082977 | epot = -15.3699219366708 | etot = -14.6175140347546
979000  ekin = 0.383436289100162 |  erot = 0.365125297246737 | epot = -15.3660756211092 | etot = -14.6175140347623
980000  ekin = 0.390251542223268 |  erot = 0.356144397459458 | epot = -15.3639099744644 | etot = -14.6175140347817
981000  ekin = 0.396471539317057 |  erot = 0.349132547197909 | epot = -15.3631181213249 | etot = -14.61751403481
982000  ekin = 0.401514997592997 |  erot = 0.34421743579967 | epot = -15.3632464682369 | etot = -14.6175140348443
983000  ekin = 0.404823458771299 |  erot = 0.341402706416171 | epot = -15.363740200069 | etot = -14.6175140348815
984000  ekin = 0.40590886668649 |  erot = 0.340568324597754 | epot = -15.363991226203 | etot = -14.6175140349188
985000  ekin = 0.404391803061251 |  erot = 0.341477444720376 | epot = -15.3633832827353 | etot = -14.6175140349537
986000  ekin = 0.400027422801557 |  erot = 0.343789434461309 | epot = -15.3613308922472 | etot = -14.6175140349843
987000  ekin = 0.39271818074518 |  erot = 0.347078806738243 | epot = -15.3573110224926 | etot = -14.6175140350092
988000  ekin = 0.382514239214593 |  erot = 0.350859769146629 | epot = -15.3508880433885 | etot = -14.6175140350273
989000  ekin = 0.369603726654222 |  erot = 0.35461583718875 | epot = -15.3417335988805 | etot = -14.6175140350376
990000  ekin = 0.354295674461627 |  erot = 0.357833454087969 | epot = -15.3296431635889 | etot = -14.6175140350393
991000  ekin = 0.336998529351739 |  erot = 0.360037895318097 | epot = -15.3145504597016 | etot = -14.6175140350318
992000  ekin = 0.318196763890777 |  erot = 0.36082906519084 | epot = -15.2965398640959 | etot = -14.6175140350143
993000  ekin = 0.298427479538935 |  erot = 0.35991430308946 | epot = -15.2758558176151 | etot = -14.6175140349867
994000  ekin = 0.278258203580379 |  erot = 0.357135170965394 | epot = -15.2529074094949 | etot = -14.6175140349491
995000  ekin = 0.258266471895333 |  erot = 0.3524854802127 | epot = -15.2282659870102 | etot = -14.6175140349022
996000  ekin = 0.239021351636219 |  erot = 0.346118523027928 | epot = -15.2026539095113 | etot = -14.6175140348472
997000  ekin = 0.221066818081282 |  erot = 0.338342492442889 | epot = -15.1769233453103 | etot = -14.6175140347861
998000  ekin = 0.204906835818327 |  erot = 0.329604233509051 | epot = -15.1520251040489 | etot = -14.6175140347215
999000  ekin = 0.190992053959175 |  erot = 0.320462575794979 | epot = -15.1289686644105 | etot = -14.6175140346564
1000000  ekin = 0.179708146665515 |  erot = 0.311553394429263 | epot = -15.1087755756886 | etot = -14.6175140345938
 1000000  0.013311715   -1.5443684  0.033490821   -1.4929067 -0.00013590491 
Loop time of 22.0853 on 1 procs for 1000000 steps with 10 atoms

Performance: 39120.988 tau/day, 45278.921 timesteps/s
99.6% CPU use with 1 MPI tasks x no OpenMP threads

MPI task timing breakdown:
Section |  min time  |  avg time  |  max time  |%varavg| %total
---------------------------------------------------------------
Pair    | 17.818     | 17.818     | 17.818     |   0.0 | 80.68
Bond    | 0.67599    | 0.67599    | 0.67599    |   0.0 |  3.06
Neigh   | 0          | 0          | 0          |   0.0 |  0.00
Comm    | 0.29087    | 0.29087    | 0.29087    |   0.0 |  1.32
Output  | 8.1062e-06 | 8.1062e-06 | 8.1062e-06 |   0.0 |  0.00
Modify  | 2.8906     | 2.8906     | 2.8906     |   0.0 | 13.09
Other   |            | 0.41       |            |       |  1.86

Nlocal:    10 ave 10 max 10 min
Histogram: 1 0 0 0 0 0 0 0 0 0
Nghost:    0 ave 0 max 0 min
Histogram: 1 0 0 0 0 0 0 0 0 0
Neighs:    45 ave 45 max 45 min
Histogram: 1 0 0 0 0 0 0 0 0 0

Total # of neighbors = 45
Ave neighs/atom = 4.5
Ave special neighs/atom = 3.6
Neighbor list builds = 0
Dangerous builds = 0

#write_restart config.${number}.*
Total wall time: 0:00:22
