LAMMPS dump file

687 atoms
1 atom types

0. 19.987184 xlo xhi
0. 19.987184 ylo yhi
0. 19.987184 zlo zhi

Masses

 1 55.85
 Atoms

1 1 0.00476106 0.00327216 5.70664e-05 
2 1 1.42758 1.424 1.42257 
3 1 2.85756 -0.000156742 -0.00127513 
4 1 4.28174 1.42352 1.4244 
5 1 5.71012 0.000193493 0.000380649 
6 1 7.13654 1.42508 1.42574 
7 1 8.56348 0.00193384 0.00184049 
8 1 9.99163 1.4266 1.42613 
9 1 11.4186 0.0035019 0.0024283 
10 1 12.8475 1.42774 1.42588 
11 1 14.2758 0.00486974 0.00251471 
12 1 15.7052 1.42795 1.42491 
13 1 17.1348 0.00544163 0.00202757 
14 1 18.5638 1.42628 1.42304 
15 1 3.96651e-05 2.85298 19.9829 
16 1 1.42417 4.27666 1.42153 
17 1 2.85366 2.851 19.9842 
18 1 4.27824 4.27625 1.42322 
19 1 5.7094 2.85237 19.986 
20 1 7.13622 4.27959 1.42585 
21 1 8.56463 2.85432 19.9867 
22 1 9.99209 4.28138 1.42615 
23 1 11.4196 2.85543 19.9866 
24 1 12.8477 4.28148 1.42566 
25 1 14.2755 2.85552 19.9859 
26 1 15.7065 4.27894 1.42287 
27 1 17.133 2.85423 19.9843 
28 1 18.5618 4.27869 1.42155 
29 1 -0.000646051 5.70637 19.9842 
30 1 1.42451 7.13431 1.42314 
31 1 2.85155 5.70576 19.9858 
32 1 4.27805 7.13436 1.42516 
33 1 5.70737 5.70669 19.9878 
34 1 7.13435 7.13505 1.42775 
35 1 8.56448 5.7096 19.9883 
36 1 9.99198 7.1379 1.42927 
37 1 11.4197 5.7106 19.9878 
38 1 12.8494 7.1363 1.4272 
39 1 14.2763 5.70913 19.9865 
40 1 15.706 7.13587 1.42418 
41 1 17.132 5.70851 19.9845 
42 1 18.5622 7.13479 1.42291 
43 1 0.000745593 8.56307 19.9866 
44 1 1.42606 9.9934 1.42502 
45 1 2.85195 8.56364 19.9877 
46 1 4.27965 9.99342 1.42701 
47 1 5.70737 8.56402 19.9893 
48 1 7.13662 9.99191 1.43012 
49 1 8.56401 8.56515 19.9888 
50 1 9.99282 9.99128 1.4311 
51 1 11.4205 8.56611 19.9884 
52 1 12.8488 9.99345 1.42926 
53 1 14.2759 8.56592 19.9881 
54 1 15.7067 9.9938 1.42599 
55 1 17.1336 8.5638 19.9875 
56 1 18.5634 9.99302 1.4247 
57 1 0.00243509 11.4217 0.00154011 
58 1 1.42815 12.852 1.42682 
59 1 2.85324 11.4222 0.00193547 
60 1 4.28216 12.8505 1.42882 
61 1 5.70852 11.4211 0.00341223 
62 1 7.13867 12.8475 1.43101 
63 1 8.56494 11.4205 0.00278145 
64 1 9.99361 12.8466 1.43165 
65 1 11.4212 11.4218 0.00246947 
66 1 12.8491 12.8502 1.43018 
67 1 14.2778 11.4225 0.00237226 
68 1 15.7072 12.852 1.42752 
69 1 17.1357 11.4216 0.00267082 
70 1 18.5645 12.8521 1.42629 
71 1 0.00422892 14.2808 0.00321338 
72 1 1.43058 15.7085 1.42841 
73 1 2.85505 14.2801 0.00319716 
74 1 4.28454 15.7055 1.43048 
75 1 5.70987 14.2781 0.00459077 
76 1 7.13919 15.7032 1.43148 
77 1 8.56575 14.276 0.00451506 
78 1 9.99244 15.7042 1.43142 
79 1 11.4205 14.2784 0.00417005 
80 1 12.8478 15.7066 1.43072 
81 1 14.2796 14.2819 0.00504326 
82 1 15.7072 15.7098 1.42919 
83 1 17.1373 14.2815 0.00480097 
84 1 18.5652 15.71 1.42783 
85 1 0.00570584 17.1383 0.00367857 
86 1 1.43192 18.5616 1.42781 
87 1 2.85714 17.1354 0.00291337 
88 1 4.28495 18.5591 1.42892 
89 1 5.71135 17.133 0.00354556 
90 1 7.13754 18.5595 1.42999 
91 1 8.56409 17.134 0.00507544 
92 1 9.99127 18.561 1.43025 
93 1 11.4189 17.1361 0.00566994 
94 1 12.8472 18.5627 1.4297 
95 1 14.2774 17.1385 0.00603721 
96 1 15.7054 18.5644 1.42877 
97 1 17.1377 17.1403 0.00601533 
98 1 18.5645 18.5642 1.42762 
99 1 0.00431758 19.9879 2.85117 
100 1 1.42555 1.42181 4.27969 
101 1 2.8563 19.9846 2.85363 
102 1 4.27917 1.42095 4.27957 
103 1 5.71005 19.9853 2.85505 
104 1 7.13647 1.42399 4.28189 
105 1 8.56391 19.987 2.85531 
106 1 9.99206 1.4257 4.28223 
107 1 11.419 19.9885 2.85469 
108 1 12.8482 1.42669 4.28116 
109 1 14.276 19.9897 2.85327 
110 1 15.7078 1.42534 4.27819 
111 1 17.1356 19.9897 2.85113 
112 1 18.5641 1.42438 4.27878 
113 1 0.000372465 2.8503 2.85005 
114 1 1.42185 4.27453 4.2769 
115 1 2.84632 2.84339 2.84531 
116 1 4.25943 4.25842 4.26097 
117 1 5.70666 2.84633 2.84841 
118 1 7.13384 4.2675 4.26954 
119 1 8.56416 2.84862 2.84974 
120 1 9.99256 4.27021 4.27112 
121 1 11.4204 2.85004 2.84999 
122 1 12.8493 4.272 4.2721 
123 1 14.2777 2.85026 2.84922 
124 1 15.7223 4.26393 4.26387 
125 1 17.1398 2.84725 2.84595 
126 1 18.5631 4.27671 4.27741 
127 1 5.12496e-05 5.70504 2.84949 
128 1 1.42301 7.13364 4.2776 
129 1 2.84465 5.70223 2.84497 
130 1 4.2606 7.12906 4.26352 
131 1 5.70171 5.70123 2.84931 
132 1 7.1221 7.12429 4.2733 
133 1 8.5636 5.7072 2.85374 
134 1 9.9908 7.13591 4.28587 
135 1 11.4198 5.7084 2.85383 
136 1 12.8597 7.12635 4.27407 
137 1 14.2817 5.70328 2.84879 
138 1 15.7211 7.13021 4.2648 
139 1 17.1394 5.70423 2.84544 
140 1 18.5648 7.13256 4.27582 
141 1 0.0013267 8.56316 2.85048 
142 1 1.42498 9.99354 4.27923 
143 1 2.84694 8.5648 2.84777 
144 1 4.26756 9.9984 4.2699 
145 1 5.70378 8.56344 2.8522 
146 1 7.1324 9.99046 4.28427 
147 1 8.56096 8.56122 2.85835 
148 1 9.99262 9.98456 4.28449 
149 1 11.4232 8.56187 2.85776 
150 1 12.854 9.99218 4.28105 
151 1 14.2806 8.56406 2.85092 
152 1 15.7194 9.99673 4.267 
153 1 17.1395 8.56408 2.84666 
154 1 18.5663 9.99158 4.27561 
155 1 0.00277687 11.4222 2.8517 
156 1 1.4273 12.8512 4.28137 
157 1 2.85007 11.4248 2.85055 
158 1 4.27521 12.8556 4.27692 
159 1 5.70849 11.4217 2.85494 
160 1 7.13923 12.8472 4.28596 
161 1 8.56552 11.4175 2.86052 
162 1 9.99458 12.8436 4.28919 
163 1 11.4215 11.4188 2.86006 
164 1 12.8518 12.8523 4.281 
165 1 14.2797 11.4232 2.85305 
166 1 15.7166 12.8575 4.27107 
167 1 17.1399 11.4244 2.84806 
168 1 18.5674 12.8513 4.27642 
169 1 0.00443235 14.2802 2.85308 
170 1 1.43039 15.706 4.28313 
171 1 2.85419 14.2806 2.85394 
172 1 4.28508 15.7027 4.28575 
173 1 5.71196 14.2759 2.85766 
174 1 7.13996 15.7002 4.2871 
175 1 8.56712 14.2735 2.85941 
176 1 9.9922 15.7024 4.28523 
177 1 11.4199 14.2759 2.85858 
178 1 12.8481 15.7058 4.28239 
179 1 14.2788 14.2808 2.85431 
180 1 15.7108 15.7111 4.27706 
181 1 17.1392 14.2828 2.85017 
182 1 18.5681 15.7098 4.27692 
183 1 0.0056636 17.1357 2.85368 
184 1 1.43038 18.5604 4.28165 
185 1 2.85834 17.1324 2.85681 
186 1 4.28427 18.558 4.28385 
187 1 5.7123 17.1302 2.85826 
188 1 7.13725 18.5595 4.28371 
189 1 8.56493 17.131 2.85798 
190 1 9.99055 18.5619 4.2821 
191 1 11.4192 17.133 2.85683 
192 1 12.8471 18.564 4.27978 
193 1 14.2766 17.1356 2.8548 
194 1 15.7083 18.5667 4.27617 
195 1 17.1369 17.1376 2.8525 
196 1 18.5677 18.5663 4.27607 
197 1 0.00254581 19.9865 5.70939 
198 1 1.42504 1.42251 7.13889 
199 1 2.85518 19.9839 5.71093 
200 1 4.27966 1.42201 7.13858 
201 1 5.70975 19.9843 5.71143 
202 1 7.13514 1.42464 7.13776 
203 1 8.56489 19.9866 5.71215 
204 1 9.99269 1.42761 7.13905 
205 1 11.4199 19.9881 5.71075 
206 1 12.8503 1.42711 7.13664 
207 1 14.278 19.9888 5.70777 
208 1 15.7073 1.42572 7.13656 
209 1 17.1364 19.989 5.70705 
210 1 18.562 1.42462 7.13851 
211 1 -0.000780978 2.85019 5.70909 
212 1 1.42177 4.27633 7.13726 
213 1 2.84464 2.84265 5.70563 
214 1 4.25939 4.26 7.13062 
215 1 5.70118 2.84576 5.70305 
216 1 7.11939 4.26815 7.12344 
217 1 8.5638 2.85149 5.70833 
218 1 9.99103 4.28391 7.13467 
219 1 11.4204 2.85309 5.70877 
220 1 12.86 4.2749 7.12628 
221 1 14.2822 2.84949 5.70378 
222 1 15.7208 4.26659 7.13125 
223 1 17.14 2.84676 5.70563 
224 1 18.5608 4.27881 7.13786 
225 1 -0.00123783 5.70515 5.70745 
226 1 1.42284 7.13315 7.13531 
227 1 2.84314 5.69818 5.70064 
228 1 4.25916 7.11876 7.12093 
229 1 5.65987 5.66219 5.66418 
230 1 7.0241 7.03328 7.03633 
231 1 8.56847 5.68966 5.69103 
232 1 9.98751 7.15956 7.15555 
233 1 11.4133 5.69491 5.69489 
234 1 12.9402 7.05234 7.04984 
235 1 14.3166 5.67093 5.67035 
236 1 15.7158 7.12835 7.12626 
237 1 17.1389 5.70264 5.70292 
238 1 18.5608 7.13421 7.13577 
239 1 0.000178457 8.56331 5.70774 
240 1 1.42558 9.99263 7.13716 
241 1 2.8461 8.56334 5.70411 
242 1 4.27596 9.99308 7.13012 
243 1 5.66866 8.56343 5.67608 
244 1 7.09693 10.0213 7.09452 
245 1 8.53849 8.54309 5.70555 
246 1 9.99546 9.97047 7.06683 
247 1 11.4423 8.54527 5.70306 
248 1 12.8919 10.0183 7.08768 
249 1 14.3115 8.56312 5.6766 
250 1 15.7223 9.98466 7.11581 
251 1 17.1435 8.55913 5.69891 
252 1 18.5615 9.99225 7.13534 
253 1 0.00151241 11.4214 5.70847 
254 1 1.42699 12.8487 7.13934 
255 1 2.84989 11.4231 5.70815 
256 1 4.28055 12.8472 7.14047 
257 1 5.6888 11.4339 5.69245 
258 1 7.14636 12.8333 7.15204 
259 1 8.56282 11.4183 5.71605 
260 1 9.99577 12.8213 7.15655 
261 1 11.4278 11.4212 5.71427 
262 1 12.8596 12.8504 7.12012 
263 1 14.3018 11.4344 5.68926 
264 1 15.731 12.8521 7.11281 
265 1 17.1459 11.4202 5.69777 
266 1 18.5634 12.8507 7.13523 
267 1 0.00325922 14.2786 5.70925 
268 1 1.42802 15.7058 7.13828 
269 1 2.85476 14.2767 5.71204 
270 1 4.27913 15.7078 7.1351 
271 1 5.71349 14.2709 5.71587 
272 1 7.13945 15.7024 7.13846 
273 1 8.56897 14.2682 5.71745 
274 1 9.98682 15.7113 7.13073 
275 1 11.4188 14.2736 5.71654 
276 1 12.8539 15.7272 7.11243 
277 1 14.2863 14.2841 5.70385 
278 1 15.7378 15.7372 7.10539 
279 1 17.1469 14.2835 5.69745 
280 1 18.5657 15.7108 7.1338 
281 1 0.00434563 17.1355 5.70839 
282 1 1.42862 18.5596 7.13882 
283 1 2.85546 17.1333 5.71003 
284 1 4.28418 18.5576 7.14017 
285 1 5.71191 17.1305 5.7121 
286 1 7.13901 18.5577 7.14091 
287 1 8.56312 17.1337 5.70937 
288 1 9.99308 18.5593 7.14006 
289 1 11.4169 17.1385 5.70459 
290 1 12.8499 18.5618 7.13571 
291 1 14.2823 17.145 5.69749 
292 1 15.7104 18.5652 7.13297 
293 1 17.148 17.1479 5.69539 
294 1 18.565 18.564 7.1368 
295 1 0.00160691 19.9868 8.56708 
296 1 1.42511 1.42394 9.99629 
297 1 2.85506 19.9845 8.56774 
298 1 4.28091 1.42357 9.99605 
299 1 5.71115 19.9845 8.56831 
300 1 7.1383 1.42691 9.99415 
301 1 8.56634 19.9857 8.56786 
302 1 9.99374 1.42896 9.99175 
303 1 11.422 19.9865 8.56636 
304 1 12.8486 1.42863 9.99279 
305 1 14.2781 19.9878 8.56466 
306 1 15.7045 1.42661 9.99499 
307 1 17.1339 19.9881 8.56637 
308 1 18.5606 1.4259 9.99589 
309 1 -0.00176632 2.85196 8.56759 
310 1 1.42206 4.27861 9.996 
311 1 2.84618 2.8454 8.56796 
312 1 4.2653 4.26612 10.0003 
313 1 5.70375 2.84889 8.56609 
314 1 7.13081 4.28068 9.99247 
315 1 8.56057 2.85559 8.56163 
316 1 9.98945 4.28318 9.98222 
317 1 11.4229 2.85739 8.5618 
318 1 12.8505 4.28458 9.99063 
319 1 14.2799 2.85253 8.56483 
320 1 15.7131 4.27366 9.99946 
321 1 17.1364 2.84965 8.56775 
322 1 18.5587 4.28136 9.99587 
323 1 -0.00277794 5.70822 8.56691 
324 1 1.4237 7.13648 9.99444 
325 1 2.84468 5.70181 8.56545 
326 1 4.27286 7.12658 9.99505 
327 1 5.6649 5.67053 8.5631 
328 1 7.08538 7.08265 10.0219 
329 1 8.53229 5.69667 8.53737 
330 1 9.97808 7.06408 9.94465 
331 1 11.4408 5.7044 8.5427 
332 1 12.8916 7.09549 10.009 
333 1 14.3113 5.68046 8.56135 
334 1 15.7009 7.13875 9.99675 
335 1 17.134 5.70792 8.56667 
336 1 18.5566 7.13886 9.9949 
337 1 -0.00232277 8.56478 8.56571 
338 1 1.42563 9.99313 9.99382 
339 1 2.84745 8.56088 8.56272 
340 1 4.28643 9.98647 9.99062 
341 1 5.65884 8.54246 8.54562 
342 1 7.15476 9.95395 9.96494 
343 1 8.23692 8.38281 8.39521 
344 1 9.94823 9.3788 9.32993 
345 1 11.7081 8.41015 8.40855 
346 1 12.7916 10.0029 9.98738 
347 1 14.3069 8.56305 8.55477 
348 1 15.6982 9.99431 9.9878 
349 1 17.1342 8.5633 8.56313 
350 1 18.5552 9.99589 9.9934 
351 1 -0.00146675 11.4213 8.56626 
352 1 1.42642 12.849 9.99431 
353 1 2.85398 11.4185 8.56749 
354 1 4.28218 12.8512 9.99322 
355 1 5.7047 11.4136 8.56961 
356 1 7.11412 12.882 9.97049 
357 1 8.60116 11.3904 8.64497 
358 1 10.0171 12.9254 10.0095 
359 1 11.4266 11.4074 8.61411 
360 1 12.9827 12.9841 9.78944 
361 1 14.3164 11.4041 8.535 
362 1 15.7109 12.8676 9.97887 
363 1 17.1332 11.4223 8.56224 
364 1 18.5573 12.8528 9.99223 
365 1 0.000311653 14.2784 8.56557 
366 1 1.42657 15.7048 9.99471 
367 1 2.85292 14.2773 8.56612 
368 1 4.2773 15.7092 9.99167 
369 1 5.69901 14.2871 8.55576 
370 1 7.14273 15.6983 9.99931 
371 1 8.56781 14.276 8.56217 
372 1 9.99942 15.7024 10.002 
373 1 11.4171 14.3069 8.53596 
374 1 12.8703 15.7145 9.97979 
375 1 14.3468 14.3444 8.49582 
376 1 15.7202 15.7205 9.99802 
377 1 17.1389 14.287 8.55735 
378 1 18.5614 15.7068 9.99473 
379 1 0.00179904 17.1336 8.56671 
380 1 1.42792 18.5598 9.99493 
381 1 2.85395 17.1332 8.56601 
382 1 4.28384 18.5581 9.99516 
383 1 5.71306 17.1294 8.56844 
384 1 7.14088 18.5562 9.9965 
385 1 8.56748 17.1283 8.56974 
386 1 9.99679 18.5555 9.99603 
387 1 11.424 17.1298 8.56544 
388 1 12.8528 18.5585 9.99247 
389 1 14.2874 17.1387 8.55652 
390 1 15.7065 18.5626 9.99402 
391 1 17.1418 17.142 8.56457 
392 1 18.5644 18.5645 9.99418 
393 1 0.00134396 0.000870452 11.4233 
394 1 1.42575 1.4256 12.8517 
395 1 2.85523 -0.00170781 11.4232 
396 1 4.28256 1.42517 12.8505 
397 1 5.71202 -0.00159438 11.4222 
398 1 7.14022 1.42771 12.8477 
399 1 8.56837 -0.00137664 11.4211 
400 1 9.99389 1.42938 12.8463 
401 1 11.423 -0.000791295 11.4212 
402 1 12.847 1.42929 12.8486 
403 1 14.2761 0.000523615 11.4222 
404 1 15.703 1.42822 12.8504 
405 1 17.1329 0.00192941 11.4229 
406 1 18.56 1.42749 12.8514 
407 1 -0.00231039 2.85357 11.4238 
408 1 1.42262 4.28071 12.8511 
409 1 2.84798 2.84789 11.4261 
410 1 4.27133 4.27232 12.8569 
411 1 5.70817 2.85172 11.4235 
412 1 7.13767 4.28293 12.8495 
413 1 8.56559 2.85909 11.4183 
414 1 9.99052 4.28959 12.8448 
415 1 11.4192 2.86007 11.4179 
416 1 12.8458 4.28538 12.8483 
417 1 14.2753 2.85519 11.4221 
418 1 15.7074 4.27934 12.8538 
419 1 17.1339 2.85192 11.4251 
420 1 18.5575 4.28346 12.8504 
421 1 -0.00353412 5.71058 11.4225 
422 1 1.42322 7.13897 12.8491 
423 1 2.84666 5.70561 11.4245 
424 1 4.27398 7.13517 12.8511 
425 1 5.68382 5.68658 11.4369 
426 1 7.13148 7.13984 12.8424 
427 1 8.5623 5.71755 11.4197 
428 1 9.98219 7.16621 12.8364 
429 1 11.4164 5.71535 11.4175 
430 1 12.8519 7.1418 12.8459 
431 1 14.2893 5.69914 11.4328 
432 1 15.6986 7.14679 12.8468 
433 1 17.1308 5.71176 11.4235 
434 1 18.5558 7.14144 12.8479 
435 1 -0.00372793 8.56823 11.4212 
436 1 1.42479 9.99435 12.8502 
437 1 2.85189 8.56553 11.421 
438 1 4.27781 9.98911 12.8582 
439 1 5.69976 8.56267 11.4204 
440 1 7.09603 9.95907 12.9099 
441 1 8.58319 8.61344 11.4052 
442 1 9.96149 9.97427 13.0833 
443 1 11.4138 8.53245 11.3923 
444 1 12.7918 10.0132 12.836 
445 1 14.2627 8.59331 11.419 
446 1 15.7003 9.99693 12.8545 
447 1 17.1261 8.57149 11.4202 
448 1 18.555 9.99717 12.8497 
449 1 -0.00319769 11.4235 11.4222 
450 1 1.42565 12.8502 12.8512 
451 1 2.85276 11.4199 11.4224 
452 1 4.27708 12.8536 12.8566 
453 1 5.67526 11.4154 11.4244 
454 1 7.07396 12.9067 12.9129 
455 1 8.26205 11.4915 11.5032 
456 1 10.0092 12.7999 12.8264 
457 1 12.018 11.9089 11.5028 
458 1 13.0174 13.0296 13.1187 
459 1 14.3441 11.4429 11.4215 
460 1 15.7094 12.8698 12.8722 
461 1 17.131 11.429 11.4225 
462 1 18.5568 12.8537 12.8537 
463 1 -0.00156155 14.2773 11.4229 
464 1 1.42591 15.706 12.8507 
465 1 2.85206 14.2774 11.4227 
466 1 4.27392 15.7124 12.853 
467 1 5.68895 14.293 11.4225 
468 1 7.13565 15.7028 12.8551 
469 1 8.5655 14.2606 11.4409 
470 1 9.9983 15.6967 12.8523 
471 1 11.4772 14.3327 11.4435 
472 1 12.8773 15.722 12.8797 
473 1 14.277 14.2727 11.427 
474 1 15.726 15.7275 12.85 
475 1 17.1303 14.2802 11.4245 
476 1 18.5617 15.7083 12.8517 
477 1 0.0012691 17.1338 11.4227 
478 1 1.42772 18.5611 12.8504 
479 1 2.853 17.1339 11.422 
480 1 4.28354 18.5594 12.8499 
481 1 5.71116 17.1305 11.423 
482 1 7.13991 18.5579 12.849 
483 1 8.56928 17.1254 11.4256 
484 1 9.99654 18.5565 12.8495 
485 1 11.432 17.1312 11.4265 
486 1 12.8533 18.5604 12.8543 
487 1 14.2821 17.1331 11.4244 
488 1 15.7072 18.5645 12.8517 
489 1 17.143 17.144 11.422 
490 1 18.5648 18.566 12.8508 
491 1 0.00176707 0.00254986 14.2787 
492 1 1.42728 1.4275 15.7052 
493 1 2.85589 -6.97662e-05 14.2776 
494 1 4.28395 1.42701 15.7035 
495 1 5.71231 -0.000196159 14.2759 
496 1 7.13943 1.42821 15.7025 
497 1 8.5673 0.000186636 14.2748 
498 1 9.99274 1.42946 15.7029 
499 1 11.4207 0.00105771 14.2767 
500 1 12.8464 1.43048 15.7039 
501 1 14.2771 0.00323602 14.2799 
502 1 15.7034 1.43052 15.7055 
503 1 17.1333 0.00385759 14.2789 
504 1 18.56 1.42944 15.7054 
505 1 -0.00208925 2.85515 14.2777 
506 1 1.4243 4.28187 15.7038 
507 1 2.85085 2.85095 14.2797 
508 1 4.27957 4.27981 15.7044 
509 1 5.71085 2.85386 14.2765 
510 1 7.13677 4.28268 15.7039 
511 1 8.56658 2.85738 14.2747 
512 1 9.99218 4.28535 15.7029 
513 1 11.4183 2.85876 14.2741 
514 1 12.8458 4.28625 15.7015 
515 1 14.274 2.85684 14.2765 
516 1 15.7027 4.28436 15.7032 
517 1 17.1319 2.85476 14.2785 
518 1 18.5569 4.2845 15.7029 
519 1 -0.00361313 5.71168 14.2758 
520 1 1.42289 7.13652 15.7055 
521 1 2.84902 5.70822 14.2778 
522 1 4.26995 7.12737 15.7148 
523 1 5.70458 5.70713 14.2761 
524 1 7.11912 7.11956 15.7234 
525 1 8.56356 5.71492 14.2752 
526 1 9.99232 7.13007 15.7166 
527 1 11.4153 5.71818 14.2702 
528 1 12.8568 7.1309 15.7128 
529 1 14.276 5.7127 14.2753 
530 1 15.7007 7.14226 15.7029 
531 1 17.1284 5.71441 14.2753 
532 1 18.5576 7.13868 15.7035 
533 1 -0.00318424 8.56723 14.2766 
534 1 1.4238 9.99357 15.707 
535 1 2.84827 8.56341 14.2809 
536 1 4.26906 9.98927 15.7178 
537 1 5.68559 8.546 14.3011 
538 1 7.11832 9.99281 15.7258 
539 1 8.52551 8.53002 14.3184 
540 1 9.99367 10.0035 15.7283 
541 1 11.4383 8.54214 14.2969 
542 1 12.8507 9.99934 15.7134 
543 1 14.2682 8.57736 14.2736 
544 1 15.7204 9.98298 15.724 
545 1 17.1303 8.56753 14.2768 
546 1 18.56 9.99349 15.7068 
547 1 -0.00243514 11.4231 14.2786 
548 1 1.42488 12.8512 15.7083 
549 1 2.84965 11.4221 14.2813 
550 1 4.26907 12.8556 15.7186 
551 1 5.67941 11.4229 14.305 
552 1 7.11672 12.8669 15.7253 
553 1 8.51626 11.4538 14.3101 
554 1 9.99414 12.8554 15.7159 
555 1 11.4685 11.4737 14.2938 
556 1 12.8751 12.8774 15.7522 
557 1 14.3189 11.4033 14.3173 
558 1 15.7373 12.8534 15.7435 
559 1 17.1317 11.4251 14.2828 
560 1 18.5627 12.8519 15.7112 
561 1 -0.000364371 14.28 14.2807 
562 1 1.42625 15.7089 15.7084 
563 1 2.8503 14.2809 14.2816 
564 1 4.27135 15.7173 15.717 
565 1 5.68279 14.3036 14.3049 
566 1 7.13918 15.7096 15.712 
567 1 8.57557 14.2782 14.2856 
568 1 9.98165 15.7269 15.7296 
569 1 11.4005 14.325 14.3241 
570 1 12.8525 15.7418 15.7462 
571 1 14.3664 14.3695 14.3779 
572 1 15.7469 15.749 15.7509 
573 1 17.1401 14.2897 14.2915 
574 1 18.5655 15.7134 15.713 
575 1 0.0016302 17.1358 14.2791 
576 1 1.42832 18.5632 15.7062 
577 1 2.85197 17.1365 14.2793 
578 1 4.28349 18.5615 15.7055 
579 1 5.70967 17.1337 14.2798 
580 1 7.13891 18.5611 15.7042 
581 1 8.56651 17.1314 14.2771 
582 1 9.99172 18.5633 15.7068 
583 1 11.4227 17.1342 14.284 
584 1 12.8488 18.5661 15.711 
585 1 14.2911 17.146 14.2949 
586 1 15.7115 18.5695 15.7137 
587 1 17.1452 17.1474 14.2823 
588 1 18.5662 18.5685 15.7088 
589 1 0.00306286 0.00419092 17.1337 
590 1 1.4291 1.42791 18.5575 
591 1 2.85702 0.00133673 17.1317 
592 1 4.28373 1.42673 18.5578 
593 1 5.71174 0.000907396 17.1311 
594 1 7.13767 1.42808 18.5588 
595 1 8.56467 0.00260236 17.1324 
596 1 9.99173 1.4296 18.5595 
597 1 11.4189 0.0041365 17.134 
598 1 12.8469 1.43051 18.5597 
599 1 14.2761 0.00569353 17.1353 
600 1 15.7036 1.43098 18.5597 
601 1 17.1351 0.0066695 17.1359 
602 1 18.5611 1.43009 18.5587 
603 1 -0.00107566 2.85577 17.1302 
604 1 1.42503 4.27938 18.5579 
605 1 2.8544 2.85364 17.1306 
606 1 4.27899 4.27737 18.5612 
607 1 5.7103 2.85415 17.1309 
608 1 7.13663 4.27998 18.5614 
609 1 8.56528 2.85611 17.1309 
610 1 9.99267 4.28227 18.5607 
611 1 11.4195 2.85728 17.1308 
612 1 12.8479 4.2827 18.56 
613 1 14.2743 2.85758 17.1307 
614 1 15.7043 4.2818 18.5591 
615 1 17.131 2.85686 17.1308 
616 1 18.5582 4.28218 18.5567 
617 1 -0.00266278 5.70919 17.1307 
618 1 1.42445 7.13469 18.5601 
619 1 2.84896 5.70471 17.1351 
620 1 4.27714 7.13353 18.5638 
621 1 5.70174 5.701 17.1402 
622 1 7.13498 7.1355 18.5629 
623 1 8.56348 5.70603 17.1372 
624 1 9.99209 7.13876 18.5613 
625 1 11.4216 5.7085 17.1349 
626 1 12.848 7.13803 18.5612 
627 1 14.2786 5.70804 17.1348 
628 1 15.7033 7.13758 18.5605 
629 1 17.1296 5.71155 17.1304 
630 1 18.5607 7.1345 18.5606 
631 1 -0.00130025 8.56437 17.1331 
632 1 1.42551 9.99254 18.562 
633 1 2.84808 8.56212 17.1375 
634 1 4.27739 9.99252 18.5651 
635 1 5.70005 8.56056 17.1423 
636 1 7.1349 9.99295 18.5636 
637 1 8.56137 8.56467 17.133 
638 1 9.99261 9.99538 18.5613 
639 1 11.421 8.56602 17.1315 
640 1 12.8482 9.99601 18.5616 
641 1 14.2759 8.56644 17.1358 
642 1 15.7069 9.99208 18.565 
643 1 17.1374 8.56005 17.1392 
644 1 18.5639 9.99045 18.5646 
645 1 0.000394097 11.4216 17.1356 
646 1 1.4268 12.8513 18.5635 
647 1 2.84885 11.4221 17.1387 
648 1 4.27821 12.8522 18.5662 
649 1 5.69948 11.4244 17.1435 
650 1 7.13464 12.851 18.5656 
651 1 8.55885 11.4257 17.1349 
652 1 9.99372 12.8499 18.5632 
653 1 11.4256 11.4292 17.1323 
654 1 12.8528 12.8547 18.5675 
655 1 14.2853 11.4231 17.1399 
656 1 15.711 12.8521 18.569 
657 1 17.1441 11.4173 17.1465 
658 1 18.5665 12.8504 18.5676 
659 1 0.00217519 14.2808 17.1373 
660 1 1.42854 15.7095 18.5641 
661 1 2.84977 14.2821 17.1394 
662 1 4.2802 15.71 18.566 
663 1 5.7012 14.2868 17.1441 
664 1 7.13725 15.7068 18.5659 
665 1 8.56359 14.2802 17.1405 
666 1 9.9908 15.709 18.568 
667 1 11.4211 14.2878 17.1417 
668 1 12.8496 15.713 18.5701 
669 1 14.2945 14.2968 17.1546 
670 1 15.7142 15.7169 18.5722 
671 1 17.15 14.2861 17.153 
672 1 18.5692 15.7127 18.5699 
673 1 0.0039702 17.1388 17.137 
674 1 1.43026 18.5642 18.5619 
675 1 2.85249 17.1388 17.1375 
676 1 4.2844 18.5616 18.5609 
677 1 5.71058 17.1359 17.1362 
678 1 7.13577 18.5638 18.564 
679 1 8.55944 17.1421 17.1431 
680 1 9.98924 18.5666 18.5666 
681 1 11.4157 17.1479 17.1487 
682 1 12.8471 18.569 18.5683 
683 1 14.284 17.1534 17.1539 
684 1 15.7088 18.5716 18.5697 
685 1 17.1521 17.1549 17.154 
686 1 18.5687 18.5709 18.5682 
687 1 10.2751 10.7199 10.9915 

PafiPath

1 0.00476106 0.00327216 5.70664e-05 0.000990751 0.00114316 0.000178042 -0.00431884 -0.00282516 -0.000443796 
2 1.42758 1.424 1.42257 -0.000108118 0.00103312 0.000886744 -0.00120746 -0.00265419 -0.00106626 
3 2.85756 -0.000156742 -0.00127513 -0.000634846 -0.000284243 -0.000461057 0.000314344 -0.000634989 0.000498428 
4 4.28174 1.42352 1.4244 -0.00143929 -8.72962e-05 0.000497138 0.00236387 -0.00139482 -0.00113206 
5 5.71012 0.000193493 0.000380649 -0.00140894 -5.50603e-05 2.66886e-05 0.00355936 -0.000879782 -0.00073013 
6 7.13654 1.42508 1.42574 -0.00106955 0.000193182 0.000459531 0.0033973 -0.00127235 -0.00129742 
7 8.56348 0.00193384 0.00184049 -0.00105446 0.000474113 0.000350601 0.00341098 -0.00222556 -0.00209438 
8 9.99163 1.4266 1.42613 -0.000192882 0.000704843 0.00061637 0.00135717 -0.00205683 -0.00137654 
9 11.4186 0.0035019 0.0024283 -0.000310942 0.000836491 0.000525446 3.10352e-05 -0.00350112 -0.00256186 
10 12.8475 1.42774 1.42588 0.000525527 0.0010312 0.000646236 -0.00168286 -0.00334355 -0.00149281 
11 14.2758 0.00486974 0.00251471 0.000496895 0.00108333 0.000516377 -0.00401255 -0.00473167 -0.00265885 
12 15.7052 1.42795 1.42491 0.000535702 0.00157299 0.00083404 -0.00365783 -0.00470734 -0.00201182 
13 17.1348 0.00544163 0.00202757 0.00107012 0.00144597 0.000502542 -0.00608556 -0.00500096 -0.00221416 
14 18.5638 1.42628 1.42304 -0.000393574 0.00210782 0.00104703 -0.00375788 -0.00447276 -0.00198508 
15 3.96651e-05 2.85298 19.9829 -0.000818158 0.000944049 -3.04326e-05 -0.00106199 -0.0035296 0.00037723 
16 1.42417 4.27666 1.42153 -0.000669184 -0.000116659 0.00103928 -0.000355644 -0.00240794 -0.00146324 
17 2.85366 2.851 19.9842 -0.00184118 -0.000831815 0.000889722 0.000769371 -0.00226573 0.000157631 
18 4.27824 4.27625 1.42322 -0.00096692 -0.00031542 0.0013288 0.000953121 -0.00200951 -0.00221247 
19 5.7094 2.85237 19.986 -0.00179365 -0.00147203 0.000956882 0.00253929 -0.00121169 -0.000281122 
20 7.13622 4.27959 1.42585 -0.00114308 -0.00113885 0.00043825 0.00232812 -0.000737214 -0.00156247 
21 8.56463 2.85432 19.9867 -0.000472845 -0.00108229 0.000855648 0.0023543 -0.000866046 -0.00103538 
22 9.99209 4.28138 1.42615 0.000127186 -0.000712212 0.000586333 0.0011907 -0.000241067 -0.00132333 
23 11.4196 2.85543 19.9866 0.000570913 -0.000705079 0.000695053 0.000113337 -0.00144247 -0.00117953 
24 12.8477 4.28148 1.42566 0.00066211 -0.000151829 0.000548 -0.000106927 -0.00140697 -0.00143959 
25 14.2755 2.85552 19.9859 0.00104514 -0.000141106 0.000558441 -0.00198264 -0.00290651 -0.000951442 
26 15.7065 4.27894 1.42287 -0.000675075 0.00141339 0.00120971 -0.000835275 -0.00299372 -0.00174226 
27 17.133 2.85423 19.9843 6.97233e-05 0.000902945 0.000248507 -0.00259412 -0.00394199 -0.000406687 
28 18.5618 4.27869 1.42155 -0.0018854 0.00143294 0.00114566 -0.00127386 -0.00306006 -0.0017261 
29 -0.000646051 5.70637 19.9842 -0.000607106 7.52287e-05 0.000127423 -0.000275011 -0.00218631 -0.000185191 
30 1.42451 7.13431 1.42314 -0.000268463 -0.000671927 0.000776154 -0.000755284 -0.00108449 -0.00185346 
31 2.85155 5.70576 19.9858 -0.00197365 -0.000984382 0.00113832 0.000401768 -0.00172054 -0.000396483 
32 4.27805 7.13436 1.42516 -0.00106755 -0.000642099 0.000985548 -0.00038036 -0.00099195 -0.0026498 
33 5.70737 5.70669 19.9878 -0.00207873 -0.00170503 0.00187755 0.00115485 -0.000812746 -0.00110518 
34 7.13435 7.13505 1.42775 -0.00041177 -0.000412498 0.000738682 0.000599038 -0.000216935 -0.00198957 
35 8.56448 5.7096 19.9883 -0.000611561 -0.00161467 0.00108772 0.000857084 -8.36673e-05 -0.000901266 
36 9.99198 7.1379 1.42927 -0.00017525 -0.000604147 -0.000141502 0.000974895 -0.000211889 -0.00159874 
37 11.4197 5.7106 19.9878 0.000775623 -0.00106693 0.000695056 0.000759988 -0.00041002 -0.0010706 
38 12.8494 7.1363 1.4272 -0.000775227 0.000624808 0.000473032 0.00113228 -0.000857496 -0.00199208 
39 14.2763 5.70913 19.9865 0.000232077 0.000283944 0.000333147 0.000274588 -0.00177963 -0.000633406 
40 15.706 7.13587 1.42418 -0.00154693 0.000923642 0.000493883 -0.000256681 -0.000837312 -0.0019493 
41 17.132 5.70851 19.9845 -0.00131613 0.00122655 -0.000469634 -0.000582355 -0.00221481 -0.000429309 
42 18.5622 7.13479 1.42291 -0.00141958 -0.000237146 0.000842803 -0.000645597 -0.00116262 -0.00201299 
43 0.000745593 8.56307 19.9866 8.9518e-05 -0.000623466 0.000182327 -0.0012059 -0.000151858 -0.000885344 
44 1.42606 9.9934 1.42502 0.000139205 -0.000764998 0.000631605 -0.00166471 0.000194721 -0.00189012 
45 2.85195 8.56364 19.9877 -0.00142801 -0.00036022 0.000825222 -0.000543296 -0.000309047 -0.000684339 
46 4.27965 9.99342 1.42701 -0.00077554 -0.000529086 0.000829441 -0.00105311 0.000234515 -0.00245281 
47 5.70737 8.56402 19.9893 -0.00190145 -0.000944198 0.0015068 3.71017e-05 -3.79129e-05 -0.0015658 
48 7.13662 9.99191 1.43012 -0.000631623 -0.000400048 0.000135946 -0.000866886 0.000161221 -0.00264443 
49 8.56401 8.56515 19.9888 -0.000775585 -0.00107658 0.000593876 0.000297772 0.000562099 -0.00147366 
50 9.99282 9.99128 1.4311 -0.000369352 0.00017755 -0.000601392 -5.44412e-05 -0.000968542 -0.00186966 
51 11.4205 8.56611 19.9884 -3.61033e-05 -0.000426032 -0.000229048 0.000304501 -0.000279969 -0.00183558 
52 12.8488 9.99345 1.42926 -0.000836223 0.000256618 -0.000227388 -0.000164071 -0.00112414 -0.00210374 
53 14.2759 8.56592 19.9881 -0.00128521 0.000826059 -0.000821501 -0.000344127 0.000150048 -0.00253354 
54 15.7067 9.9938 1.42599 -0.0010473 -0.000834554 0.000471125 -0.00075167 -0.000600112 -0.00197406 
55 17.1336 8.5638 19.9875 -0.000717107 -0.000316715 -7.79495e-05 -0.000624404 -0.000301792 -0.00147474 
56 18.5634 9.99302 1.4247 -0.000794626 -0.00126124 0.000592478 -0.00171852 0.000371786 -0.00209905 
57 0.00243509 11.4217 0.00154011 0.000557891 -0.000910717 0.000198948 -0.00251374 0.000868315 -0.00106276 
58 1.42815 12.852 1.42682 0.000326014 -0.000616656 0.000413559 -0.00276792 0.00105721 -0.00192082 
59 2.85324 11.4222 0.00193547 -0.00102304 -1.35126e-05 0.000589656 -0.00139467 0.000932554 -0.000708392 
60 4.28216 12.8505 1.42882 -0.000648394 -0.000304594 0.000699679 -0.00153277 0.00149636 -0.00261818 
61 5.70852 11.4211 0.00341223 -0.00153054 4.05499e-05 0.00120943 -0.000818114 0.00110028 -0.00173505 
62 7.13867 12.8475 1.43101 -0.000900259 7.23294e-05 -6.35807e-05 -0.000286268 3.21723e-05 -0.00258702 
63 8.56494 11.4205 0.00278145 -0.000721674 -9.45828e-05 0.000184055 -0.000236529 -0.000660807 -0.00240827 
64 9.99361 12.8466 1.43165 -9.38161e-06 6.2832e-05 -0.00039335 -0.000457269 -0.00269331 -0.00229413 
65 11.4212 11.4218 0.00246947 -0.00050571 -0.000134291 -0.00111968 -0.000927383 -0.00236102 -0.00393867 
66 12.8491 12.8502 1.43018 0.000172105 -0.000164459 -0.000277908 -0.00219726 -0.00333884 -0.00219997 
67 14.2778 11.4225 0.00237226 -0.000478167 -0.00064786 -0.000781244 -0.00177646 -0.00130457 -0.00277704 
68 15.7072 12.852 1.42752 -0.000232463 -0.0011651 5.79905e-05 -0.00266938 -0.00121037 -0.00215812 
69 17.1357 11.4216 0.00267082 -0.000157492 -0.00114947 5.42888e-05 -0.00280874 0.000520214 -0.00245202 
70 18.5645 12.8521 1.42629 -0.000300783 -0.00123165 0.000229992 -0.00368972 0.000250808 -0.00176437 
71 0.00422892 14.2808 0.00321338 0.000950358 -0.000770622 -7.69325e-05 -0.0041645 0.000665389 -0.00107362 
72 1.43058 15.7085 1.42841 0.000506765 -0.000245785 6.59306e-05 -0.00334657 0.000916663 -0.00204359 
73 2.85505 14.2801 0.00319716 -0.000678689 5.08191e-05 0.000146646 -0.00178933 0.00156434 -0.000606851 
74 4.28454 15.7055 1.43048 -0.000780256 4.44175e-05 0.00017261 -0.000756584 0.00180117 -0.0027577 
75 5.70987 14.2781 0.00459077 -0.00123979 0.000474082 0.000727737 9.35783e-05 0.00117163 -0.00183794 
76 7.13919 15.7032 1.43148 -0.000531132 -0.000218788 -6.90042e-05 0.00207148 -0.00114645 -0.00227152 
77 8.56575 14.276 0.00451506 -5.88881e-05 -0.000222598 0.000121076 0.00167731 -0.0023595 -0.00370189 
78 9.99244 15.7042 1.43142 -0.000357744 0.000134556 -0.000160463 0.000359415 -0.00315063 -0.00215812 
79 11.4205 14.2784 0.00417005 -0.00021636 0.000146464 -0.000278843 -0.00124367 -0.0045109 -0.00365925 
80 12.8478 15.7066 1.43072 0.000143062 0.000107017 -0.000326173 -0.00287539 -0.00433377 -0.00204675 
81 14.2796 14.2819 0.00504326 0.000230029 -0.000277297 -0.000163292 -0.00501169 -0.00465602 -0.00393678 
82 15.7072 15.7098 1.42919 0.000617479 -8.46888e-05 -0.000504525 -0.00540498 -0.00350868 -0.00216242 
83 17.1373 14.2815 0.00480097 0.000132346 -0.000821384 -0.000246918 -0.00544595 -0.00125762 -0.00311363 
84 18.5652 15.71 1.42783 0.000545172 -0.000496726 -0.000355184 -0.00554234 -0.00100848 -0.00203038 