 Comment line
 
        1200 atoms
           2 atom types
 
  0.0000000E+00   25.1583200000000      xlo xhi
  0.0000000E+00   25.1583200000000      ylo yhi
  0.0000000E+00   28.0202560000000      zlo zhi

 Masses

     1 28.0855
     2 15.9999
 
 Atoms
 
      1      1      2.96653      1.50970      1.50970      0.00000
      2      1      2.96653     -1.50970     -1.50970      3.50253
      3      1      2.96653      1.00613      4.02553      1.75127
      4      1      2.96653      4.02553      1.00613      5.25380
      5      2     -1.483265     1.20639      0.51947      1.24998
      6      2     -1.483265    -1.20639     -0.51947      4.75252
      7      2     -1.483265     1.99636      3.72222      3.00125
      8      2     -1.483265     3.03530      1.30944      6.50378
      9      2     -1.483265     0.51947      1.20639     -1.24998
     10      2     -1.483265    -0.51947     -1.20639      2.25255
     11      2     -1.483265     1.30944      3.03530      0.50128
     12      2     -1.483265     3.72222      1.99636      4.00381
     13      1      2.96653      1.50970      1.50970      7.00506
     14      1      2.96653     -1.50970     -1.50970     10.50760
     15      1      2.96653      1.00613      4.02553      8.75633
     16      1      2.96653      4.02553      1.00613     12.25886
     17      2     -1.483265     1.20639      0.51947      8.25505
     18      2     -1.483265    -1.20639     -0.51947     11.75758
     19      2     -1.483265     1.99636      3.72222     10.00631
     20      2     -1.483265     3.03530      1.30944     13.50885
     21      2     -1.483265     0.51947      1.20639      5.75508
     22      2     -1.483265    -0.51947     -1.20639      9.25761
     23      2     -1.483265     1.30944      3.03530      7.50635
     24      2     -1.483265     3.72222      1.99636     11.00888
     25      1      2.96653      1.50970      1.50970     14.01013
     26      1      2.96653     -1.50970     -1.50970     17.51266
     27      1      2.96653      1.00613      4.02553     15.76139
     28      1      2.96653      4.02553      1.00613     19.26393
     29      2     -1.483265     1.20639      0.51947     15.26011
     30      2     -1.483265    -1.20639     -0.51947     18.76264
     31      2     -1.483265     1.99636      3.72222     17.01138
     32      2     -1.483265     3.03530      1.30944     20.51391
     33      2     -1.483265     0.51947      1.20639     12.76014
     34      2     -1.483265    -0.51947     -1.20639     16.26268
     35      2     -1.483265     1.30944      3.03530     14.51141
     36      2     -1.483265     3.72222      1.99636     18.01394
     37      1      2.96653      1.50970      1.50970     21.01519
     38      1      2.96653     -1.50970     -1.50970     24.51772
     39      1      2.96653      1.00613      4.02553     22.76646
     40      1      2.96653      4.02553      1.00613     26.26899
     41      2     -1.483265     1.20639      0.51947     22.26518
     42      2     -1.483265    -1.20639     -0.51947     25.76771
     43      2     -1.483265     1.99636      3.72222     24.01644
     44      2     -1.483265     3.03530      1.30944     27.51897
     45      2     -1.483265     0.51947      1.20639     19.76521
     46      2     -1.483265    -0.51947     -1.20639     23.26774
     47      2     -1.483265     1.30944      3.03530     21.51647
     48      2     -1.483265     3.72222      1.99636     25.01901
     49      1      2.96653      1.50970      6.54136      0.00000
     50      1      2.96653     -1.50970      3.52196      3.50253
     51      1      2.96653      1.00613      9.05720      1.75127
     52      1      2.96653      4.02553      6.03780      5.25380
     53      2     -1.483265     1.20639      5.55113      1.24998
     54      2     -1.483265    -1.20639      4.51220      4.75252
     55      2     -1.483265     1.99636      8.75389      3.00125
     56      2     -1.483265     3.03530      6.34110      6.50378
     57      2     -1.483265     0.51947      6.23806     -1.24998
     58      2     -1.483265    -0.51947      3.82527      2.25255
     59      2     -1.483265     1.30944      8.06696      0.50128
     60      2     -1.483265     3.72222      7.02803      4.00381
     61      1      2.96653      1.50970      6.54136      7.00506
     62      1      2.96653     -1.50970      3.52196     10.50760
     63      1      2.96653      1.00613      9.05720      8.75633
     64      1      2.96653      4.02553      6.03780     12.25886
     65      2     -1.483265     1.20639      5.55113      8.25505
     66      2     -1.483265    -1.20639      4.51220     11.75758
     67      2     -1.483265     1.99636      8.75389     10.00631
     68      2     -1.483265     3.03530      6.34110     13.50885
     69      2     -1.483265     0.51947      6.23806      5.75508
     70      2     -1.483265    -0.51947      3.82527      9.25761
     71      2     -1.483265     1.30944      8.06696      7.50635
     72      2     -1.483265     3.72222      7.02803     11.00888
     73      1      2.96653      1.50970      6.54136     14.01013
     74      1      2.96653     -1.50970      3.52196     17.51266
     75      1      2.96653      1.00613      9.05720     15.76139
     76      1      2.96653      4.02553      6.03780     19.26393
     77      2     -1.483265     1.20639      5.55113     15.26011
     78      2     -1.483265    -1.20639      4.51220     18.76264
     79      2     -1.483265     1.99636      8.75389     17.01138
     80      2     -1.483265     3.03530      6.34110     20.51391
     81      2     -1.483265     0.51947      6.23806     12.76014
     82      2     -1.483265    -0.51947      3.82527     16.26268
     83      2     -1.483265     1.30944      8.06696     14.51141
     84      2     -1.483265     3.72222      7.02803     18.01394
     85      1      2.96653      1.50970      6.54136     21.01519
     86      1      2.96653     -1.50970      3.52196     24.51772
     87      1      2.96653      1.00613      9.05720     22.76646
     88      1      2.96653      4.02553      6.03780     26.26899
     89      2     -1.483265     1.20639      5.55113     22.26518
     90      2     -1.483265    -1.20639      4.51220     25.76771
     91      2     -1.483265     1.99636      8.75389     24.01644
     92      2     -1.483265     3.03530      6.34110     27.51897
     93      2     -1.483265     0.51947      6.23806     19.76521
     94      2     -1.483265    -0.51947      3.82527     23.26774
     95      2     -1.483265     1.30944      8.06696     21.51647
     96      2     -1.483265     3.72222      7.02803     25.01901
     97      1      2.96653      1.50970     11.57303      0.00000
     98      1      2.96653     -1.50970      8.55363      3.50253
     99      1      2.96653      1.00613     14.08886      1.75127
    100      1      2.96653      4.02553     11.06946      5.25380
    101      2     -1.483265     1.20639     10.58280      1.24998
    102      2     -1.483265    -1.20639      9.54386      4.75252
    103      2     -1.483265     1.99636     13.78555      3.00125
    104      2     -1.483265     3.03530     11.37277      6.50378
    105      2     -1.483265     0.51947     11.26972     -1.24998
    106      2     -1.483265    -0.51947      8.85694      2.25255
    107      2     -1.483265     1.30944     13.09863      0.50128
    108      2     -1.483265     3.72222     12.05969      4.00381
    109      1      2.96653      1.50970     11.57303      7.00506
    110      1      2.96653     -1.50970      8.55363     10.50760
    111      1      2.96653      1.00613     14.08886      8.75633
    112      1      2.96653      4.02553     11.06946     12.25886
    113      2     -1.483265     1.20639     10.58280      8.25505
    114      2     -1.483265    -1.20639      9.54386     11.75758
    115      2     -1.483265     1.99636     13.78555     10.00631
    116      2     -1.483265     3.03530     11.37277     13.50885
    117      2     -1.483265     0.51947     11.26972      5.75508
    118      2     -1.483265    -0.51947      8.85694      9.25761
    119      2     -1.483265     1.30944     13.09863      7.50635
    120      2     -1.483265     3.72222     12.05969     11.00888
    121      1      2.96653      1.50970     11.57303     14.01013
    122      1      2.96653     -1.50970      8.55363     17.51266
    123      1      2.96653      1.00613     14.08886     15.76139
    124      1      2.96653      4.02553     11.06946     19.26393
    125      2     -1.483265     1.20639     10.58280     15.26011
    126      2     -1.483265    -1.20639      9.54386     18.76264
    127      2     -1.483265     1.99636     13.78555     17.01138
    128      2     -1.483265     3.03530     11.37277     20.51391
    129      2     -1.483265     0.51947     11.26972     12.76014
    130      2     -1.483265    -0.51947      8.85694     16.26268
    131      2     -1.483265     1.30944     13.09863     14.51141
    132      2     -1.483265     3.72222     12.05969     18.01394
    133      1      2.96653      1.50970     11.57303     21.01519
    134      1      2.96653     -1.50970      8.55363     24.51772
    135      1      2.96653      1.00613     14.08886     22.76646
    136      1      2.96653      4.02553     11.06946     26.26899
    137      2     -1.483265     1.20639     10.58280     22.26518
    138      2     -1.483265    -1.20639      9.54386     25.76771
    139      2     -1.483265     1.99636     13.78555     24.01644
    140      2     -1.483265     3.03530     11.37277     27.51897
    141      2     -1.483265     0.51947     11.26972     19.76521
    142      2     -1.483265    -0.51947      8.85694     23.26774
    143      2     -1.483265     1.30944     13.09863     21.51647
    144      2     -1.483265     3.72222     12.05969     25.01901
    145      1      2.96653      1.50970     16.60469      0.00000
    146      1      2.96653     -1.50970     13.58529      3.50253
    147      1      2.96653      1.00613     19.12052      1.75127
    148      1      2.96653      4.02553     16.10112      5.25380
    149      2     -1.483265     1.20639     15.61446      1.24998
    150      2     -1.483265    -1.20639     14.57552      4.75252
    151      2     -1.483265     1.99636     18.81722      3.00125
    152      2     -1.483265     3.03530     16.40443      6.50378
    153      2     -1.483265     0.51947     16.30138     -1.24998
    154      2     -1.483265    -0.51947     13.88860      2.25255
    155      2     -1.483265     1.30944     18.13029      0.50128
    156      2     -1.483265     3.72222     17.09136      4.00381
    157      1      2.96653      1.50970     16.60469      7.00506
    158      1      2.96653     -1.50970     13.58529     10.50760
    159      1      2.96653      1.00613     19.12052      8.75633
    160      1      2.96653      4.02553     16.10112     12.25886
    161      2     -1.483265     1.20639     15.61446      8.25505
    162      2     -1.483265    -1.20639     14.57552     11.75758
    163      2     -1.483265     1.99636     18.81722     10.00631
    164      2     -1.483265     3.03530     16.40443     13.50885
    165      2     -1.483265     0.51947     16.30138      5.75508
    166      2     -1.483265    -0.51947     13.88860      9.25761
    167      2     -1.483265     1.30944     18.13029      7.50635
    168      2     -1.483265     3.72222     17.09136     11.00888
    169      1      2.96653      1.50970     16.60469     14.01013
    170      1      2.96653     -1.50970     13.58529     17.51266
    171      1      2.96653      1.00613     19.12052     15.76139
    172      1      2.96653      4.02553     16.10112     19.26393
    173      2     -1.483265     1.20639     15.61446     15.26011
    174      2     -1.483265    -1.20639     14.57552     18.76264
    175      2     -1.483265     1.99636     18.81722     17.01138
    176      2     -1.483265     3.03530     16.40443     20.51391
    177      2     -1.483265     0.51947     16.30138     12.76014
    178      2     -1.483265    -0.51947     13.88860     16.26268
    179      2     -1.483265     1.30944     18.13029     14.51141
    180      2     -1.483265     3.72222     17.09136     18.01394
    181      1      2.96653      1.50970     16.60469     21.01519
    182      1      2.96653     -1.50970     13.58529     24.51772
    183      1      2.96653      1.00613     19.12052     22.76646
    184      1      2.96653      4.02553     16.10112     26.26899
    185      2     -1.483265     1.20639     15.61446     22.26518
    186      2     -1.483265    -1.20639     14.57552     25.76771
    187      2     -1.483265     1.99636     18.81722     24.01644
    188      2     -1.483265     3.03530     16.40443     27.51897
    189      2     -1.483265     0.51947     16.30138     19.76521
    190      2     -1.483265    -0.51947     13.88860     23.26774
    191      2     -1.483265     1.30944     18.13029     21.51647
    192      2     -1.483265     3.72222     17.09136     25.01901
    193      1      2.96653      1.50970     21.63636      0.00000
    194      1      2.96653     -1.50970     18.61696      3.50253
    195      1      2.96653      1.00613     24.15219      1.75127
    196      1      2.96653      4.02553     21.13279      5.25380
    197      2     -1.483265     1.20639     20.64612      1.24998
    198      2     -1.483265    -1.20639     19.60719      4.75252
    199      2     -1.483265     1.99636     23.84888      3.00125
    200      2     -1.483265     3.03530     21.43610      6.50378
    201      2     -1.483265     0.51947     21.33305     -1.24998
    202      2     -1.483265    -0.51947     18.92026      2.25255
    203      2     -1.483265     1.30944     23.16196      0.50128
    204      2     -1.483265     3.72222     22.12302      4.00381
    205      1      2.96653      1.50970     21.63636      7.00506
    206      1      2.96653     -1.50970     18.61696     10.50760
    207      1      2.96653      1.00613     24.15219      8.75633
    208      1      2.96653      4.02553     21.13279     12.25886
    209      2     -1.483265     1.20639     20.64612      8.25505
    210      2     -1.483265    -1.20639     19.60719     11.75758
    211      2     -1.483265     1.99636     23.84888     10.00631
    212      2     -1.483265     3.03530     21.43610     13.50885
    213      2     -1.483265     0.51947     21.33305      5.75508
    214      2     -1.483265    -0.51947     18.92026      9.25761
    215      2     -1.483265     1.30944     23.16196      7.50635
    216      2     -1.483265     3.72222     22.12302     11.00888
    217      1      2.96653      1.50970     21.63636     14.01013
    218      1      2.96653     -1.50970     18.61696     17.51266
    219      1      2.96653      1.00613     24.15219     15.76139
    220      1      2.96653      4.02553     21.13279     19.26393
    221      2     -1.483265     1.20639     20.64612     15.26011
    222      2     -1.483265    -1.20639     19.60719     18.76264
    223      2     -1.483265     1.99636     23.84888     17.01138
    224      2     -1.483265     3.03530     21.43610     20.51391
    225      2     -1.483265     0.51947     21.33305     12.76014
    226      2     -1.483265    -0.51947     18.92026     16.26268
    227      2     -1.483265     1.30944     23.16196     14.51141
    228      2     -1.483265     3.72222     22.12302     18.01394
    229      1      2.96653      1.50970     21.63636     21.01519
    230      1      2.96653     -1.50970     18.61696     24.51772
    231      1      2.96653      1.00613     24.15219     22.76646
    232      1      2.96653      4.02553     21.13279     26.26899
    233      2     -1.483265     1.20639     20.64612     22.26518
    234      2     -1.483265    -1.20639     19.60719     25.76771
    235      2     -1.483265     1.99636     23.84888     24.01644
    236      2     -1.483265     3.03530     21.43610     27.51897
    237      2     -1.483265     0.51947     21.33305     19.76521
    238      2     -1.483265    -0.51947     18.92026     23.26774
    239      2     -1.483265     1.30944     23.16196     21.51647
    240      2     -1.483265     3.72222     22.12302     25.01901
    241      1      2.96653      6.54136      1.50970      0.00000
    242      1      2.96653      3.52196     -1.50970      3.50253
    243      1      2.96653      6.03780      4.02553      1.75127
    244      1      2.96653      9.05720      1.00613      5.25380
    245      2     -1.483265     6.23806      0.51947      1.24998
    246      2     -1.483265     3.82527     -0.51947      4.75252
    247      2     -1.483265     7.02803      3.72222      3.00125
    248      2     -1.483265     8.06696      1.30944      6.50378
    249      2     -1.483265     5.55113      1.20639     -1.24998
    250      2     -1.483265     4.51220     -1.20639      2.25255
    251      2     -1.483265     6.34110      3.03530      0.50128
    252      2     -1.483265     8.75389      1.99636      4.00381
    253      1      2.96653      6.54136      1.50970      7.00506
    254      1      2.96653      3.52196     -1.50970     10.50760
    255      1      2.96653      6.03780      4.02553      8.75633
    256      1      2.96653      9.05720      1.00613     12.25886
    257      2     -1.483265     6.23806      0.51947      8.25505
    258      2     -1.483265     3.82527     -0.51947     11.75758
    259      2     -1.483265     7.02803      3.72222     10.00631
    260      2     -1.483265     8.06696      1.30944     13.50885
    261      2     -1.483265     5.55113      1.20639      5.75508
    262      2     -1.483265     4.51220     -1.20639      9.25761
    263      2     -1.483265     6.34110      3.03530      7.50635
    264      2     -1.483265     8.75389      1.99636     11.00888
    265      1      2.96653      6.54136      1.50970     14.01013
    266      1      2.96653      3.52196     -1.50970     17.51266
    267      1      2.96653      6.03780      4.02553     15.76139
    268      1      2.96653      9.05720      1.00613     19.26393
    269      2     -1.483265     6.23806      0.51947     15.26011
    270      2     -1.483265     3.82527     -0.51947     18.76264
    271      2     -1.483265     7.02803      3.72222     17.01138
    272      2     -1.483265     8.06696      1.30944     20.51391
    273      2     -1.483265     5.55113      1.20639     12.76014
    274      2     -1.483265     4.51220     -1.20639     16.26268
    275      2     -1.483265     6.34110      3.03530     14.51141
    276      2     -1.483265     8.75389      1.99636     18.01394
    277      1      2.96653      6.54136      1.50970     21.01519
    278      1      2.96653      3.52196     -1.50970     24.51772
    279      1      2.96653      6.03780      4.02553     22.76646
    280      1      2.96653      9.05720      1.00613     26.26899
    281      2     -1.483265     6.23806      0.51947     22.26518
    282      2     -1.483265     3.82527     -0.51947     25.76771
    283      2     -1.483265     7.02803      3.72222     24.01644
    284      2     -1.483265     8.06696      1.30944     27.51897
    285      2     -1.483265     5.55113      1.20639     19.76521
    286      2     -1.483265     4.51220     -1.20639     23.26774
    287      2     -1.483265     6.34110      3.03530     21.51647
    288      2     -1.483265     8.75389      1.99636     25.01901
    289      1      2.96653      6.54136      6.54136      0.00000
    290      1      2.96653      3.52196      3.52196      3.50253
    291      1      2.96653      6.03780      9.05720      1.75127
    292      1      2.96653      9.05720      6.03780      5.25380
    293      2     -1.483265     6.23806      5.55113      1.24998
    294      2     -1.483265     3.82527      4.51220      4.75252
    295      2     -1.483265     7.02803      8.75389      3.00125
    296      2     -1.483265     8.06696      6.34110      6.50378
    297      2     -1.483265     5.55113      6.23806     -1.24998
    298      2     -1.483265     4.51220      3.82527      2.25255
    299      2     -1.483265     6.34110      8.06696      0.50128
    300      2     -1.483265     8.75389      7.02803      4.00381
    301      1      2.96653      6.54136      6.54136      7.00506
    302      1      2.96653      3.52196      3.52196     10.50760
    303      1      2.96653      6.03780      9.05720      8.75633
    304      1      2.96653      9.05720      6.03780     12.25886
    305      2     -1.483265     6.23806      5.55113      8.25505
    306      2     -1.483265     3.82527      4.51220     11.75758
    307      2     -1.483265     7.02803      8.75389     10.00631
    308      2     -1.483265     8.06696      6.34110     13.50885
    309      2     -1.483265     5.55113      6.23806      5.75508
    310      2     -1.483265     4.51220      3.82527      9.25761
    311      2     -1.483265     6.34110      8.06696      7.50635
    312      2     -1.483265     8.75389      7.02803     11.00888
    313      1      2.96653      6.54136      6.54136     14.01013
    314      1      2.96653      3.52196      3.52196     17.51266
    315      1      2.96653      6.03780      9.05720     15.76139
    316      1      2.96653      9.05720      6.03780     19.26393
    317      2     -1.483265     6.23806      5.55113     15.26011
    318      2     -1.483265     3.82527      4.51220     18.76264
    319      2     -1.483265     7.02803      8.75389     17.01138
    320      2     -1.483265     8.06696      6.34110     20.51391
    321      2     -1.483265     5.55113      6.23806     12.76014
    322      2     -1.483265     4.51220      3.82527     16.26268
    323      2     -1.483265     6.34110      8.06696     14.51141
    324      2     -1.483265     8.75389      7.02803     18.01394
    325      1      2.96653      6.54136      6.54136     21.01519
    326      1      2.96653      3.52196      3.52196     24.51772
    327      1      2.96653      6.03780      9.05720     22.76646
    328      1      2.96653      9.05720      6.03780     26.26899
    329      2     -1.483265     6.23806      5.55113     22.26518
    330      2     -1.483265     3.82527      4.51220     25.76771
    331      2     -1.483265     7.02803      8.75389     24.01644
    332      2     -1.483265     8.06696      6.34110     27.51897
    333      2     -1.483265     5.55113      6.23806     19.76521
    334      2     -1.483265     4.51220      3.82527     23.26774
    335      2     -1.483265     6.34110      8.06696     21.51647
    336      2     -1.483265     8.75389      7.02803     25.01901
    337      1      2.96653      6.54136     11.57303      0.00000
    338      1      2.96653      3.52196      8.55363      3.50253
    339      1      2.96653      6.03780     14.08886      1.75127
    340      1      2.96653      9.05720     11.06946      5.25380
    341      2     -1.483265     6.23806     10.58280      1.24998
    342      2     -1.483265     3.82527      9.54386      4.75252
    343      2     -1.483265     7.02803     13.78555      3.00125
    344      2     -1.483265     8.06696     11.37277      6.50378
    345      2     -1.483265     5.55113     11.26972     -1.24998
    346      2     -1.483265     4.51220      8.85694      2.25255
    347      2     -1.483265     6.34110     13.09863      0.50128
    348      2     -1.483265     8.75389     12.05969      4.00381
    349      1      2.96653      6.54136     11.57303      7.00506
    350      1      2.96653      3.52196      8.55363     10.50760
    351      1      2.96653      6.03780     14.08886      8.75633
    352      1      2.96653      9.05720     11.06946     12.25886
    353      2     -1.483265     6.23806     10.58280      8.25505
    354      2     -1.483265     3.82527      9.54386     11.75758
    355      2     -1.483265     7.02803     13.78555     10.00631
    356      2     -1.483265     8.06696     11.37277     13.50885
    357      2     -1.483265     5.55113     11.26972      5.75508
    358      2     -1.483265     4.51220      8.85694      9.25761
    359      2     -1.483265     6.34110     13.09863      7.50635
    360      2     -1.483265     8.75389     12.05969     11.00888
    361      1      2.96653      6.54136     11.57303     14.01013
    362      1      2.96653      3.52196      8.55363     17.51266
    363      1      2.96653      6.03780     14.08886     15.76139
    364      1      2.96653      9.05720     11.06946     19.26393
    365      2     -1.483265     6.23806     10.58280     15.26011
    366      2     -1.483265     3.82527      9.54386     18.76264
    367      2     -1.483265     7.02803     13.78555     17.01138
    368      2     -1.483265     8.06696     11.37277     20.51391
    369      2     -1.483265     5.55113     11.26972     12.76014
    370      2     -1.483265     4.51220      8.85694     16.26268
    371      2     -1.483265     6.34110     13.09863     14.51141
    372      2     -1.483265     8.75389     12.05969     18.01394
    373      1      2.96653      6.54136     11.57303     21.01519
    374      1      2.96653      3.52196      8.55363     24.51772
    375      1      2.96653      6.03780     14.08886     22.76646
    376      1      2.96653      9.05720     11.06946     26.26899
    377      2     -1.483265     6.23806     10.58280     22.26518
    378      2     -1.483265     3.82527      9.54386     25.76771
    379      2     -1.483265     7.02803     13.78555     24.01644
    380      2     -1.483265     8.06696     11.37277     27.51897
    381      2     -1.483265     5.55113     11.26972     19.76521
    382      2     -1.483265     4.51220      8.85694     23.26774
    383      2     -1.483265     6.34110     13.09863     21.51647
    384      2     -1.483265     8.75389     12.05969     25.01901
    385      1      2.96653      6.54136     16.60469      0.00000
    386      1      2.96653      3.52196     13.58529      3.50253
    387      1      2.96653      6.03780     19.12052      1.75127
    388      1      2.96653      9.05720     16.10112      5.25380
    389      2     -1.483265     6.23806     15.61446      1.24998
    390      2     -1.483265     3.82527     14.57552      4.75252
    391      2     -1.483265     7.02803     18.81722      3.00125
    392      2     -1.483265     8.06696     16.40443      6.50378
    393      2     -1.483265     5.55113     16.30138     -1.24998
    394      2     -1.483265     4.51220     13.88860      2.25255
    395      2     -1.483265     6.34110     18.13029      0.50128
    396      2     -1.483265     8.75389     17.09136      4.00381
    397      1      2.96653      6.54136     16.60469      7.00506
    398      1      2.96653      3.52196     13.58529     10.50760
    399      1      2.96653      6.03780     19.12052      8.75633
    400      1      2.96653      9.05720     16.10112     12.25886
    401      2     -1.483265     6.23806     15.61446      8.25505
    402      2     -1.483265     3.82527     14.57552     11.75758
    403      2     -1.483265     7.02803     18.81722     10.00631
    404      2     -1.483265     8.06696     16.40443     13.50885
    405      2     -1.483265     5.55113     16.30138      5.75508
    406      2     -1.483265     4.51220     13.88860      9.25761
    407      2     -1.483265     6.34110     18.13029      7.50635
    408      2     -1.483265     8.75389     17.09136     11.00888
    409      1      2.96653      6.54136     16.60469     14.01013
    410      1      2.96653      3.52196     13.58529     17.51266
    411      1      2.96653      6.03780     19.12052     15.76139
    412      1      2.96653      9.05720     16.10112     19.26393
    413      2     -1.483265     6.23806     15.61446     15.26011
    414      2     -1.483265     3.82527     14.57552     18.76264
    415      2     -1.483265     7.02803     18.81722     17.01138
    416      2     -1.483265     8.06696     16.40443     20.51391
    417      2     -1.483265     5.55113     16.30138     12.76014
    418      2     -1.483265     4.51220     13.88860     16.26268
    419      2     -1.483265     6.34110     18.13029     14.51141
    420      2     -1.483265     8.75389     17.09136     18.01394
    421      1      2.96653      6.54136     16.60469     21.01519
    422      1      2.96653      3.52196     13.58529     24.51772
    423      1      2.96653      6.03780     19.12052     22.76646
    424      1      2.96653      9.05720     16.10112     26.26899
    425      2     -1.483265     6.23806     15.61446     22.26518
    426      2     -1.483265     3.82527     14.57552     25.76771
    427      2     -1.483265     7.02803     18.81722     24.01644
    428      2     -1.483265     8.06696     16.40443     27.51897
    429      2     -1.483265     5.55113     16.30138     19.76521
    430      2     -1.483265     4.51220     13.88860     23.26774
    431      2     -1.483265     6.34110     18.13029     21.51647
    432      2     -1.483265     8.75389     17.09136     25.01901
    433      1      2.96653      6.54136     21.63636      0.00000
    434      1      2.96653      3.52196     18.61696      3.50253
    435      1      2.96653      6.03780     24.15219      1.75127
    436      1      2.96653      9.05720     21.13279      5.25380
    437      2     -1.483265     6.23806     20.64612      1.24998
    438      2     -1.483265     3.82527     19.60719      4.75252
    439      2     -1.483265     7.02803     23.84888      3.00125
    440      2     -1.483265     8.06696     21.43610      6.50378
    441      2     -1.483265     5.55113     21.33305     -1.24998
    442      2     -1.483265     4.51220     18.92026      2.25255
    443      2     -1.483265     6.34110     23.16196      0.50128