LAMMPS data file from VASP file VASP/POSCAR_diamond

4 atoms
1 atom types
0.0   2.8200563642280549 xlo xhi
0.0   2.8200563642280549 ylo yhi
0.0   3.9881619569478763 zlo zhi

Atoms

1 1                    0                    0                    0
2 1   1.4100281821140275                    0  0.99704048923696909
3 1   1.4100281821140275   1.4100281821140275   1.9940809784739382
4 1                    0   1.4100281821140275    2.991121467710907
