LAMMPS data file from VASP file VASP/POSCAR_bcc_222

18 atoms
1 atom types
0.0   8.9531208783704628 xlo xhi
0.0   3.8768150619108339 ylo yhi
0.0   45.534159244872015 zlo zhi
  2.2382802195926157                    0                    0 xy xz yz

Atoms

1 1                    0                    0                   15
2 1   6.7148406587778462   1.2922716873036106   15.913774073227765
3 1   4.4765604391852314   2.5845433746072226   16.827548146455531
4 1   11.191401097963077    3.876815061910833   17.741322219683298
5 1   6.7148406587778471   1.2922716873036111   18.655096292911061
6 1   4.4765604391852305   2.5845433746072222   19.568870366138828
7 1   2.2382802195926152    3.876815061910833   20.482644439366592
8 1   6.7148406587778453   1.2922716873036111   21.396418512594359
9 1   4.4765604391852305   2.5845433746072222   22.310192585822122
10 1   2.2382802195926148   3.8768150619108321   23.223966659049893
11 1   6.7148406587778453   1.2922716873036102   24.137740732277656
12 1   4.4765604391852305   2.5845433746072195   25.051514805505423
13 1   2.2382802195926148   3.8768150619108321   25.965288878733183
14 1   6.7148406587778444   1.2922716873036084   26.879062951960954
15 1   4.4765604391852314   2.5845433746072204   27.792837025188717
16 1   2.2382802195926139   3.8768150619108304   28.706611098416481
17 1   6.7148406587778453   1.2922716873036102   29.620385171644248
18 1   4.4765604391852269   2.5845433746072204   30.534159244872015
