LAMMPS data file from VASP file VASP/POSCAR_sc_001

9 atoms
1 atom types
0.0   2.5123845999742804 xlo xhi
0.0   2.5123845999742804 ylo yhi
0.0   50.099076799794247 zlo zhi

Atoms

1 1                    0                    0   15.000000000000002
2 1                    0                    0   17.512384599974283
3 1                    0                    0   20.024769199948562
4 1                    0                    0   22.537153799922841
5 1                    0                    0   25.049538399897123
6 1                    0                    0   27.561922999871406
7 1                    0                    0   30.074307599845682
8 1                    0                    0   32.586692199819964
9 1                    0                    0   35.099076799794247
