LAMMPS data file from VASP file VASP/POSCAR_fcc_001

18 atoms
1 atom types
0.0   4.4765604391852305 xlo xhi
0.0   4.4765604391852305 ylo yhi
0.0   113.81190612996821 zlo zhi

Atoms

1 1                    0                    0                   30
2 1   2.2382802195926152   2.2382802195926152   33.165406242939305
3 1                    0                    0    36.33081248587861
4 1   2.2382802195926152   2.2382802195926152   39.496218728817922
5 1                    0                    0   42.661624971757227
6 1   2.2382802195926152   2.2382802195926152   45.827031214696532
7 1                    0                    0   48.992437457635837
8 1   2.2382802195926152   2.2382802195926152   52.157843700575143
9 1                    0                    0   55.323249943514455
10 1   2.2382802195926152   2.2382802195926152   58.488656186453753
11 1                    0                    0   61.654062429393065
12 1   2.2382802195926152   2.2382802195926152   64.819468672332363
13 1                    0                    0   67.984874915271675
14 1   2.2382802195926152   2.2382802195926152   71.150281158210987
15 1                    0                    0   74.315687401150285
16 1   2.2382802195926152   2.2382802195926152   77.481093644089597
17 1                    0                    0   80.646499887028909
18 1   2.2382802195926152   2.2382802195926152   83.811906129968207
