LAMMPS data file. CGCMM style. atom_style bond generated by VMD/TopoTools v1.7 on Tue Mar 26 16:13:26 EDT 2019
 1200 atoms
 300 bonds
 0 angles
 0 dihedrals
 0 impropers
 4 atom types
 1 bond types
 0 angle types
 0 dihedral types
 0 improper types
 -0.392930 35.463931  xlo xhi
 -0.050929 35.805932  ylo yhi
 -0.100000 0.100000  zlo zhi

# Pair Coeffs
#
# 1  1
# 2  2
# 3  3
# 4  4

# Bond Coeffs
#
# 1  1

 Masses

 1 1.000000 # 1
 2 1.000000 # 2
 3 1.000000 # 3
 4 1.000000 # 4

 Atoms # bond

1 140 2 0.000000 0.000000 0.000000 # 2 
2 1 1 1.195000 0.000000 0.000000 # 1 
3 1 1 2.390000 0.000000 0.000000 # 1 
4 1 1 3.586000 0.000000 0.000000 # 1 
5 1 1 4.781000 0.000000 0.000000 # 1 
6 1 1 5.976000 0.000000 0.000000 # 1 
7 1 1 7.171000 0.000000 0.000000 # 1 
8 1 1 8.367000 0.000000 0.000000 # 1 
9 1 1 9.562000 0.000000 0.000000 # 1 
10 115 2 10.757000 0.000000 0.000000 # 2 
11 1 1 11.952000 0.000000 0.000000 # 1 
12 53 2 13.148000 0.000000 0.000000 # 2 
13 1 1 14.343000 0.000000 0.000000 # 1 
14 1 1 15.538000 0.000000 0.000000 # 1 
15 1 1 16.733000 0.000000 0.000000 # 1 
16 1 1 17.927999 0.000000 0.000000 # 1 
17 1 1 19.124001 0.000000 0.000000 # 1 
18 1 1 20.319000 0.000000 0.000000 # 1 
19 1 1 21.514000 0.000000 0.000000 # 1 
20 1 1 22.709000 0.000000 0.000000 # 1 
21 1 1 23.905001 0.000000 0.000000 # 1 
22 1 1 25.100000 0.000000 0.000000 # 1 
23 1 1 26.295000 0.000000 0.000000 # 1 
24 111 2 27.490000 0.000000 0.000000 # 2 
25 129 2 28.684999 35.856861 0.000000 # 2 
26 1 1 29.881001 0.000000 0.000000 # 1 
27 1 1 31.076000 0.000000 0.000000 # 1 
28 1 1 32.271000 0.000000 0.000000 # 1 
29 1 1 33.466000 0.000000 0.000000 # 1 
30 1 1 34.661999 0.000000 0.000000 # 1 
31 1 1 0.000000 1.195000 0.000000 # 1 
32 1 1 1.195000 1.195000 0.000000 # 1 
33 114 2 2.390000 1.195000 0.000000 # 2 
34 1 1 3.586000 1.195000 0.000000 # 1 
35 76 2 4.781000 1.195000 0.000000 # 2 
36 1 1 5.976000 1.195000 0.000000 # 1 
37 1 1 7.171000 1.195000 0.000000 # 1 
38 90 2 8.367000 1.195000 0.000000 # 2 
39 1 1 9.562000 1.195000 0.000000 # 1 
40 95 2 10.757000 1.195000 0.000000 # 2 
41 1 1 11.952000 1.195000 0.000000 # 1 
42 36 2 13.148000 1.195000 0.000000 # 2 
43 1 1 14.343000 1.195000 0.000000 # 1 
44 1 1 15.538000 1.195000 0.000000 # 1 
45 1 1 16.733000 1.195000 0.000000 # 1 
46 1 1 17.927999 1.195000 0.000000 # 1 
47 1 1 19.124001 1.195000 0.000000 # 1 
48 1 1 20.319000 1.195000 0.000000 # 1 
49 1 1 21.514000 1.195000 0.000000 # 1 
50 1 1 22.709000 1.195000 0.000000 # 1 
51 1 1 23.905001 1.195000 0.000000 # 1 
52 1 1 25.100000 1.195000 0.000000 # 1 
53 1 1 26.295000 1.195000 0.000000 # 1 
54 1 1 27.490000 1.195000 0.000000 # 1 
55 1 1 28.684999 1.195000 0.000000 # 1 
56 1 1 29.881001 1.195000 0.000000 # 1 
57 1 1 31.076000 1.195000 0.000000 # 1 
58 1 1 32.271000 1.195000 0.000000 # 1 
59 1 1 33.466000 1.195000 0.000000 # 1 
60 1 1 34.661999 1.195000 0.000000 # 1 
61 1 1 0.000000 2.390000 0.000000 # 1 
62 1 1 1.195000 2.390000 0.000000 # 1 
63 120 2 2.390000 2.390000 0.000000 # 2 
64 1 1 3.586000 2.390000 0.000000 # 1 
65 25 2 4.781000 2.390000 0.000000 # 2 
66 1 1 5.976000 2.390000 0.000000 # 1 
67 1 1 7.171000 2.390000 0.000000 # 1 
68 1 1 8.367000 2.390000 0.000000 # 1 
69 1 1 9.562000 2.390000 0.000000 # 1 
70 1 1 10.757000 2.390000 0.000000 # 1 
71 1 1 11.952000 2.390000 0.000000 # 1 
72 1 1 13.148000 2.390000 0.000000 # 1 
73 1 1 14.343000 2.390000 0.000000 # 1 
74 1 1 15.538000 2.390000 0.000000 # 1 
75 1 1 16.733000 2.390000 0.000000 # 1 
76 1 1 17.927999 2.390000 0.000000 # 1 
77 1 1 19.124001 2.390000 0.000000 # 1 
78 1 1 20.319000 2.390000 0.000000 # 1 
79 1 1 21.514000 2.390000 0.000000 # 1 
80 1 1 22.709000 2.390000 0.000000 # 1 
81 1 1 23.905001 2.390000 0.000000 # 1 
82 75 2 25.100000 2.390000 0.000000 # 2 
83 1 1 26.295000 2.390000 0.000000 # 1 
84 1 1 27.490000 2.390000 0.000000 # 1 
85 1 1 28.684999 2.390000 0.000000 # 1 
86 48 2 29.881001 2.390000 0.000000 # 2 
87 1 1 31.076000 2.390000 0.000000 # 1 
88 1 1 32.271000 2.390000 0.000000 # 1 
89 1 1 33.466000 2.390000 0.000000 # 1 
90 1 1 34.661999 2.390000 0.000000 # 1 
91 1 1 0.000000 3.586000 0.000000 # 1 
92 1 1 1.195000 3.586000 0.000000 # 1 
93 1 1 2.390000 3.586000 0.000000 # 1 
94 1 1 3.586000 3.586000 0.000000 # 1 
95 1 1 4.781000 3.586000 0.000000 # 1 
96 1 1 5.976000 3.586000 0.000000 # 1 
97 1 1 7.171000 3.586000 0.000000 # 1 
98 1 1 8.367000 3.586000 0.000000 # 1 
99 1 1 9.562000 3.586000 0.000000 # 1 
100 122 2 10.757000 3.586000 0.000000 # 2 
101 1 1 11.952000 3.586000 0.000000 # 1 
102 1 1 13.148000 3.586000 0.000000 # 1 
103 130 2 14.343000 3.586000 0.000000 # 2 
104 1 1 15.538000 3.586000 0.000000 # 1 
105 1 1 16.733000 3.586000 0.000000 # 1 
106 1 1 17.927999 3.586000 0.000000 # 1 
107 1 1 19.124001 3.586000 0.000000 # 1 
108 1 1 20.319000 3.586000 0.000000 # 1 
109 118 2 21.514000 3.586000 0.000000 # 2 
110 1 1 22.709000 3.586000 0.000000 # 1 
111 1 1 23.905001 3.586000 0.000000 # 1 
112 1 1 25.100000 3.586000 0.000000 # 1 
113 1 1 26.295000 3.586000 0.000000 # 1 
114 1 1 27.490000 3.586000 0.000000 # 1 
115 1 1 28.684999 3.586000 0.000000 # 1 
116 50 2 29.881001 3.586000 0.000000 # 2 
117 1 1 31.076000 3.586000 0.000000 # 1 
118 1 1 32.271000 3.586000 0.000000 # 1 
119 1 1 33.466000 3.586000 0.000000 # 1 
120 1 1 34.661999 3.586000 0.000000 # 1 
121 1 1 0.000000 4.781000 0.000000 # 1 
122 1 1 1.195000 4.781000 0.000000 # 1 
123 1 1 2.390000 4.781000 0.000000 # 1 
124 1 1 3.586000 4.781000 0.000000 # 1 
125 39 2 4.781000 4.781000 0.000000 # 2 
126 1 1 5.976000 4.781000 0.000000 # 1 
127 68 2 7.171000 4.781000 0.000000 # 2 
128 1 1 8.367000 4.781000 0.000000 # 1 
129 4 2 9.562000 4.781000 0.000000 # 2 
130 1 1 10.757000 4.781000 0.000000 # 1 
131 42 2 11.952000 4.781000 0.000000 # 2 
132 1 1 13.148000 4.781000 0.000000 # 1 
133 132 2 14.343000 4.781000 0.000000 # 2 
134 1 1 15.538000 4.781000 0.000000 # 1 
135 1 1 16.733000 4.781000 0.000000 # 1 
136 1 1 17.927999 4.781000 0.000000 # 1 
137 1 1 19.124001 4.781000 0.000000 # 1 
138 1 1 20.319000 4.781000 0.000000 # 1 
139 1 1 21.514000 4.781000 0.000000 # 1 
140 1 1 22.709000 4.781000 0.000000 # 1 
141 1 1 23.905001 4.781000 0.000000 # 1 
142 1 1 25.100000 4.781000 0.000000 # 1 
143 1 1 26.295000 4.781000 0.000000 # 1 
144 1 1 27.490000 4.781000 0.000000 # 1 
145 1 1 28.684999 4.781000 0.000000 # 1 
146 1 1 29.881001 4.781000 0.000000 # 1 
147 1 1 31.076000 4.781000 0.000000 # 1 
148 1 1 32.271000 4.781000 0.000000 # 1 
149 1 1 33.466000 4.781000 0.000000 # 1 
150 1 1 34.661999 4.781000 0.000000 # 1 
151 54 2 35.856861 5.976000 0.000000 # 2 
152 1 1 1.195000 5.976000 0.000000 # 1 
153 1 1 2.390000 5.976000 0.000000 # 1 
154 1 1 3.586000 5.976000 0.000000 # 1 
155 1 1 4.781000 5.976000 0.000000 # 1 
156 1 1 5.976000 5.976000 0.000000 # 1 
157 49 2 7.171000 5.976000 0.000000 # 2 
158 1 1 8.367000 5.976000 0.000000 # 1 
159 31 2 9.562000 5.976000 0.000000 # 2 
160 1 1 10.757000 5.976000 0.000000 # 1 
161 1 1 11.952000 5.976000 0.000000 # 1 
162 105 2 13.148000 5.976000 0.000000 # 2 
163 1 1 14.343000 5.976000 0.000000 # 1 
164 137 2 15.538000 5.976000 0.000000 # 2 
165 1 1 16.733000 5.976000 0.000000 # 1 
166 1 1 17.927999 5.976000 0.000000 # 1 
167 1 1 19.124001 5.976000 0.000000 # 1 
168 117 2 20.319000 5.976000 0.000000 # 2 
169 1 1 21.514000 5.976000 0.000000 # 1 
170 1 1 22.709000 5.976000 0.000000 # 1 
171 1 1 23.905001 5.976000 0.000000 # 1 
172 1 1 25.100000 5.976000 0.000000 # 1 
173 41 2 26.295000 5.976000 0.000000 # 2 
174 1 1 27.490000 5.976000 0.000000 # 1 
175 146 2 28.684999 5.976000 0.000000 # 2 
176 34 2 29.881001 5.976000 0.000000 # 2 
177 1 1 31.076000 5.976000 0.000000 # 1 
178 1 1 32.271000 5.976000 0.000000 # 1 
179 1 1 33.466000 5.976000 0.000000 # 1 
180 1 1 34.661999 5.976000 0.000000 # 1 
181 1 1 0.000000 7.171000 0.000000 # 1 
182 1 1 1.195000 7.171000 0.000000 # 1 
183 1 1 2.390000 7.171000 0.000000 # 1 
184 1 1 3.586000 7.171000 0.000000 # 1 
185 1 1 4.781000 7.171000 0.000000 # 1 
186 1 1 5.976000 7.171000 0.000000 # 1 
187 1 1 7.171000 7.171000 0.000000 # 1 
188 1 1 8.367000 7.171000 0.000000 # 1 
189 1 1 9.562000 7.171000 0.000000 # 1 
190 1 1 10.757000 7.171000 0.000000 # 1 
191 1 1 11.952000 7.171000 0.000000 # 1 
192 16 2 13.148000 7.171000 0.000000 # 2 
193 1 1 14.343000 7.171000 0.000000 # 1 
194 1 1 15.538000 7.171000 0.000000 # 1 
195 1 1 16.733000 7.171000 0.000000 # 1 
196 1 1 17.927999 7.171000 0.000000 # 1 
197 1 1 19.124001 7.171000 0.000000 # 1 
198 1 1 20.319000 7.171000 0.000000 # 1 
199 1 1 21.514000 7.171000 0.000000 # 1 
200 1 1 22.709000 7.171000 0.000000 # 1 
201 109 2 23.905001 7.171000 0.000000 # 2 
202 1 1 25.100000 7.171000 0.000000 # 1 
203 1 1 26.295000 7.171000 0.000000 # 1 
204 1 1 27.490000 7.171000 0.000000 # 1 
205 133 2 28.684999 7.171000 0.000000 # 2 
206 1 1 29.881001 7.171000 0.000000 # 1 
207 1 1 31.076000 7.171000 0.000000 # 1 
208 1 1 32.271000 7.171000 0.000000 # 1 
209 1 1 33.466000 7.171000 0.000000 # 1 
210 1 1 34.661999 7.171000 0.000000 # 1 
211 1 1 0.000000 8.367000 0.000000 # 1 
212 1 1 1.195000 8.367000 0.000000 # 1 
213 1 1 2.390000 8.367000 0.000000 # 1 
214 1 1 3.586000 8.367000 0.000000 # 1 
215 1 1 4.781000 8.367000 0.000000 # 1 
216 1 1 5.976000 8.367000 0.000000 # 1 
217 1 1 7.171000 8.367000 0.000000 # 1 
218 1 1 8.367000 8.367000 0.000000 # 1 
219 1 1 9.562000 8.367000 0.000000 # 1 
220 1 1 10.757000 8.367000 0.000000 # 1 
221 1 1 11.952000 8.367000 0.000000 # 1 
222 1 1 13.148000 8.367000 0.000000 # 1 
223 1 1 14.343000 8.367000 0.000000 # 1 
224 1 1 15.538000 8.367000 0.000000 # 1 
225 1 1 16.733000 8.367000 0.000000 # 1 
226 1 1 17.927999 8.367000 0.000000 # 1 
227 1 1 19.124001 8.367000 0.000000 # 1 
228 1 1 20.319000 8.367000 0.000000 # 1 
229 1 1 21.514000 8.367000 0.000000 # 1 
230 98 2 22.709000 8.367000 0.000000 # 2 
231 1 1 23.905001 8.367000 0.000000 # 1 
232 13 2 25.100000 8.367000 0.000000 # 2 
233 72 2 26.295000 8.367000 0.000000 # 2 
234 1 1 27.490000 8.367000 0.000000 # 1 
235 1 1 28.684999 8.367000 0.000000 # 1 
236 1 1 29.881001 8.367000 0.000000 # 1 
237 1 1 31.076000 8.367000 0.000000 # 1 
238 7 2 32.271000 8.367000 0.000000 # 2 
239 1 1 33.466000 8.367000 0.000000 # 1 
240 35 2 34.661999 8.367000 0.000000 # 2 
241 1 1 0.000000 9.562000 0.000000 # 1 
242 1 1 1.195000 9.562000 0.000000 # 1 
243 1 1 2.390000 9.562000 0.000000 # 1 
244 1 1 3.586000 9.562000 0.000000 # 1 
245 147 2 4.781000 9.562000 0.000000 # 2 
246 1 1 5.976000 9.562000 0.000000 # 1 
247 91 2 7.171000 9.562000 0.000000 # 2 
248 1 1 8.367000 9.562000 0.000000 # 1 
249 1 1 9.562000 9.562000 0.000000 # 1 
250 1 1 10.757000 9.562000 0.000000 # 1 
251 1 1 11.952000 9.562000 0.000000 # 1 
252 1 1 13.148000 9.562000 0.000000 # 1 
253 1 1 14.343000 9.562000 0.000000 # 1 
254 1 1 15.538000 9.562000 0.000000 # 1 
255 1 1 16.733000 9.562000 0.000000 # 1 
256 1 1 17.927999 9.562000 0.000000 # 1 
257 62 2 19.124001 9.562000 0.000000 # 2 
258 1 1 20.319000 9.562000 0.000000 # 1 
259 1 1 21.514000 9.562000 0.000000 # 1 
260 1 1 22.709000 9.562000 0.000000 # 1 
261 1 1 23.905001 9.562000 0.000000 # 1 
262 65 2 25.100000 9.562000 0.000000 # 2 
263 1 1 26.295000 9.562000 0.000000 # 1 
264 1 1 27.490000 9.562000 0.000000 # 1 
265 1 1 28.684999 9.562000 0.000000 # 1 
266 1 1 29.881001 9.562000 0.000000 # 1 
267 1 1 31.076000 9.562000 0.000000 # 1 
268 1 1 32.271000 9.562000 0.000000 # 1 
269 1 1 33.466000 9.562000 0.000000 # 1 
270 1 1 34.661999 9.562000 0.000000 # 1 
271 1 1 0.000000 10.757000 0.000000 # 1 
272 1 1 1.195000 10.757000 0.000000 # 1 
273 1 1 2.390000 10.757000 0.000000 # 1 
274 1 1 3.586000 10.757000 0.000000 # 1 
275 69 2 4.781000 10.757000 0.000000 # 2 
276 1 1 5.976000 10.757000 0.000000 # 1 
277 1 1 7.171000 10.757000 0.000000 # 1 
278 1 1 8.367000 10.757000 0.000000 # 1 
279 1 1 9.562000 10.757000 0.000000 # 1 
280 1 1 10.757000 10.757000 0.000000 # 1 
281 1 1 11.952000 10.757000 0.000000 # 1 
282 1 1 13.148000 10.757000 0.000000 # 1 
283 1 1 14.343000 10.757000 0.000000 # 1 
284 110 2 15.538000 10.757000 0.000000 # 2 
285 1 1 16.733000 10.757000 0.000000 # 1 
286 1 1 17.927999 10.757000 0.000000 # 1 
287 1 1 19.124001 10.757000 0.000000 # 1 
288 1 1 20.319000 10.757000 0.000000 # 1 
289 1 1 21.514000 10.757000 0.000000 # 1 
290 1 1 22.709000 10.757000 0.000000 # 1 
291 1 1 23.905001 10.757000 0.000000 # 1 
292 1 1 25.100000 10.757000 0.000000 # 1 
293 1 1 26.295000 10.757000 0.000000 # 1 
294 74 2 27.490000 10.757000 0.000000 # 2 
295 1 1 28.684999 10.757000 0.000000 # 1 
296 1 1 29.881001 10.757000 0.000000 # 1 
297 1 1 31.076000 10.757000 0.000000 # 1 
298 1 1 32.271000 10.757000 0.000000 # 1 
299 1 1 33.466000 10.757000 0.000000 # 1 
300 1 1 34.661999 10.757000 0.000000 # 1 
301 1 1 0.000000 11.952000 0.000000 # 1 
302 1 1 1.195000 11.952000 0.000000 # 1 
303 1 1 2.390000 11.952000 0.000000 # 1 
304 1 1 3.586000 11.952000 0.000000 # 1 
305 1 1 4.781000 11.952000 0.000000 # 1 
306 135 2 5.976000 11.952000 0.000000 # 2 
307 1 1 7.171000 11.952000 0.000000 # 1 
308 1 1 8.367000 11.952000 0.000000 # 1 
309 58 2 9.562000 11.952000 0.000000 # 2 
310 102 2 10.757000 11.952000 0.000000 # 2 
311 121 2 11.952000 11.952000 0.000000 # 2 
312 1 1 13.148000 11.952000 0.000000 # 1 
313 1 1 14.343000 11.952000 0.000000 # 1 
314 1 1 15.538000 11.952000 0.000000 # 1 
315 1 1 16.733000 11.952000 0.000000 # 1 
316 1 1 17.927999 11.952000 0.000000 # 1 
317 33 2 19.124001 11.952000 0.000000 # 2 
318 1 1 20.319000 11.952000 0.000000 # 1 
319 1 1 21.514000 11.952000 0.000000 # 1 
320 1 1 22.709000 11.952000 0.000000 # 1 
321 1 1 23.905001 11.952000 0.000000 # 1 
322 1 1 25.100000 11.952000 0.000000 # 1 
323 1 1 26.295000 11.952000 0.000000 # 1 
324 1 1 27.490000 11.952000 0.000000 # 1 
325 1 1 28.684999 11.952000 0.000000 # 1 
326 1 1 29.881001 11.952000 0.000000 # 1 
327 1 1 31.076000 11.952000 0.000000 # 1 
328 43 2 32.271000 11.952000 0.000000 # 2 
329 1 1 33.466000 11.952000 0.000000 # 1 
330 1 1 34.661999 11.952000 0.000000 # 1 
331 1 1 0.000000 13.148000 0.000000 # 1 
332 11 2 1.195000 13.148000 0.000000 # 2 
333 55 2 2.390000 13.148000 0.000000 # 2 
334 1 1 3.586000 13.148000 0.000000 # 1 
335 1 1 4.781000 13.148000 0.000000 # 1 
336 1 1 5.976000 13.148000 0.000000 # 1 
337 1 1 7.171000 13.148000 0.000000 # 1 
338 1 1 8.367000 13.148000 0.000000 # 1 
339 21 2 9.562000 13.148000 0.000000 # 2 
340 1 1 10.757000 13.148000 0.000000 # 1 
341 1 1 11.952000 13.148000 0.000000 # 1 
342 1 1 13.148000 13.148000 0.000000 # 1 
343 12 2 14.343000 13.148000 0.000000 # 2 
344 1 1 15.538000 13.148000 0.000000 # 1 
345 1 1 16.733000 13.148000 0.000000 # 1 
346 1 1 17.927999 13.148000 0.000000 # 1 
347 1 1 19.124001 13.148000 0.000000 # 1 
348 1 1 20.319000 13.148000 0.000000 # 1 
349 18 2 21.514000 13.148000 0.000000 # 2 
350 1 1 22.709000 13.148000 0.000000 # 1 
351 1 1 23.905001 13.148000 0.000000 # 1 
352 1 1 25.100000 13.148000 0.000000 # 1 
353 1 1 26.295000 13.148000 0.000000 # 1 
354 1 1 27.490000 13.148000 0.000000 # 1 
355 1 1 28.684999 13.148000 0.000000 # 1 
356 1 1 29.881001 13.148000 0.000000 # 1 
357 1 1 31.076000 13.148000 0.000000 # 1 
358 1 1 32.271000 13.148000 0.000000 # 1 
359 1 1 33.466000 13.148000 0.000000 # 1 
360 1 1 34.661999 13.148000 0.000000 # 1 
361 1 1 0.000000 14.343000 0.000000 # 1 
362 1 1 1.195000 14.343000 0.000000 # 1 
363 9 2 2.390000 14.343000 0.000000 # 2 
364 1 1 3.586000 14.343000 0.000000 # 1 
365 1 1 4.781000 14.343000 0.000000 # 1 
366 1 1 5.976000 14.343000 0.000000 # 1 
367 1 1 7.171000 14.343000 0.000000 # 1 
368 1 1 8.367000 14.343000 0.000000 # 1 
369 1 1 9.562000 14.343000 0.000000 # 1 
370 1 1 10.757000 14.343000 0.000000 # 1 
371 107 2 11.952000 14.343000 0.000000 # 2 
372 1 1 13.148000 14.343000 0.000000 # 1 
373 1 1 14.343000 14.343000 0.000000 # 1 
374 1 1 15.538000 14.343000 0.000000 # 1 
375 1 1 16.733000 14.343000 0.000000 # 1 
376 103 2 17.927999 14.343000 0.000000 # 2 
377 1 1 19.124001 14.343000 0.000000 # 1 
378 82 2 20.319000 14.343000 0.000000 # 2 
379 10 2 21.514000 14.343000 0.000000 # 2 
380 1 1 22.709000 14.343000 0.000000 # 1 
381 1 1 23.905001 14.343000 0.000000 # 1 
382 1 1 25.100000 14.343000 0.000000 # 1 
383 1 1 26.295000 14.343000 0.000000 # 1 
384 1 1 27.490000 14.343000 0.000000 # 1 
385 1 1 28.684999 14.343000 0.000000 # 1 
386 1 1 29.881001 14.343000 0.000000 # 1 
387 1 1 31.076000 14.343000 0.000000 # 1 
388 1 1 32.271000 14.343000 0.000000 # 1 
389 1 1 33.466000 14.343000 0.000000 # 1 
390 1 1 34.661999 14.343000 0.000000 # 1 
391 1 1 0.000000 15.538000 0.000000 # 1 
392 1 1 1.195000 15.538000 0.000000 # 1 
393 1 1 2.390000 15.538000 0.000000 # 1 
394 1 1 3.586000 15.538000 0.000000 # 1 
395 1 1 4.781000 15.538000 0.000000 # 1 
396 1 1 5.976000 15.538000 0.000000 # 1 
397 1 1 7.171000 15.538000 0.000000 # 1 
398 1 1 8.367000 15.538000 0.000000 # 1 
399 71 2 9.562000 15.538000 0.000000 # 2 
400 1 1 10.757000 15.538000 0.000000 # 1 
401 1 1 11.952000 15.538000 0.000000 # 1 
402 1 1 13.148000 15.538000 0.000000 # 1 
403 1 1 14.343000 15.538000 0.000000 # 1 
404 1 1 15.538000 15.538000 0.000000 # 1 
405 1 1 16.733000 15.538000 0.000000 # 1 
406 1 1 17.927999 15.538000 0.000000 # 1 
407 1 1 19.124001 15.538000 0.000000 # 1 
408 1 1 20.319000 15.538000 0.000000 # 1 
409 1 1 21.514000 15.538000 0.000000 # 1 
410 1 1 22.709000 15.538000 0.000000 # 1 
411 1 1 23.905001 15.538000 0.000000 # 1 
412 1 1 25.100000 15.538000 0.000000 # 1 
413 94 2 26.295000 15.538000 0.000000 # 2 
414 1 1 27.490000 15.538000 0.000000 # 1 
415 1 1 28.684999 15.538000 0.000000 # 1 
416 28 2 29.881001 15.538000 0.000000 # 2 
417 1 1 31.076000 15.538000 0.000000 # 1 
418 61 2 32.271000 15.538000 0.000000 # 2 
419 108 2 33.466000 15.538000 0.000000 # 2 
420 112 2 34.661999 15.538000 0.000000 # 2 
421 1 1 0.000000 16.733000 0.000000 # 1 
422 1 1 1.195000 16.733000 0.000000 # 1 
423 1 1 2.390000 16.733000 0.000000 # 1 
424 1 1 3.586000 16.733000 0.000000 # 1 
425 1 1 4.781000 16.733000 0.000000 # 1 
426 1 1 5.976000 16.733000 0.000000 # 1 
427 134 2 7.171000 16.733000 0.000000 # 2 
428 1 1 8.367000 16.733000 0.000000 # 1 
429 1 1 9.562000 16.733000 0.000000 # 1 
430 1 1 10.757000 16.733000 0.000000 # 1 
431 66 2 11.952000 16.733000 0.000000 # 2 
432 1 1 13.148000 16.733000 0.000000 # 1 
433 1 1 14.343000 16.733000 0.000000 # 1 
434 1 1 15.538000 16.733000 0.000000 # 1 
435 1 1 16.733000 16.733000 0.000000 # 1 
436 1 1 17.927999 16.733000 0.000000 # 1 
437 81 2 19.124001 16.733000 0.000000 # 2 
438 1 1 20.319000 16.733000 0.000000 # 1 
439 1 1 21.514000 16.733000 0.000000 # 1 
440 1 1 22.709000 16.733000 0.000000 # 1 
441 1 1 23.905001 16.733000 0.000000 # 1 
442 1 1 25.100000 16.733000 0.000000 # 1 
443 52 2 26.295000 16.733000 0.000000 # 2 
444 1 1 27.490000 16.733000 0.000000 # 1 
445 1 1 28.684999 16.733000 0.000000 # 1 
446 1 1 29.881001 16.733000 0.000000 # 1 
447 45 2 31.076000 16.733000 0.000000 # 2 
448 1 1 32.271000 16.733000 0.000000 # 1 
449 1 1 33.466000 16.733000 0.000000 # 1 
450 138 2 34.661999 16.733000 0.000000 # 2 
451 1 1 0.000000 17.927999 0.000000 # 1 
452 87 2 1.195000 17.927999 0.000000 # 2 
453 1 1 2.390000 17.927999 0.000000 # 1 
454 1 1 3.586000 17.927999 0.000000 # 1 
455 113 2 4.781000 17.927999 0.000000 # 2 
456 1 1 5.976000 17.927999 0.000000 # 1 
457 1 1 7.171000 17.927999 0.000000 # 1 
458 1 1 8.367000 17.927999 0.000000 # 1 
459 1 1 9.562000 17.927999 0.000000 # 1 
460 3 2 10.757000 17.927999 0.000000 # 2 
461 1 1 11.952000 17.927999 0.000000 # 1 
462 1 1 13.148000 17.927999 0.000000 # 1 
463 1 1 14.343000 17.927999 0.000000 # 1 
464 148 2 15.538000 17.927999 0.000000 # 2 
465 1 1 16.733000 17.927999 0.000000 # 1 
466 1 1 17.927999 17.927999 0.000000 # 1 
467 15 2 19.124001 17.927999 0.000000 # 2 
468 1 1 20.319000 17.927999 0.000000 # 1 
469 1 1 21.514000 17.927999 0.000000 # 1 
470 143 2 22.709000 17.927999 0.000000 # 2 
471 1 1 23.905001 17.927999 0.000000 # 1 
472 1 1 25.100000 17.927999 0.000000 # 1 
473 1 1 26.295000 17.927999 0.000000 # 1 
474 1 1 27.490000 17.927999 0.000000 # 1 
475 85 2 28.684999 17.927999 0.000000 # 2 
476 1 1 29.881001 17.927999 0.000000 # 1 
477 1 1 31.076000 17.927999 0.000000 # 1 
478 1 1 32.271000 17.927999 0.000000 # 1 
479 1 1 33.466000 17.927999 0.000000 # 1 
480 27 2 34.661999 17.927999 0.000000 # 2 
481 1 1 0.000000 19.124001 0.000000 # 1 
482 1 1 1.195000 19.124001 0.000000 # 1 
483 57 2 2.390000 19.124001 0.000000 # 2 
484 1 1 3.586000 19.124001 0.000000 # 1 
485 1 1 4.781000 19.124001 0.000000 # 1 
486 1 1 5.976000 19.124001 0.000000 # 1 
487 22 2 7.171000 19.124001 0.000000 # 2 
488 1 1 8.367000 19.124001 0.000000 # 1 
489 1 1 9.562000 19.124001 0.000000 # 1 
490 1 1 10.757000 19.124001 0.000000 # 1 
491 1 1 11.952000 19.124001 0.000000 # 1 
492 1 1 13.148000 19.124001 0.000000 # 1 
493 59 2 14.343000 19.124001 0.000000 # 2 
494 1 1 15.538000 19.124001 0.000000 # 1 
495 1 1 16.733000 19.124001 0.000000 # 1 
496 1 1 17.927999 19.124001 0.000000 # 1 
497 1 1 19.124001 19.124001 0.000000 # 1 
498 1 1 20.319000 19.124001 0.000000 # 1 
499 1 1 21.514000 19.124001 0.000000 # 1 
500 1 1 22.709000 19.124001 0.000000 # 1 
501 1 1 23.905001 19.124001 0.000000 # 1 
502 1 1 25.100000 19.124001 0.000000 # 1 
503 1 1 26.295000 19.124001 0.000000 # 1 
504 1 1 27.490000 19.124001 0.000000 # 1 
505 1 1 28.684999 19.124001 0.000000 # 1 
506 1 1 29.881001 19.124001 0.000000 # 1 
507 1 1 31.076000 19.124001 0.000000 # 1 
508 1 1 32.271000 19.124001 0.000000 # 1 
509 1 1 33.466000 19.124001 0.000000 # 1 
510 124 2 34.661999 19.124001 0.000000 # 2 
511 1 1 0.000000 20.319000 0.000000 # 1 
512 1 1 1.195000 20.319000 0.000000 # 1 
513 1 1 2.390000 20.319000 0.000000 # 1 
514 1 1 3.586000 20.319000 0.000000 # 1 
515 1 1 4.781000 20.319000 0.000000 # 1 
516 1 1 5.976000 20.319000 0.000000 # 1 
517 1 1 7.171000 20.319000 0.000000 # 1 
518 1 1 8.367000 20.319000 0.000000 # 1 
519 119 2 9.562000 20.319000 0.000000 # 2 
520 37 2 10.757000 20.319000 0.000000 # 2 
521 77 2 11.952000 20.319000 0.000000 # 2 
522 1 1 13.148000 20.319000 0.000000 # 1 
523 1 1 14.343000 20.319000 0.000000 # 1 
524 23 2 15.538000 20.319000 0.000000 # 2 
525 1 1 16.733000 20.319000 0.000000 # 1 
526 128 2 17.927999 20.319000 0.000000 # 2 
527 1 1 19.124001 20.319000 0.000000 # 1 
528 1 1 20.319000 20.319000 0.000000 # 1 
529 1 1 21.514000 20.319000 0.000000 # 1 
530 1 1 22.709000 20.319000 0.000000 # 1 
531 63 2 23.905001 20.319000 0.000000 # 2 
532 1 1 25.100000 20.319000 0.000000 # 1 
533 1 1 26.295000 20.319000 0.000000 # 1 
534 1 1 27.490000 20.319000 0.000000 # 1 
535 1 1 28.684999 20.319000 0.000000 # 1 
536 5 2 29.881001 20.319000 0.000000 # 2 
537 1 1 31.076000 20.319000 0.000000 # 1 
538 1 1 32.271000 20.319000 0.000000 # 1 
539 1 1 33.466000 20.319000 0.000000 # 1 
540 1 1 34.661999 20.319000 0.000000 # 1 
541 1 1 0.000000 21.514000 0.000000 # 1 
542 1 1 1.195000 21.514000 0.000000 # 1 
543 1 1 2.390000 21.514000 0.000000 # 1 
544 1 1 3.586000 21.514000 0.000000 # 1 
545 1 1 4.781000 21.514000 0.000000 # 1 
546 1 1 5.976000 21.514000 0.000000 # 1 
547 1 1 7.171000 21.514000 0.000000 # 1 
548 1 1 8.367000 21.514000 0.000000 # 1 
549 1 1 9.562000 21.514000 0.000000 # 1 
550 1 1 10.757000 21.514000 0.000000 # 1 
551 1 1 11.952000 21.514000 0.000000 # 1 
552 1 1 13.148000 21.514000 0.000000 # 1 
553 100 2 14.343000 21.514000 0.000000 # 2 
554 1 1 15.538000 21.514000 0.000000 # 1 
555 1 1 16.733000 21.514000 0.000000 # 1 
556 1 1 17.927999 21.514000 0.000000 # 1 
557 1 1 19.124001 21.514000 0.000000 # 1 
558 1 1 20.319000 21.514000 0.000000 # 1 
559 1 1 21.514000 21.514000 0.000000 # 1 
560 2 2 22.709000 21.514000 0.000000 # 2 
561 131 2 23.905001 21.514000 0.000000 # 2 
562 1 1 25.100000 21.514000 0.000000 # 1 
563 1 1 26.295000 21.514000 0.000000 # 1 
564 1 1 27.490000 21.514000 0.000000 # 1 
565 80 2 28.684999 21.514000 0.000000 # 2 
566 1 1 29.881001 21.514000 0.000000 # 1 
567 1 1 31.076000 21.514000 0.000000 # 1 
568 1 1 32.271000 21.514000 0.000000 # 1 
569 1 1 33.466000 21.514000 0.000000 # 1 
570 1 1 34.661999 21.514000 0.000000 # 1 
571 1 1 0.000000 22.709000 0.000000 # 1 
572 1 1 1.195000 22.709000 0.000000 # 1 
573 1 1 2.390000 22.709000 0.000000 # 1 
574 1 1 3.586000 22.709000 0.000000 # 1 
575 1 1 4.781000 22.709000 0.000000 # 1 
576 1 1 5.976000 22.709000 0.000000 # 1 
577 1 1 7.171000 22.709000 0.000000 # 1 
578 1 1 8.367000 22.709000 0.000000 # 1 
579 1 1 9.562000 22.709000 0.000000 # 1 
580 1 1 10.757000 22.709000 0.000000 # 1 
581 1 1 11.952000 22.709000 0.000000 # 1 
582 1 1 13.148000 22.709000 0.000000 # 1 
583 1 1 14.343000 22.709000 0.000000 # 1 
584 1 1 15.538000 22.709000 0.000000 # 1 
585 1 1 16.733000 22.709000 0.000000 # 1 
586 1 1 17.927999 22.709000 0.000000 # 1 
587 101 2 19.124001 22.709000 0.000000 # 2 
588 1 1 20.319000 22.709000 0.000000 # 1 
589 1 1 21.514000 22.709000 0.000000 # 1 
590 1 1 22.709000 22.709000 0.000000 # 1 
591 1 1 23.905001 22.709000 0.000000 # 1 
592 1 1 25.100000 22.709000 0.000000 # 1 
593 127 2 26.295000 22.709000 0.000000 # 2 
594 1 1 27.490000 22.709000 0.000000 # 1 
595 1 1 28.684999 22.709000 0.000000 # 1 
596 1 1 29.881001 22.709000 0.000000 # 1 
597 1 1 31.076000 22.709000 0.000000 # 1 
598 1 1 32.271000 22.709000 0.000000 # 1 
599 1 1 33.466000 22.709000 0.000000 # 1 
600 1 1 34.661999 22.709000 0.000000 # 1 
601 1 1 0.000000 23.905001 0.000000 # 1 
602 1 1 1.195000 23.905001 0.000000 # 1 
603 1 1 2.390000 23.905001 0.000000 # 1 
604 38 2 3.586000 23.905001 0.000000 # 2 
605 1 1 4.781000 23.905001 0.000000 # 1 
606 141 2 5.976000 23.905001 0.000000 # 2 
607 1 1 7.171000 23.905001 0.000000 # 1 
608 1 1 8.367000 23.905001 0.000000 # 1 
609 1 1 9.562000 23.905001 0.000000 # 1 
610 1 1 10.757000 23.905001 0.000000 # 1 
611 1 1 11.952000 23.905001 0.000000 # 1 
612 1 1 13.148000 23.905001 0.000000 # 1 
613 1 1 14.343000 23.905001 0.000000 # 1 
614 1 1 15.538000 23.905001 0.000000 # 1 
615 1 1 16.733000 23.905001 0.000000 # 1 
616 1 1 17.927999 23.905001 0.000000 # 1 
617 1 1 19.124001 23.905001 0.000000 # 1 
618 1 1 20.319000 23.905001 0.000000 # 1 
619 1 1 21.514000 23.905001 0.000000 # 1 
620 1 1 22.709000 23.905001 0.000000 # 1 
621 1 1 23.905001 23.905001 0.000000 # 1 
622 1 1 25.100000 23.905001 0.000000 # 1 
623 1 1 26.295000 23.905001 0.000000 # 1 
624 1 1 27.490000 23.905001 0.000000 # 1 
625 1 1 28.684999 23.905001 0.000000 # 1 
626 142 2 29.881001 23.905001 0.000000 # 2 
627 1 1 31.076000 23.905001 0.000000 # 1 
628 1 1 32.271000 23.905001 0.000000 # 1 
629 1 1 33.466000 23.905001 0.000000 # 1 
630 1 1 34.661999 23.905001 0.000000 # 1 
631 149 2 35.856861 25.100000 0.000000 # 2 
632 1 1 1.195000 25.100000 0.000000 # 1 
633 1 1 2.390000 25.100000 0.000000 # 1 
634 1 1 3.586000 25.100000 0.000000 # 1 
635 1 1 4.781000 25.100000 0.000000 # 1 
636 1 1 5.976000 25.100000 0.000000 # 1 
637 1 1 7.171000 25.100000 0.000000 # 1 
638 1 1 8.367000 25.100000 0.000000 # 1 
639 40 2 9.562000 25.100000 0.000000 # 2 
640 1 1 10.757000 25.100000 0.000000 # 1 
641 1 1 11.952000 25.100000 0.000000 # 1 
642 1 1 13.148000 25.100000 0.000000 # 1 
643 70 2 14.343000 25.100000 0.000000 # 2 
644 1 1 15.538000 25.100000 0.000000 # 1 
645 1 1 16.733000 25.100000 0.000000 # 1 
646 144 2 17.927999 25.100000 0.000000 # 2 
647 99 2 19.124001 25.100000 0.000000 # 2 
648 1 1 20.319000 25.100000 0.000000 # 1 
649 32 2 21.514000 25.100000 0.000000 # 2 
650 139 2 22.709000 25.100000 0.000000 # 2 
651 1 1 23.905001 25.100000 0.000000 # 1 
652 1 1 25.100000 25.100000 0.000000 # 1 
653 1 1 26.295000 25.100000 0.000000 # 1 
654 1 1 27.490000 25.100000 0.000000 # 1 
655 1 1 28.684999 25.100000 0.000000 # 1 
656 1 1 29.881001 25.100000 0.000000 # 1 
657 1 1 31.076000 25.100000 0.000000 # 1 
658 1 1 32.271000 25.100000 0.000000 # 1 
659 1 1 33.466000 25.100000 0.000000 # 1 
660 1 1 34.661999 25.100000 0.000000 # 1 
661 1 1 0.000000 26.295000 0.000000 # 1 
662 1 1 1.195000 26.295000 0.000000 # 1 
663 1 1 2.390000 26.295000 0.000000 # 1 
664 1 1 3.586000 26.295000 0.000000 # 1 
665 1 1 4.781000 26.295000 0.000000 # 1 
666 1 1 5.976000 26.295000 0.000000 # 1 
667 1 1 7.171000 26.295000 0.000000 # 1 
668 1 1 8.367000 26.295000 0.000000 # 1 
669 1 1 9.562000 26.295000 0.000000 # 1 
670 125 2 10.757000 26.295000 0.000000 # 2 
671 1 1 11.952000 26.295000 0.000000 # 1 
672 1 1 13.148000 26.295000 0.000000 # 1 
673 1 1 14.343000 26.295000 0.000000 # 1 
674 1 1 15.538000 26.295000 0.000000 # 1 
675 1 1 16.733000 26.295000 0.000000 # 1 
676 1 1 17.927999 26.295000 0.000000 # 1 
677 1 1 19.124001 26.295000 0.000000 # 1 
678 1 1 20.319000 26.295000 0.000000 # 1 
679 17 2 21.514000 26.295000 0.000000 # 2 
680 1 1 22.709000 26.295000 0.000000 # 1 
681 1 1 23.905001 26.295000 0.000000 # 1 
682 1 1 25.100000 26.295000 0.000000 # 1 
683 1 1 26.295000 26.295000 0.000000 # 1 
684 1 1 27.490000 26.295000 0.000000 # 1 
685 1 1 28.684999 26.295000 0.000000 # 1 
686 1 1 29.881001 26.295000 0.000000 # 1 
687 1 1 31.076000 26.295000 0.000000 # 1 
688 1 1 32.271000 26.295000 0.000000 # 1 
689 1 1 33.466000 26.295000 0.000000 # 1 
690 1 1 34.661999 26.295000 0.000000 # 1 
691 1 1 0.000000 27.490000 0.000000 # 1 
692 1 1 1.195000 27.490000 0.000000 # 1 
693 1 1 2.390000 27.490000 0.000000 # 1 
694 1 1 3.586000 27.490000 0.000000 # 1 
695 1 1 4.781000 27.490000 0.000000 # 1 
696 1 1 5.976000 27.490000 0.000000 # 1 
697 1 1 7.171000 27.490000 0.000000 # 1 
698 1 1 8.367000 27.490000 0.000000 # 1 
699 1 1 9.562000 27.490000 0.000000 # 1 
700 1 1 10.757000 27.490000 0.000000 # 1 
701 1 1 11.952000 27.490000 0.000000 # 1 
702 1 1 13.148000 27.490000 0.000000 # 1 
703 67 2 14.343000 27.490000 0.000000 # 2 
704 1 1 15.538000 27.490000 0.000000 # 1 
705 1 1 16.733000 27.490000 0.000000 # 1 
706 1 1 17.927999 27.490000 0.000000 # 1 
707 1 1 19.124001 27.490000 0.000000 # 1 
708 136 2 20.319000 27.490000 0.000000 # 2 
709 1 1 21.514000 27.490000 0.000000 # 1 
710 1 1 22.709000 27.490000 0.000000 # 1 
711 1 1 23.905001 27.490000 0.000000 # 1 
712 1 1 25.100000 27.490000 0.000000 # 1 