LAMMPS data file from restart file: timestep = 10000, procs = 1

2304 atoms

1 atom types

-6.4859999999999999e+01 6.4859999999999999e+01 xlo xhi
-6.4859999999999999e+01 6.4859999999999999e+01 ylo yhi
-1.0810000000000000e+01 1.0810000000000000e+01 zlo zhi

Masses

1 39.95

Pair Coeffs

1 0.238 3.405

Atoms

1 1 -3.1078749999999999e+01 -3.1078749999999999e+01 -9.4587500000000002e+00 -512 -512 -512
2 1 -2.8376250000000002e+01 -2.8376250000000002e+01 -9.4587500000000002e+00 -512 -512 -512
3 1 -2.8376250000000002e+01 -3.1078749999999999e+01 -6.7562499999999996e+00 -512 -512 -512
4 1 -3.1078749999999999e+01 -2.8376250000000002e+01 -6.7562499999999996e+00 -512 -512 -512
5 1 -2.5673750000000002e+01 -3.1078749999999999e+01 -9.4587500000000002e+00 -512 -512 -512
8 1 -2.5673750000000002e+01 -2.8376250000000002e+01 -6.7562499999999996e+00 -512 -512 -512
49 1 -3.1078749999999999e+01 -2.5673750000000002e+01 -9.4587500000000002e+00 -512 -512 -512
51 1 -2.8376250000000002e+01 -2.5673750000000002e+01 -6.7562499999999996e+00 -512 -512 -512
53 1 -2.5673750000000002e+01 -2.5673750000000002e+01 -9.4587500000000002e+00 -512 -512 -512
577 1 -3.1078749999999999e+01 -3.1078749999999999e+01 -4.0537500000000000e+00 -512 -512 -512
578 1 -2.8376250000000002e+01 -2.8376250000000002e+01 -4.0537500000000000e+00 -512 -512 -512
579 1 -2.8376250000000002e+01 -3.1078749999999999e+01 -1.3512500000000001e+00 -512 -512 -512
580 1 -3.1078749999999999e+01 -2.8376250000000002e+01 -1.3512500000000001e+00 -512 -512 -512
581 1 -2.5673750000000002e+01 -3.1078749999999999e+01 -4.0537500000000000e+00 -512 -512 -512
584 1 -2.5673750000000002e+01 -2.8376250000000002e+01 -1.3512500000000001e+00 -512 -512 -512
625 1 -3.1078749999999999e+01 -2.5673750000000002e+01 -4.0537500000000000e+00 -512 -512 -512
627 1 -2.8376250000000002e+01 -2.5673750000000002e+01 -1.3512500000000001e+00 -512 -512 -512
629 1 -2.5673750000000002e+01 -2.5673750000000002e+01 -4.0537500000000000e+00 -512 -512 -512
6 1 -2.2971250000000001e+01 -2.8376250000000002e+01 -9.4587500000000002e+00 -512 -512 -512
7 1 -2.2971250000000001e+01 -3.1078749999999999e+01 -6.7562499999999996e+00 -512 -512 -512
9 1 -2.0268750000000001e+01 -3.1078749999999999e+01 -9.4587500000000002e+00 -512 -512 -512
10 1 -1.7566250000000000e+01 -2.8376250000000002e+01 -9.4587500000000002e+00 -512 -512 -512
11 1 -1.7566250000000000e+01 -3.1078749999999999e+01 -6.7562499999999996e+00 -512 -512 -512
12 1 -2.0268750000000001e+01 -2.8376250000000002e+01 -6.7562499999999996e+00 -512 -512 -512
55 1 -2.2971250000000001e+01 -2.5673750000000002e+01 -6.7562499999999996e+00 -512 -512 -512
57 1 -2.0268750000000001e+01 -2.5673750000000002e+01 -9.4587500000000002e+00 -512 -512 -512
59 1 -1.7566250000000000e+01 -2.5673750000000002e+01 -6.7562499999999996e+00 -512 -512 -512
582 1 -2.2971250000000001e+01 -2.8376250000000002e+01 -4.0537500000000000e+00 -512 -512 -512
583 1 -2.2971250000000001e+01 -3.1078749999999999e+01 -1.3512500000000001e+00 -512 -512 -512
585 1 -2.0268750000000001e+01 -3.1078749999999999e+01 -4.0537500000000000e+00 -512 -512 -512
586 1 -1.7566250000000000e+01 -2.8376250000000002e+01 -4.0537500000000000e+00 -512 -512 -512
587 1 -1.7566250000000000e+01 -3.1078749999999999e+01 -1.3512500000000001e+00 -512 -512 -512
588 1 -2.0268750000000001e+01 -2.8376250000000002e+01 -1.3512500000000001e+00 -512 -512 -512
631 1 -2.2971250000000001e+01 -2.5673750000000002e+01 -1.3512500000000001e+00 -512 -512 -512
633 1 -2.0268750000000001e+01 -2.5673750000000002e+01 -4.0537500000000000e+00 -512 -512 -512
635 1 -1.7566250000000000e+01 -2.5673750000000002e+01 -1.3512500000000001e+00 -512 -512 -512
13 1 -1.4863750000000000e+01 -3.1078749999999999e+01 -9.4587500000000002e+00 -512 -512 -512
14 1 -1.2161250000000001e+01 -2.8376250000000002e+01 -9.4587500000000002e+00 -512 -512 -512
15 1 -1.2161250000000001e+01 -3.1078749999999999e+01 -6.7562499999999996e+00 -512 -512 -512
16 1 -1.4863750000000000e+01 -2.8376250000000002e+01 -6.7562499999999996e+00 -512 -512 -512
17 1 -9.4587500000000002e+00 -3.1078749999999999e+01 -9.4587500000000002e+00 -512 -512 -512
20 1 -9.4587500000000002e+00 -2.8376250000000002e+01 -6.7562499999999996e+00 -512 -512 -512
61 1 -1.4863750000000000e+01 -2.5673750000000002e+01 -9.4587500000000002e+00 -512 -512 -512
63 1 -1.2161250000000001e+01 -2.5673750000000002e+01 -6.7562499999999996e+00 -512 -512 -512
65 1 -9.4587500000000002e+00 -2.5673750000000002e+01 -9.4587500000000002e+00 -512 -512 -512
589 1 -1.4863750000000000e+01 -3.1078749999999999e+01 -4.0537500000000000e+00 -512 -512 -512
590 1 -1.2161250000000001e+01 -2.8376250000000002e+01 -4.0537500000000000e+00 -512 -512 -512
591 1 -1.2161250000000001e+01 -3.1078749999999999e+01 -1.3512500000000001e+00 -512 -512 -512
592 1 -1.4863750000000000e+01 -2.8376250000000002e+01 -1.3512500000000001e+00 -512 -512 -512
593 1 -9.4587500000000002e+00 -3.1078749999999999e+01 -4.0537500000000000e+00 -512 -512 -512
596 1 -9.4587500000000002e+00 -2.8376250000000002e+01 -1.3512500000000001e+00 -512 -512 -512
637 1 -1.4863750000000000e+01 -2.5673750000000002e+01 -4.0537500000000000e+00 -512 -512 -512
639 1 -1.2161250000000001e+01 -2.5673750000000002e+01 -1.3512500000000001e+00 -512 -512 -512
641 1 -9.4587500000000002e+00 -2.5673750000000002e+01 -4.0537500000000000e+00 -512 -512 -512
18 1 -6.7562499999999996e+00 -2.8376250000000002e+01 -9.4587500000000002e+00 -512 -512 -512
19 1 -6.7562499999999996e+00 -3.1078749999999999e+01 -6.7562499999999996e+00 -512 -512 -512
21 1 -4.0537500000000000e+00 -3.1078749999999999e+01 -9.4587500000000002e+00 -512 -512 -512
22 1 -1.3512500000000001e+00 -2.8376250000000002e+01 -9.4587500000000002e+00 -512 -512 -512
23 1 -1.3512500000000001e+00 -3.1078749999999999e+01 -6.7562499999999996e+00 -512 -512 -512
24 1 -4.0537500000000000e+00 -2.8376250000000002e+01 -6.7562499999999996e+00 -512 -512 -512
67 1 -6.7562499999999996e+00 -2.5673750000000002e+01 -6.7562499999999996e+00 -512 -512 -512
69 1 -4.0537500000000000e+00 -2.5673750000000002e+01 -9.4587500000000002e+00 -512 -512 -512
71 1 -1.3512500000000001e+00 -2.5673750000000002e+01 -6.7562499999999996e+00 -512 -512 -512
594 1 -6.7562499999999996e+00 -2.8376250000000002e+01 -4.0537500000000000e+00 -512 -512 -512
595 1 -6.7562499999999996e+00 -3.1078749999999999e+01 -1.3512500000000001e+00 -512 -512 -512
597 1 -4.0537500000000000e+00 -3.1078749999999999e+01 -4.0537500000000000e+00 -512 -512 -512
598 1 -1.3512500000000001e+00 -2.8376250000000002e+01 -4.0537500000000000e+00 -512 -512 -512
599 1 -1.3512500000000001e+00 -3.1078749999999999e+01 -1.3512500000000001e+00 -512 -512 -512
600 1 -4.0537500000000000e+00 -2.8376250000000002e+01 -1.3512500000000001e+00 -512 -512 -512
643 1 -6.7562499999999996e+00 -2.5673750000000002e+01 -1.3512500000000001e+00 -512 -512 -512
645 1 -4.0537500000000000e+00 -2.5673750000000002e+01 -4.0537500000000000e+00 -512 -512 -512
647 1 -1.3512500000000001e+00 -2.5673750000000002e+01 -1.3512500000000001e+00 -512 -512 -512
25 1 1.3512500000000001e+00 -3.1078749999999999e+01 -9.4587500000000002e+00 -512 -512 -512
26 1 4.0537500000000000e+00 -2.8376250000000002e+01 -9.4587500000000002e+00 -512 -512 -512
27 1 4.0537500000000000e+00 -3.1078749999999999e+01 -6.7562499999999996e+00 -512 -512 -512
28 1 1.3512500000000001e+00 -2.8376250000000002e+01 -6.7562499999999996e+00 -512 -512 -512
29 1 6.7562500000000005e+00 -3.1078749999999999e+01 -9.4587500000000002e+00 -512 -512 -512
32 1 6.7562500000000005e+00 -2.8376250000000002e+01 -6.7562499999999996e+00 -512 -512 -512
73 1 1.3512500000000001e+00 -2.5673750000000002e+01 -9.4587500000000002e+00 -512 -512 -512
75 1 4.0537500000000000e+00 -2.5673750000000002e+01 -6.7562499999999996e+00 -512 -512 -512
77 1 6.7562500000000005e+00 -2.5673750000000002e+01 -9.4587500000000002e+00 -512 -512 -512
601 1 1.3512500000000001e+00 -3.1078749999999999e+01 -4.0537500000000000e+00 -512 -512 -512
602 1 4.0537500000000000e+00 -2.8376250000000002e+01 -4.0537500000000000e+00 -512 -512 -512
603 1 4.0537500000000000e+00 -3.1078749999999999e+01 -1.3512500000000001e+00 -512 -512 -512
604 1 1.3512500000000001e+00 -2.8376250000000002e+01 -1.3512500000000001e+00 -512 -512 -512
605 1 6.7562500000000005e+00 -3.1078749999999999e+01 -4.0537500000000000e+00 -512 -512 -512
608 1 6.7562500000000005e+00 -2.8376250000000002e+01 -1.3512500000000001e+00 -512 -512 -512
649 1 1.3512500000000001e+00 -2.5673750000000002e+01 -4.0537500000000000e+00 -512 -512 -512
651 1 4.0537500000000000e+00 -2.5673750000000002e+01 -1.3512500000000001e+00 -512 -512 -512
653 1 6.7562500000000005e+00 -2.5673750000000002e+01 -4.0537500000000000e+00 -512 -512 -512
30 1 9.4587500000000002e+00 -2.8376250000000002e+01 -9.4587500000000002e+00 -512 -512 -512
31 1 9.4587500000000002e+00 -3.1078749999999999e+01 -6.7562499999999996e+00 -512 -512 -512
33 1 1.2161250000000001e+01 -3.1078749999999999e+01 -9.4587500000000002e+00 -512 -512 -512
34 1 1.4863750000000001e+01 -2.8376250000000002e+01 -9.4587500000000002e+00 -512 -512 -512
35 1 1.4863750000000001e+01 -3.1078749999999999e+01 -6.7562499999999996e+00 -512 -512 -512
36 1 1.2161250000000001e+01 -2.8376250000000002e+01 -6.7562499999999996e+00 -512 -512 -512
79 1 9.4587500000000002e+00 -2.5673750000000002e+01 -6.7562499999999996e+00 -512 -512 -512
81 1 1.2161250000000001e+01 -2.5673750000000002e+01 -9.4587500000000002e+00 -512 -512 -512
83 1 1.4863750000000001e+01 -2.5673750000000002e+01 -6.7562499999999996e+00 -512 -512 -512
606 1 9.4587500000000002e+00 -2.8376250000000002e+01 -4.0537500000000000e+00 -512 -512 -512
607 1 9.4587500000000002e+00 -3.1078749999999999e+01 -1.3512500000000001e+00 -512 -512 -512
609 1 1.2161250000000001e+01 -3.1078749999999999e+01 -4.0537500000000000e+00 -512 -512 -512
610 1 1.4863750000000001e+01 -2.8376250000000002e+01 -4.0537500000000000e+00 -512 -512 -512
611 1 1.4863750000000001e+01 -3.1078749999999999e+01 -1.3512500000000001e+00 -512 -512 -512
612 1 1.2161250000000001e+01 -2.8376250000000002e+01 -1.3512500000000001e+00 -512 -512 -512
655 1 9.4587500000000002e+00 -2.5673750000000002e+01 -1.3512500000000001e+00 -512 -512 -512
657 1 1.2161250000000001e+01 -2.5673750000000002e+01 -4.0537500000000000e+00 -512 -512 -512
659 1 1.4863750000000001e+01 -2.5673750000000002e+01 -1.3512500000000001e+00 -512 -512 -512
37 1 1.7566250000000000e+01 -3.1078749999999999e+01 -9.4587500000000002e+00 -512 -512 -512
38 1 2.0268750000000001e+01 -2.8376250000000002e+01 -9.4587500000000002e+00 -512 -512 -512
39 1 2.0268750000000001e+01 -3.1078749999999999e+01 -6.7562499999999996e+00 -512 -512 -512
40 1 1.7566250000000000e+01 -2.8376250000000002e+01 -6.7562499999999996e+00 -512 -512 -512
41 1 2.2971250000000001e+01 -3.1078749999999999e+01 -9.4587500000000002e+00 -512 -512 -512
44 1 2.2971250000000001e+01 -2.8376250000000002e+01 -6.7562499999999996e+00 -512 -512 -512
85 1 1.7566250000000000e+01 -2.5673750000000002e+01 -9.4587500000000002e+00 -512 -512 -512
87 1 2.0268750000000001e+01 -2.5673750000000002e+01 -6.7562499999999996e+00 -512 -512 -512
89 1 2.2971250000000001e+01 -2.5673750000000002e+01 -9.4587500000000002e+00 -512 -512 -512
613 1 1.7566250000000000e+01 -3.1078749999999999e+01 -4.0537500000000000e+00 -512 -512 -512
614 1 2.0268750000000001e+01 -2.8376250000000002e+01 -4.0537500000000000e+00 -512 -512 -512
615 1 2.0268750000000001e+01 -3.1078749999999999e+01 -1.3512500000000001e+00 -512 -512 -512
616 1 1.7566250000000000e+01 -2.8376250000000002e+01 -1.3512500000000001e+00 -512 -512 -512
617 1 2.2971250000000001e+01 -3.1078749999999999e+01 -4.0537500000000000e+00 -512 -512 -512
620 1 2.2971250000000001e+01 -2.8376250000000002e+01 -1.3512500000000001e+00 -512 -512 -512
661 1 1.7566250000000000e+01 -2.5673750000000002e+01 -4.0537500000000000e+00 -512 -512 -512
663 1 2.0268750000000001e+01 -2.5673750000000002e+01 -1.3512500000000001e+00 -512 -512 -512
665 1 2.2971250000000001e+01 -2.5673750000000002e+01 -4.0537500000000000e+00 -512 -512 -512
42 1 2.5673750000000002e+01 -2.8376250000000002e+01 -9.4587500000000002e+00 -512 -512 -512
43 1 2.5673750000000002e+01 -3.1078749999999999e+01 -6.7562499999999996e+00 -512 -512 -512
45 1 2.8376250000000002e+01 -3.1078749999999999e+01 -9.4587500000000002e+00 -512 -512 -512
46 1 3.1078750000000003e+01 -2.8376250000000002e+01 -9.4587500000000002e+00 -512 -512 -512
47 1 3.1078750000000003e+01 -3.1078749999999999e+01 -6.7562499999999996e+00 -512 -512 -512
48 1 2.8376250000000002e+01 -2.8376250000000002e+01 -6.7562499999999996e+00 -512 -512 -512
91 1 2.5673750000000002e+01 -2.5673750000000002e+01 -6.7562499999999996e+00 -512 -512 -512
93 1 2.8376250000000002e+01 -2.5673750000000002e+01 -9.4587500000000002e+00 -512 -512 -512
95 1 3.1078750000000003e+01 -2.5673750000000002e+01 -6.7562499999999996e+00 -512 -512 -512
618 1 2.5673750000000002e+01 -2.8376250000000002e+01 -4.0537500000000000e+00 -512 -512 -512
619 1 2.5673750000000002e+01 -3.1078749999999999e+01 -1.3512500000000001e+00 -512 -512 -512
621 1 2.8376250000000002e+01 -3.1078749999999999e+01 -4.0537500000000000e+00 -512 -512 -512
622 1 3.1078750000000003e+01 -2.8376250000000002e+01 -4.0537500000000000e+00 -512 -512 -512
623 1 3.1078750000000003e+01 -3.1078749999999999e+01 -1.3512500000000001e+00 -512 -512 -512
624 1 2.8376250000000002e+01 -2.8376250000000002e+01 -1.3512500000000001e+00 -512 -512 -512
667 1 2.5673750000000002e+01 -2.5673750000000002e+01 -1.3512500000000001e+00 -512 -512 -512
669 1 2.8376250000000002e+01 -2.5673750000000002e+01 -4.0537500000000000e+00 -512 -512 -512
671 1 3.1078750000000003e+01 -2.5673750000000002e+01 -1.3512500000000001e+00 -512 -512 -512
50 1 -2.8376250000000002e+01 -2.2971250000000001e+01 -9.4587500000000002e+00 -512 -512 -512
52 1 -3.1078749999999999e+01 -2.2971250000000001e+01 -6.7562499999999996e+00 -512 -512 -512
56 1 -2.5673750000000002e+01 -2.2971250000000001e+01 -6.7562499999999996e+00 -512 -512 -512
97 1 -3.1078749999999999e+01 -2.0268750000000001e+01 -9.4587500000000002e+00 -512 -512 -512
98 1 -2.8376250000000002e+01 -1.7566250000000000e+01 -9.4587500000000002e+00 -512 -512 -512
99 1 -2.8376250000000002e+01 -2.0268750000000001e+01 -6.7562499999999996e+00 -512 -512 -512
100 1 -3.1078749999999999e+01 -1.7566250000000000e+01 -6.7562499999999996e+00 -512 -512 -512
101 1 -2.5673750000000002e+01 -2.0268750000000001e+01 -9.4587500000000002e+00 -512 -512 -512
104 1 -2.5673750000000002e+01 -1.7566250000000000e+01 -6.7562499999999996e+00 -512 -512 -512
626 1 -2.8376250000000002e+01 -2.2971250000000001e+01 -4.0537500000000000e+00 -512 -512 -512
628 1 -3.1078749999999999e+01 -2.2971250000000001e+01 -1.3512500000000001e+00 -512 -512 -512
632 1 -2.5673750000000002e+01 -2.2971250000000001e+01 -1.3512500000000001e+00 -512 -512 -512
673 1 -3.1078749999999999e+01 -2.0268750000000001e+01 -4.0537500000000000e+00 -512 -512 -512
674 1 -2.8376250000000002e+01 -1.7566250000000000e+01 -4.0537500000000000e+00 -512 -512 -512
675 1 -2.8376250000000002e+01 -2.0268750000000001e+01 -1.3512500000000001e+00 -512 -512 -512
676 1 -3.1078749999999999e+01 -1.7566250000000000e+01 -1.3512500000000001e+00 -512 -512 -512
677 1 -2.5673750000000002e+01 -2.0268750000000001e+01 -4.0537500000000000e+00 -512 -512 -512
680 1 -2.5673750000000002e+01 -1.7566250000000000e+01 -1.3512500000000001e+00 -512 -512 -512
54 1 -2.2971250000000001e+01 -2.2971250000000001e+01 -9.4587500000000002e+00 -512 -512 -512
58 1 -1.7566250000000000e+01 -2.2971250000000001e+01 -9.4587500000000002e+00 -512 -512 -512
60 1 -2.0268750000000001e+01 -2.2971250000000001e+01 -6.7562499999999996e+00 -512 -512 -512
102 1 -2.2971250000000001e+01 -1.7566250000000000e+01 -9.4587500000000002e+00 -512 -512 -512
103 1 -2.2971250000000001e+01 -2.0268750000000001e+01 -6.7562499999999996e+00 -512 -512 -512
105 1 -2.0319723875845273e+01 -2.0114364106853351e+01 -9.1450775471520025e+00 -512 -512 -512
106 1 -1.7533461932600833e+01 -1.7411994746360197e+01 -9.2010316634253222e+00 -512 -512 -512
107 1 -1.7611137081944406e+01 -2.0230865353959700e+01 -6.5955265247821719e+00 -512 -512 -512
108 1 -2.0260771821237046e+01 -1.7440049232368331e+01 -6.6576308411883822e+00 -512 -512 -512
630 1 -2.2971250000000001e+01 -2.2971250000000001e+01 -4.0537500000000000e+00 -512 -512 -512
634 1 -1.7566250000000000e+01 -2.2971250000000001e+01 -4.0537500000000000e+00 -512 -512 -512
636 1 -2.0268750000000001e+01 -2.2971250000000001e+01 -1.3512500000000001e+00 -512 -512 -512
678 1 -2.2971250000000001e+01 -1.7566250000000000e+01 -4.0537500000000000e+00 -512 -512 -512
679 1 -2.2971250000000001e+01 -2.0268750000000001e+01 -1.3512500000000001e+00 -512 -512 -512
681 1 -2.0236652800704292e+01 -2.0195363980588084e+01 -4.0575419742110856e+00 -512 -512 -512
682 1 -1.7565289744703463e+01 -1.7489898181181630e+01 -3.8843131765308310e+00 -512 -512 -512
683 1 -1.7429075869895517e+01 -2.0412203776648983e+01 -1.5054724996187614e+00 -512 -512 -512
684 1 -2.0303725350410790e+01 -1.7367269786294301e+01 -1.3586815538493724e+00 -512 -512 -512
62 1 -1.2161250000000001e+01 -2.2971250000000001e+01 -9.4587500000000002e+00 -512 -512 -512
64 1 -1.4863750000000000e+01 -2.2971250000000001e+01 -6.7562499999999996e+00 -512 -512 -512
68 1 -9.4587500000000002e+00 -2.2971250000000001e+01 -6.7562499999999996e+00 -512 -512 -512
109 1 -1.4824647165859854e+01 -1.9997032252270849e+01 -9.4513084524814079e+00 -512 -512 -512
110 1 -1.2083385394504809e+01 -1.7362120860739900e+01 -9.0140007824101005e+00 -512 -512 -512
111 1 -1.2163432510176627e+01 -2.0360986058476076e+01 -6.8960764681417741e+00 -512 -512 -512
112 1 -1.4954783023038855e+01 -1.7427341733191593e+01 -6.6171493864178297e+00 -512 -512 -512
113 1 -9.3450075690238279e+00 -2.0265931738844991e+01 -9.3995839255468994e+00 -512 -512 -512
116 1 -9.4390536305463915e+00 -1.7499322327429937e+01 -6.4911683535713234e+00 -512 -512 -512
638 1 -1.2161250000000001e+01 -2.2971250000000001e+01 -4.0537500000000000e+00 -512 -512 -512
640 1 -1.4863750000000000e+01 -2.2971250000000001e+01 -1.3512500000000001e+00 -512 -512 -512
644 1 -9.4587500000000002e+00 -2.2971250000000001e+01 -1.3512500000000001e+00 -512 -512 -512
685 1 -1.4808955607849375e+01 -2.0469795017536008e+01 -4.0973949552082951e+00 -512 -512 -512
686 1 -1.2163505361770877e+01 -1.7740262071916348e+01 -4.0666840157232862e+00 -512 -512 -512
687 1 -1.2140217194441862e+01 -2.0344272195109763e+01 -1.3727735794024891e+00 -512 -512 -512
688 1 -1.4728657901963118e+01 -1.7651583169361299e+01 -1.4081191556803188e+00 -512 -512 -512
689 1 -9.3770865494606728e+00 -2.0404412690659441e+01 -3.9079651408306297e+00 -512 -512 -512
692 1 -9.6266444701976361e+00 -1.7673319672331669e+01 -1.4540491546755978e+00 -512 -512 -512
66 1 -6.7562499999999996e+00 -2.2971250000000001e+01 -9.4587500000000002e+00 -512 -512 -512
70 1 -1.3512500000000001e+00 -2.2971250000000001e+01 -9.4587500000000002e+00 -512 -512 -512
72 1 -4.0537500000000000e+00 -2.2971250000000001e+01 -6.7562499999999996e+00 -512 -512 -512
114 1 -6.9362159448845970e+00 -1.7410643822061783e+01 -9.2828283372482829e+00 -512 -512 -512
115 1 -6.7144145352695892e+00 -2.0219563906198641e+01 -6.4927629991173639e+00 -512 -512 -512
117 1 -4.2440407450022679e+00 -1.9981099086074561e+01 -9.1938410253071723e+00 -512 -512 -512
118 1 -1.3824411400637060e+00 -1.7616288380533785e+01 -9.3970965299580023e+00 -512 -512 -512
119 1 -1.3339723788320252e+00 -2.0310074539065386e+01 -6.7630365509548733e+00 -512 -512 -512
120 1 -3.9241083432327115e+00 -1.7514718094688675e+01 -6.4983448387641012e+00 -512 -512 -512
642 1 -6.7562499999999996e+00 -2.2971250000000001e+01 -4.0537500000000000e+00 -512 -512 -512
646 1 -1.3512500000000001e+00 -2.2971250000000001e+01 -4.0537500000000000e+00 -512 -512 -512
648 1 -4.0537500000000000e+00 -2.2971250000000001e+01 -1.3512500000000001e+00 -512 -512 -512
690 1 -6.7958623928624284e+00 -1.7760137939376104e+01 -3.9099888300408154e+00 -512 -512 -512
691 1 -6.6705017201644230e+00 -2.0352671415278344e+01 -1.2734865782983769e+00 -512 -512 -512
693 1 -4.0015456139156127e+00 -2.0224085214761949e+01 -4.1210515745340421e+00 -512 -512 -512
694 1 -1.4882403459143119e+00 -1.7637277077440697e+01 -3.9561730642409896e+00 -512 -512 -512
695 1 -1.4059163704495570e+00 -2.0297634378207487e+01 -1.2271109934025251e+00 -512 -512 -512
696 1 -3.9485932841356357e+00 -1.7574290949890347e+01 -1.2029200362180537e+00 -512 -512 -512
74 1 4.0537500000000000e+00 -2.2971250000000001e+01 -9.4587500000000002e+00 -512 -512 -512
76 1 1.3512500000000001e+00 -2.2971250000000001e+01 -6.7562499999999996e+00 -512 -512 -512
80 1 6.7562500000000005e+00 -2.2971250000000001e+01 -6.7562499999999996e+00 -512 -512 -512
121 1 1.2802185035723943e+00 -2.0264284023663453e+01 -9.3305856641064437e+00 -512 -512 -512
122 1 3.8335725068926449e+00 -1.7582067749904162e+01 -9.6042496825050936e+00 -512 -512 -512
123 1 3.8149734992513702e+00 -2.0203371318518435e+01 -6.7357096787394060e+00 -512 -512 -512
124 1 1.2863656941798487e+00 -1.7523527770851352e+01 -6.5469602069342159e+00 -512 -512 -512
125 1 6.7797086954072192e+00 -2.0244021496780956e+01 -9.3802705271798850e+00 -512 -512 -512
128 1 6.7906184866647425e+00 -1.7548089722555982e+01 -6.6593744975117231e+00 -512 -512 -512
650 1 4.0537500000000000e+00 -2.2971250000000001e+01 -4.0537500000000000e+00 -512 -512 -512
652 1 1.3512500000000001e+00 -2.2971250000000001e+01 -1.3512500000000001e+00 -512 -512 -512
656 1 6.7562500000000005e+00 -2.2971250000000001e+01 -1.3512500000000001e+00 -512 -512 -512
697 1 1.1327206656262430e+00 -2.0165495593972732e+01 -3.9801300220561107e+00 -512 -512 -512
698 1 4.0797692992552301e+00 -1.7741496200727585e+01 -4.0974957441311908e+00 -512 -512 -512
699 1 4.2479606053896068e+00 -2.0339583947675195e+01 -1.4202028961179645e+00 -512 -512 -512
700 1 1.4795345958669084e+00 -1.7596021352668934e+01 -1.3477920056644377e+00 -512 -512 -512
701 1 6.7836713192178779e+00 -2.0161833478796442e+01 -4.2665315567500564e+00 -512 -512 -512
704 1 6.5902987714892625e+00 -1.7750015267326930e+01 -1.3630616529997595e+00 -512 -512 -512
78 1 9.4587500000000002e+00 -2.2971250000000001e+01 -9.4587500000000002e+00 -512 -512 -512
82 1 1.4863750000000001e+01 -2.2971250000000001e+01 -9.4587500000000002e+00 -512 -512 -512
84 1 1.2161250000000001e+01 -2.2971250000000001e+01 -6.7562499999999996e+00 -512 -512 -512
126 1 9.6032972392535054e+00 -1.7641116443242915e+01 -9.5588174558165235e+00 -512 -512 -512
127 1 9.5452091245871387e+00 -2.0150831281340015e+01 -6.7545532550410066e+00 -512 -512 -512
129 1 1.2162962703192578e+01 -2.0410520315811290e+01 -9.6534383443570349e+00 -512 -512 -512
130 1 1.5052421747423507e+01 -1.7756117674531353e+01 -9.2945783434745444e+00 -512 -512 -512
131 1 1.4984488944126594e+01 -2.0251464658515410e+01 -6.6300723687074861e+00 -512 -512 -512
132 1 1.2125880919972941e+01 -1.7681353975428824e+01 -6.8913006870379672e+00 -512 -512 -512
654 1 9.4587500000000002e+00 -2.2971250000000001e+01 -4.0537500000000000e+00 -512 -512 -512
658 1 1.4863750000000001e+01 -2.2971250000000001e+01 -4.0537500000000000e+00 -512 -512 -512
660 1 1.2161250000000001e+01 -2.2971250000000001e+01 -1.3512500000000001e+00 -512 -512 -512
702 1 9.3652137407956193e+00 -1.7729821295301925e+01 -3.9120171614323236e+00 -512 -512 -512
703 1 9.3537222475759467e+00 -2.0354415862912795e+01 -1.2558000746859055e+00 -512 -512 -512
705 1 1.2091942056813608e+01 -2.0355452560223213e+01 -3.8987295464122944e+00 -512 -512 -512
706 1 1.4519348388187012e+01 -1.7586911470266827e+01 -4.0687611432621926e+00 -512 -512 -512
707 1 1.4781515215039088e+01 -2.0253795811122128e+01 -1.4318356956728910e+00 -512 -512 -512
708 1 1.2088179096465518e+01 -1.7501992205441347e+01 -1.1466608965087350e+00 -512 -512 -512
86 1 2.0268750000000001e+01 -2.2971250000000001e+01 -9.4587500000000002e+00 -512 -512 -512
88 1 1.7566250000000000e+01 -2.2971250000000001e+01 -6.7562499999999996e+00 -512 -512 -512
92 1 2.2971250000000001e+01 -2.2971250000000001e+01 -6.7562499999999996e+00 -512 -512 -512
133 1 1.7746131489840128e+01 -2.0158230085973045e+01 -9.4157525566197275e+00 -512 -512 -512
134 1 2.0102811273286690e+01 -1.7269709285851448e+01 -9.3289520953035314e+00 -512 -512 -512
135 1 2.0284660620820826e+01 -2.0264630191253389e+01 -6.7258447272499495e+00 -512 -512 -512
136 1 1.7434975553395290e+01 -1.7553327366463773e+01 -6.5205742271018066e+00 -512 -512 -512
137 1 2.2971250000000001e+01 -2.0268750000000001e+01 -9.4587500000000002e+00 -512 -512 -512
140 1 2.2971250000000001e+01 -1.7566250000000000e+01 -6.7562499999999996e+00 -512 -512 -512
662 1 2.0268750000000001e+01 -2.2971250000000001e+01 -4.0537500000000000e+00 -512 -512 -512
664 1 1.7566250000000000e+01 -2.2971250000000001e+01 -1.3512500000000001e+00 -512 -512 -512
668 1 2.2971250000000001e+01 -2.2971250000000001e+01 -1.3512500000000001e+00 -512 -512 -512
709 1 1.7569954532429829e+01 -2.0187154366997479e+01 -3.8644841344556808e+00 -512 -512 -512
710 1 2.0443419910214850e+01 -1.7630722634095147e+01 -4.2224826754539020e+00 -512 -512 -512
711 1 2.0187918139892478e+01 -1.9879098129688177e+01 -1.3944352544273162e+00 -512 -512 -512
712 1 1.7237887383900027e+01 -1.7405289496559643e+01 -1.2568884118740462e+00 -512 -512 -512
713 1 2.2971250000000001e+01 -2.0268750000000001e+01 -4.0537500000000000e+00 -512 -512 -512
716 1 2.2971250000000001e+01 -1.7566250000000000e+01 -1.3512500000000001e+00 -512 -512 -512
90 1 2.5673750000000002e+01 -2.2971250000000001e+01 -9.4587500000000002e+00 -512 -512 -512
94 1 3.1078750000000003e+01 -2.2971250000000001e+01 -9.4587500000000002e+00 -512 -512 -512
96 1 2.8376250000000002e+01 -2.2971250000000001e+01 -6.7562499999999996e+00 -512 -512 -512
138 1 2.5673750000000002e+01 -1.7566250000000000e+01 -9.4587500000000002e+00 -512 -512 -512
139 1 2.5673750000000002e+01 -2.0268750000000001e+01 -6.7562499999999996e+00 -512 -512 -512
141 1 2.8376250000000002e+01 -2.0268750000000001e+01 -9.4587500000000002e+00 -512 -512 -512
142 1 3.1078750000000003e+01 -1.7566250000000000e+01 -9.4587500000000002e+00 -512 -512 -512
143 1 3.1078750000000003e+01 -2.0268750000000001e+01 -6.7562499999999996e+00 -512 -512 -512
144 1 2.8376250000000002e+01 -1.7566250000000000e+01 -6.7562499999999996e+00 -512 -512 -512
666 1 2.5673750000000002e+01 -2.2971250000000001e+01 -4.0537500000000000e+00 -512 -512 -512
670 1 3.1078750000000003e+01 -2.2971250000000001e+01 -4.0537500000000000e+00 -512 -512 -512
672 1 2.8376250000000002e+01 -2.2971250000000001e+01 -1.3512500000000001e+00 -512 -512 -512
714 1 2.5673750000000002e+01 -1.7566250000000000e+01 -4.0537500000000000e+00 -512 -512 -512
715 1 2.5673750000000002e+01 -2.0268750000000001e+01 -1.3512500000000001e+00 -512 -512 -512
717 1 2.8376250000000002e+01 -2.0268750000000001e+01 -4.0537500000000000e+00 -512 -512 -512
718 1 3.1078750000000003e+01 -1.7566250000000000e+01 -4.0537500000000000e+00 -512 -512 -512
719 1 3.1078750000000003e+01 -2.0268750000000001e+01 -1.3512500000000001e+00 -512 -512 -512
720 1 2.8376250000000002e+01 -1.7566250000000000e+01 -1.3512500000000001e+00 -512 -512 -512
145 1 -3.1078749999999999e+01 -1.4863750000000000e+01 -9.4587500000000002e+00 -512 -512 -512
146 1 -2.8376250000000002e+01 -1.2161250000000001e+01 -9.4587500000000002e+00 -512 -512 -512
147 1 -2.8376250000000002e+01 -1.4863750000000000e+01 -6.7562499999999996e+00 -512 -512 -512
148 1 -3.1078749999999999e+01 -1.2161250000000001e+01 -6.7562499999999996e+00 -512 -512 -512
149 1 -2.5673750000000002e+01 -1.4863750000000000e+01 -9.4587500000000002e+00 -512 -512 -512
152 1 -2.5673750000000002e+01 -1.2161250000000001e+01 -6.7562499999999996e+00 -512 -512 -512
193 1 -3.1078749999999999e+01 -9.4587500000000002e+00 -9.4587500000000002e+00 -512 -512 -512
195 1 -2.8376250000000002e+01 -9.4587500000000002e+00 -6.7562499999999996e+00 -512 -512 -512
197 1 -2.5673750000000002e+01 -9.4587500000000002e+00 -9.4587500000000002e+00 -512 -512 -512
721 1 -3.1078749999999999e+01 -1.4863750000000000e+01 -4.0537500000000000e+00 -512 -512 -512
722 1 -2.8376250000000002e+01 -1.2161250000000001e+01 -4.0537500000000000e+00 -512 -512 -512
723 1 -2.8376250000000002e+01 -1.4863750000000000e+01 -1.3512500000000001e+00 -512 -512 -512
724 1 -3.1078749999999999e+01 -1.2161250000000001e+01 -1.3512500000000001e+00 -512 -512 -512
725 1 -2.5673750000000002e+01 -1.4863750000000000e+01 -4.0537500000000000e+00 -512 -512 -512
728 1 -2.5673750000000002e+01 -1.2161250000000001e+01 -1.3512500000000001e+00 -512 -512 -512
769 1 -3.1078749999999999e+01 -9.4587500000000002e+00 -4.0537500000000000e+00 -512 -512 -512
771 1 -2.8376250000000002e+01 -9.4587500000000002e+00 -1.3512500000000001e+00 -512 -512 -512
773 1 -2.5673750000000002e+01 -9.4587500000000002e+00 -4.0537500000000000e+00 -512 -512 -512
150 1 -2.2971250000000001e+01 -1.2161250000000001e+01 -9.4587500000000002e+00 -512 -512 -512
151 1 -2.2971250000000001e+01 -1.4863750000000000e+01 -6.7562499999999996e+00 -512 -512 -512
153 1 -2.0125021031621944e+01 -1.4677098146390541e+01 -9.3541923707524610e+00 -512 -512 -512
154 1 -1.7610692825137662e+01 -1.1913559270518126e+01 -9.2077401783326209e+00 -512 -512 -512
155 1 -1.7625421571080484e+01 -1.4536695582992904e+01 -6.6493633885202703e+00 -512 -512 -512
156 1 -2.0339274167785383e+01 -1.1893478314322259e+01 -6.6740292707661837e+00 -512 -512 -512
199 1 -2.2971250000000001e+01 -9.4587500000000002e+00 -6.7562499999999996e+00 -512 -512 -512
201 1 -2.0324105348140794e+01 -9.1376413488565316e+00 -9.5692866250937811e+00 -512 -512 -512
203 1 -1.7641956036794724e+01 -9.2445195672507765e+00 -6.7208991042648378e+00 -512 -512 -512
726 1 -2.2971250000000001e+01 -1.2161250000000001e+01 -4.0537500000000000e+00 -512 -512 -512
727 1 -2.2971250000000001e+01 -1.4863750000000000e+01 -1.3512500000000001e+00 -512 -512 -512
729 1 -2.0465751754822097e+01 -1.4819110368896032e+01 -4.0266001072870221e+00 -512 -512 -512
730 1 -1.7548225676021747e+01 -1.1927760928468004e+01 -3.9583632596318381e+00 -512 -512 -512
731 1 -1.7520466906950045e+01 -1.4668950910080762e+01 -1.2551561342675834e+00 -512 -512 -512
732 1 -2.0346833932351647e+01 -1.2135750295300785e+01 -1.2502030298103559e+00 -512 -512 -512