LAMMPS data file via write_data, version 5 Nov 2016, timestep = 10000

500 atoms
1 atom types

1.3217324256456706e+00 2.3678267574354290e+01 xlo xhi
1.3217324256456706e+00 2.3678267574354290e+01 ylo yhi
1.3217324256456706e+00 2.3678267574354290e+01 zlo zhi

Masses

1 62.5

Pair Coeffs # lj/cut

1 1.1 2.8

Atoms # full

22 0 1 0.0000000000000000e+00 1.9478117121042282e+00 3.0862539767938260e+00 1.9750891346190529e+00 0 0 0
28 0 1 0.0000000000000000e+00 3.5367050849585873e+00 4.4840687275678688e+00 4.4304883147436627e+00 0 0 0
86 0 1 0.0000000000000000e+00 4.9876267876441434e+00 2.4565045333282569e+00 1.7433640705592774e+00 0 1 0
185 0 1 0.0000000000000000e+00 6.9310339998579371e+00 3.7752404809189271e+00 4.2506169117853734e+00 0 1 0
186 0 1 0.0000000000000000e+00 8.2001553775729477e+00 1.9868011855661347e+00 2.1115278791047203e+00 0 1 0
109 0 1 0.0000000000000000e+00 1.0076362196385853e+01 3.5500672334784715e+00 4.1685235315704574e+00 0 0 0
31 0 1 0.0000000000000000e+00 1.1879874225004567e+01 4.7716240449264289e+00 1.8131058273174192e+00 0 0 0
111 0 1 0.0000000000000000e+00 1.3131035471066260e+01 3.0718748697156144e+00 4.2055801620549911e+00 0 0 0
16 0 1 0.0000000000000000e+00 1.4932401971681832e+01 4.2262906799546371e+00 1.8149579400785050e+00 0 0 0
420 0 1 0.0000000000000000e+00 1.6402901691851767e+01 2.5510061676871638e+00 4.2882747272085933e+00 0 0 1
18 0 1 0.0000000000000000e+00 1.7921778477367695e+01 3.9087416485217967e+00 1.8849446306780888e+00 0 0 0
117 0 1 0.0000000000000000e+00 1.9577631563994949e+01 2.3038478822418740e+00 4.1171040091433220e+00 0 0 0
1 0 1 0.0000000000000000e+00 2.1115732424016390e+01 3.4067358555480092e+00 1.8560533808591861e+00 -1 0 0
101 0 1 0.0000000000000000e+00 2.2685096310306829e+01 4.7386640017696369e+00 4.1927001454140242e+00 -1 0 0
2 0 1 0.0000000000000000e+00 2.2413834918205030e+01 1.5730060376165116e+00 4.1477729120727487e+00 -1 0 0
32 0 1 0.0000000000000000e+00 4.0613810674372939e+00 7.5356241011159577e+00 4.1439337867784829e+00 0 0 0
24 0 1 0.0000000000000000e+00 2.3527301683262247e+00 6.0001808893994024e+00 2.0794393348018350e+00 0 0 0
25 0 1 0.0000000000000000e+00 5.6075929284274171e+00 5.5818453735898972e+00 1.9737088191796737e+00 0 0 0
27 0 1 0.0000000000000000e+00 7.1182459925089754e+00 6.8821925913439985e+00 4.3158718575343311e+00 0 0 0
412 0 1 0.0000000000000000e+00 8.6704854166481340e+00 5.1661971974976035e+00 1.9441634247268429e+00 0 0 1
26 0 1 0.0000000000000000e+00 5.9073942666582600e+00 8.8658681890248978e+00 1.9785598399203703e+00 0 0 0
447 0 1 0.0000000000000000e+00 9.1556922460932668e+00 8.2831116574969101e+00 2.1758379936810908e+00 0 0 1
11 0 1 0.0000000000000000e+00 1.0423218432362555e+01 6.5388249075119633e+00 4.0912523233938440e+00 0 0 0
432 0 1 0.0000000000000000e+00 1.2399895459960970e+01 7.8996992141029470e+00 2.1195035476630593e+00 0 0 1
116 0 1 0.0000000000000000e+00 1.3405293850216202e+01 6.2926255252981980e+00 4.6465879454836383e+00 0 0 0
133 0 1 0.0000000000000000e+00 1.5475683544017153e+01 7.4250369579793816e+00 1.9339563022416797e+00 0 0 0
114 0 1 0.0000000000000000e+00 1.6563699321332479e+01 5.6407786376430344e+00 4.1417989199600616e+00 0 0 0
440 0 1 0.0000000000000000e+00 1.8448444427593216e+01 7.0485817476461099e+00 1.9278054600681676e+00 0 0 1
35 0 1 0.0000000000000000e+00 1.9504626011922177e+01 5.1972337485330158e+00 4.1946812096529484e+00 0 0 0
134 0 1 0.0000000000000000e+00 1.7046240492067003e+01 8.6977002829883290e+00 4.0567321026135552e+00 0 0 0
57 0 1 0.0000000000000000e+00 2.0191169357743167e+01 8.4150240464163737e+00 4.2159616372993955e+00 0 0 0
39 0 1 0.0000000000000000e+00 2.1716621168855951e+01 6.5004701722966995e+00 2.0015620960190992e+00 0 0 0
38 0 1 0.0000000000000000e+00 2.3424727414060094e+01 7.6588820756146445e+00 4.1094314125138816e+00 0 0 0
41 0 1 0.0000000000000000e+00 2.7412059583679804e+00 9.2406318146027058e+00 2.0090111359018796e+00 0 0 0
148 0 1 0.0000000000000000e+00 4.6147654078313334e+00 1.0673418289671710e+01 4.1003144769976210e+00 0 0 0
43 0 1 0.0000000000000000e+00 1.4037241280871235e+00 1.0939115477060346e+01 4.3057653779733460e+00 0 0 0
79 0 1 0.0000000000000000e+00 3.1800448146032836e+00 1.2333806667625392e+01 1.8190939587603934e+00 1 0 0
45 0 1 0.0000000000000000e+00 7.7359086107654891e+00 1.0066869809472129e+01 4.1901958414064593e+00 0 0 0
46 0 1 0.0000000000000000e+00 6.3916891976501393e+00 1.1805066729830335e+01 1.8898148720593253e+00 0 0 0
146 0 1 0.0000000000000000e+00 1.0941279376902880e+01 9.7227486703237371e+00 4.1050883699922416e+00 0 0 0
153 0 1 0.0000000000000000e+00 9.5982890766935185e+00 1.1300012051612406e+01 1.9747896486436143e+00 0 0 0
149 0 1 0.0000000000000000e+00 1.2646016009545081e+01 1.1242373882603717e+01 2.1540372971840083e+00 0 0 0
130 0 1 0.0000000000000000e+00 1.3961676752585554e+01 9.3263956890495887e+00 4.3987060691704283e+00 0 0 0
156 0 1 0.0000000000000000e+00 1.5716847344491431e+01 1.0548383786296830e+01 2.0164629415808490e+00 0 0 0
71 0 1 0.0000000000000000e+00 1.4264164026095900e+01 1.2531429850703752e+01 4.1788558581818211e+00 0 0 0
354 0 1 0.0000000000000000e+00 1.7355230879763369e+01 1.1864917998581355e+01 4.0940502881672209e+00 0 0 1
78 0 1 0.0000000000000000e+00 1.8807085863733295e+01 1.0194188888412123e+01 1.7014248882595626e+00 0 0 0
60 0 1 0.0000000000000000e+00 2.0567657902621900e+01 1.1290735649494334e+01 4.1377841096814922e+00 0 0 0
62 0 1 0.0000000000000000e+00 2.1960428652227879e+01 9.4938617406890788e+00 1.8539339799804475e+00 -1 0 0
158 0 1 0.0000000000000000e+00 1.9861083096021002e+00 1.3983813909739155e+01 4.0733251960797476e+00 1 0 0
467 0 1 0.0000000000000000e+00 3.6281043319688679e+00 1.5484019869786033e+01 1.7501382756336783e+00 0 0 1
42 0 1 0.0000000000000000e+00 5.0737603933630506e+00 1.3645423370793379e+01 4.0660338558344815e+00 0 0 0
52 0 1 0.0000000000000000e+00 8.1918017817383717e+00 1.3062210693788648e+01 4.3523435931413648e+00 0 0 0
65 0 1 0.0000000000000000e+00 6.7339729425845576e+00 1.5030245311898726e+01 1.8189226284892714e+00 0 0 0
170 0 1 0.0000000000000000e+00 8.6697921004810716e+00 1.6203096689740267e+01 4.1882984487314951e+00 0 0 0
73 0 1 0.0000000000000000e+00 1.1189742139578600e+01 1.2679527981156259e+01 4.3406689873958184e+00 0 0 0
72 0 1 0.0000000000000000e+00 9.7666536820201557e+00 1.4616276749442285e+01 2.0579967676853048e+00 0 0 0
91 0 1 0.0000000000000000e+00 1.1712993064650947e+01 1.5865771999627761e+01 4.3516863321845589e+00 0 0 0
76 0 1 0.0000000000000000e+00 1.2898964157209571e+01 1.4206670908108798e+01 1.9746534659621862e+00 0 0 0
174 0 1 0.0000000000000000e+00 1.4699087476309991e+01 1.5541466443511281e+01 4.1890840623286119e+00 0 0 0
77 0 1 0.0000000000000000e+00 1.6203462176427003e+01 1.3806242882037004e+01 1.9424869697238156e+00 0 0 0
75 0 1 0.0000000000000000e+00 1.7926067177483247e+01 1.5094158883234730e+01 4.1764993794370353e+00 0 0 0
59 0 1 0.0000000000000000e+00 1.9352124812862687e+01 1.3075268226937133e+01 1.7210713050426847e+00 0 0 0
154 0 1 0.0000000000000000e+00 2.1249410392254937e+01 1.4563167894946726e+01 4.0560713395103551e+00 0 0 0
63 0 1 0.0000000000000000e+00 2.2428599885417153e+01 1.2674958573992619e+01 1.7726128124061311e+00 -1 0 0
161 0 1 0.0000000000000000e+00 2.2973390776263479e+01 1.5775573859860105e+01 2.1170466896427609e+00 -1 0 0
181 0 1 0.0000000000000000e+00 2.4317774208425949e+00 1.7214519090449770e+01 4.2199037977758120e+00 0 0 0
484 0 1 0.0000000000000000e+00 3.9448810986441067e+00 1.8709428377647686e+01 2.0141293932113968e+00 0 0 1
162 0 1 0.0000000000000000e+00 5.4045586744852496e+00 1.6641319950071178e+01 4.3096872811536304e+00 0 0 0
142 0 1 0.0000000000000000e+00 7.2849816643440226e+00 1.8166492896400086e+01 2.1914882820999657e+00 0 0 0
64 0 1 0.0000000000000000e+00 5.8990367171918709e+00 1.9869074667286228e+01 4.0498695602658294e+00 0 0 0
83 0 1 0.0000000000000000e+00 9.0413509029278529e+00 1.9525358142225851e+01 4.0646628906628788e+00 0 0 0
70 0 1 0.0000000000000000e+00 1.2175370336085150e+01 1.8971204113404752e+01 4.2111952371082353e+00 0 0 0
69 0 1 0.0000000000000000e+00 1.0094896167360774e+01 1.7679641102405711e+01 1.7916851657835828e+00 0 0 0
471 0 1 0.0000000000000000e+00 1.3220173208011287e+01 1.7203640467476980e+01 1.9826188993193585e+00 0 0 1
293 0 1 0.0000000000000000e+00 1.5506631807421591e+01 1.8509750477476473e+01 4.2206752670880388e+00 0 0 0
74 0 1 0.0000000000000000e+00 1.9853422153287365e+01 1.6181417837815381e+01 2.0454656860608509e+00 0 0 0
475 0 1 0.0000000000000000e+00 1.6660550960166091e+01 1.6730285197531174e+01 2.0613587575820560e+00 0 0 1
197 0 1 0.0000000000000000e+00 1.8498864429696855e+01 1.8406443200904739e+01 4.1585178720070521e+00 0 0 0
490 0 1 0.0000000000000000e+00 1.7106609860270432e+01 2.0014858550576196e+01 1.9608189034760846e+00 0 0 1
98 0 1 0.0000000000000000e+00 2.1492328895151168e+01 1.7732712427319314e+01 4.0722444722547610e+00 0 0 0
496 0 1 0.0000000000000000e+00 2.0093924974183846e+01 1.9492706584247209e+01 1.8777522764019818e+00 0 0 1
82 0 1 0.0000000000000000e+00 2.3322864169565420e+01 1.8831383045471004e+01 2.0485789809670760e+00 -1 0 0
107 0 1 0.0000000000000000e+00 3.3313303020145169e+00 1.3225027893387740e+00 3.9750258063473862e+00 0 0 0
7 0 1 0.0000000000000000e+00 1.4197675896537070e+00 2.2237386877363473e+01 2.1345465177891265e+00 0 -1 0
5 0 1 0.0000000000000000e+00 4.5501226391165996e+00 2.1740832616974007e+01 1.9515396633175592e+00 0 -1 0
102 0 1 0.0000000000000000e+00 2.7349982423142576e+00 2.0491798048648999e+01 4.2777789385660494e+00 0 -1 0
88 0 1 0.0000000000000000e+00 6.2677001343849685e+00 2.2935746304899308e+01 4.0730234107283092e+00 0 0 0
66 0 1 0.0000000000000000e+00 7.6272179204424333e+00 2.1263335737774558e+01 1.9516675907194467e+00 0 0 0
10 0 1 0.0000000000000000e+00 1.1133961830388710e+01 1.7309643116013922e+00 2.0299292296606688e+00 0 0 0
67 0 1 0.0000000000000000e+00 9.4444363992403666e+00 2.2616820399353578e+01 4.0867978924212647e+00 0 0 0
472 0 1 0.0000000000000000e+00 1.0978534984730171e+01 2.0966177699321200e+01 1.7360853258639608e+00 0 0 1
13 0 1 0.0000000000000000e+00 1.2668337191490062e+01 2.2229049618437401e+01 4.3205671284471379e+00 0 -1 0
214 0 1 0.0000000000000000e+00 1.4084024018060260e+01 2.0532701896178843e+01 2.0816388437193925e+00 0 -1 0
94 0 1 0.0000000000000000e+00 1.4440244004744137e+01 2.3676585533741868e+01 2.1166309607636240e+00 0 0 0
190 0 1 0.0000000000000000e+00 1.5797681688887177e+01 2.1903048287230124e+01 4.2718761054173999e+00 0 0 0
500 0 1 0.0000000000000000e+00 1.7606834424146772e+01 2.3175869628920307e+01 1.9161155321944867e+00 0 0 1
100 0 1 0.0000000000000000e+00 1.6977134790753617e+01 2.0085516420425378e+01 6.5519991890702372e+00 0 0 0
419 0 1 0.0000000000000000e+00 1.8881478909567253e+01 2.1301891773173008e+01 4.2000706550847138e+00 0 -1 1
8 0 1 0.0000000000000000e+00 2.0595683910184995e+01 2.2576255098048247e+01 2.1006184419288947e+00 -1 -1 0
84 0 1 0.0000000000000000e+00 2.1977044800477294e+01 2.0893880056391193e+01 4.1872941614483015e+00 -1 0 0
19 0 1 0.0000000000000000e+00 2.0112945993669511e+00 2.8716775903380389e+00 6.4161697714365520e+00 1 0 0
125 0 1 0.0000000000000000e+00 5.1462113597005992e+00 2.3244487320329990e+00 6.3397746444472878e+00 0 0 0
124 0 1 0.0000000000000000e+00 3.6242120438243139e+00 4.2673500340015416e+00 8.6973366595966084e+00 0 0 0
87 0 1 0.0000000000000000e+00 8.2033220230551489e+00 2.0352537204040662e+00 6.3912968456988750e+00 0 1 0
206 0 1 0.0000000000000000e+00 6.9522928629635246e+00 3.8790437156473998e+00 8.5871456665441865e+00 0 0 0
110 0 1 0.0000000000000000e+00 1.1797702354483359e+01 4.7355761226815520e+00 6.4930081218895612e+00 0 0 0
191 0 1 0.0000000000000000e+00 1.1325508614787514e+01 1.6403806955501912e+00 6.4470822984932763e+00 0 1 0
192 0 1 0.0000000000000000e+00 9.9322838147203889e+00 3.4711172209600321e+00 8.7080778974765742e+00 0 1 0
120 0 1 0.0000000000000000e+00 1.5016275667438611e+01 4.2823336094786093e+00 6.6794556905981937e+00 0 0 0
209 0 1 0.0000000000000000e+00 1.3118766993333525e+01 2.9112098035568539e+00 8.6649745877060109e+00 0 0 0
113 0 1 0.0000000000000000e+00 1.8012015404716468e+01 3.8558664542972902e+00 6.5218722727991176e+00 0 0 0
217 0 1 0.0000000000000000e+00 1.9389013723952022e+01 2.1238374683957533e+00 8.7189626409898207e+00 0 0 0
34 0 1 0.0000000000000000e+00 2.1125693722548622e+01 3.3857162249805026e+00 6.3871719603193640e+00 0 0 0
106 0 1 0.0000000000000000e+00 2.1772912725004683e+00 6.0191495066462037e+00 6.3283474416575052e+00 0 0 0
105 0 1 0.0000000000000000e+00 8.8009573654093671e+00 5.1853989099183257e+00 6.5057489547567560e+00 0 0 0
108 0 1 0.0000000000000000e+00 5.5378253692432748e+00 5.4608052977691646e+00 6.5838380429578240e+00 0 0 0
129 0 1 0.0000000000000000e+00 7.2359204452584232e+00 6.8680887741518397e+00 8.8115918472750554e+00 0 0 0
131 0 1 0.0000000000000000e+00 9.0318320723898680e+00 8.4054638145962954e+00 6.1553237529535547e+00 0 0 0
151 0 1 0.0000000000000000e+00 1.2005120384540003e+01 8.0902209757817864e+00 6.4704823336878645e+00 0 0 0
232 0 1 0.0000000000000000e+00 1.0196562156327834e+01 6.4968380369423642e+00 8.9305783383369430e+00 0 0 0
135 0 1 0.0000000000000000e+00 1.5424175423804112e+01 7.5438580372617619e+00 6.6671876238396015e+00 0 0 0
112 0 1 0.0000000000000000e+00 1.3527989931107566e+01 6.0387044943156223e+00 8.7234881926544965e+00 0 0 0
139 0 1 0.0000000000000000e+00 1.8310140801644916e+01 7.1461693126666139e+00 6.4153265923277552e+00 0 0 0
194 0 1 0.0000000000000000e+00 1.9951444936649548e+01 5.2611650138086770e+00 8.7555518618139985e+00 0 1 0
233 0 1 0.0000000000000000e+00 1.6654435801358545e+01 5.6258203194969116e+00 8.8734726979154424e+00 0 0 0
136 0 1 0.0000000000000000e+00 1.7316432051472344e+01 8.7768492688892259e+00 8.7943001675229571e+00 0 0 0
37 0 1 0.0000000000000000e+00 2.1641025019592522e+01 6.5831581661849725e+00 6.3116048273443619e+00 0 0 0
118 0 1 0.0000000000000000e+00 2.0317198468658106e+01 8.4421874006025170e+00 8.4180117632358833e+00 0 0 0
221 0 1 0.0000000000000000e+00 2.3581983228082933e+01 7.8591723899594026e+00 8.4822908317038834e+00 -1 0 0
23 0 1 0.0000000000000000e+00 2.7368871358176756e+00 9.0364832135265303e+00 6.2656016561747929e+00 0 0 0
141 0 1 0.0000000000000000e+00 4.5477554471966783e+00 1.0439840393777816e+01 8.4853370965106976e+00 0 0 0
143 0 1 0.0000000000000000e+00 3.2530119107206961e+00 1.2075152991905039e+01 6.4007936362754867e+00 0 0 0
132 0 1 0.0000000000000000e+00 5.8764747348066653e+00 8.5296955167729926e+00 6.4698711798249322e+00 0 0 0
263 0 1 0.0000000000000000e+00 6.3437582242025625e+00 1.1842791861286218e+01 6.3652974519658274e+00 0 0 0
47 0 1 0.0000000000000000e+00 7.5350150861334724e+00 1.0208349067494103e+01 8.5278374423502257e+00 0 0 0
126 0 1 0.0000000000000000e+00 9.4972263312171776e+00 1.1399961214125186e+01 6.5125199714115132e+00 0 0 0
147 0 1 0.0000000000000000e+00 1.0761990659563960e+01 9.7279527134907315e+00 8.8353418832584172e+00 0 0 0
150 0 1 0.0000000000000000e+00 1.2811793871136363e+01 1.1061252104869681e+01 6.3459028335086280e+00 0 0 0
173 0 1 0.0000000000000000e+00 1.5725620547317311e+01 1.0604491715145915e+01 6.3016301980423055e+00 0 0 0
230 0 1 0.0000000000000000e+00 1.4041130133110977e+01 9.3197860091283466e+00 8.7393310178147754e+00 0 0 0
196 0 1 0.0000000000000000e+00 1.4545997324296239e+01 1.2347002804502097e+01 8.7443084921081464e+00 0 0 0
137 0 1 0.0000000000000000e+00 1.8851791454647085e+01 1.0199308125467731e+01 6.4338042655549241e+00 0 0 0
157 0 1 0.0000000000000000e+00 2.1973527030670081e+01 9.5741160616010887e+00 6.2925168651778520e+00 0 0 0
273 0 1 0.0000000000000000e+00 2.0562054654303449e+01 1.1594840772210480e+01 8.5369505991835641e+00 0 0 0
68 0 1 0.0000000000000000e+00 3.8095333616549159e+00 1.5298968402889026e+01 6.5615209048571614e+00 0 0 0
261 0 1 0.0000000000000000e+00 1.8869930040024943e+00 1.4037318717108951e+01 8.5265844314342623e+00 0 0 0
258 0 1 0.0000000000000000e+00 4.9481225505095807e+00 1.3394835237311817e+01 8.7660637525531229e+00 1 0 0
48 0 1 0.0000000000000000e+00 6.7558844958769111e+00 1.4821663896270749e+01 6.2156088258588840e+00 0 0 0
249 0 1 0.0000000000000000e+00 8.0986092929030438e+00 1.3127167511618293e+01 8.5244802450263961e+00 0 0 0
172 0 1 0.0000000000000000e+00 9.7917440309199009e+00 1.4632618841428068e+01 6.5198378658197100e+00 0 0 0
152 0 1 0.0000000000000000e+00 1.1344225165633205e+01 1.3023253077342442e+01 8.6915344371292296e+00 0 0 0
246 0 1 0.0000000000000000e+00 1.1591489266563904e+01 1.6065851108748475e+01 8.5958092234455474e+00 0 0 0
250 0 1 0.0000000000000000e+00 1.3263708488652638e+01 1.4080057864329850e+01 6.4327307175166455e+00 0 0 0
40 0 1 0.0000000000000000e+00 1.6244861942016179e+01 1.3645425253715446e+01 6.4256212815272784e+00 0 0 0
138 0 1 0.0000000000000000e+00 1.9315515679976574e+01 1.3069235515504603e+01 6.1315613049196429e+00 0 0 0
80 0 1 0.0000000000000000e+00 1.9706758493656469e+01 1.6382382921834726e+01 6.3287627718701716e+00 0 0 0
163 0 1 0.0000000000000000e+00 2.2387668258508725e+01 1.2779724398305593e+01 6.4318733582168610e+00 -1 0 0
99 0 1 0.0000000000000000e+00 2.2941119399977953e+01 1.6035495990830864e+01 6.4033973093448697e+00 0 0 0
166 0 1 0.0000000000000000e+00 4.1925988944398647e+00 1.8661063167549635e+01 6.1349732391756788e+00 0 0 0
264 0 1 0.0000000000000000e+00 2.4984375992739469e+00 1.7126258005738116e+01 8.8009153446680237e+00 0 0 0
168 0 1 0.0000000000000000e+00 8.4932164143153130e+00 1.6087847144052041e+01 8.7688065283106482e+00 0 0 0
165 0 1 0.0000000000000000e+00 7.1438282693236195e+00 1.8006395779975477e+01 6.5339394481325863e+00 0 0 0
262 0 1 0.0000000000000000e+00 5.4443938277417363e+00 1.6763108907731109e+01 8.4691616266751080e+00 0 0 0
282 0 1 0.0000000000000000e+00 5.9233978124927269e+00 1.9846663343634582e+01 8.5927733703497751e+00 0 0 0
266 0 1 0.0000000000000000e+00 9.1228369993527636e+00 1.9442014397850762e+01 8.5657411284608891e+00 0 0 0
269 0 1 0.0000000000000000e+00 1.0383855929803980e+01 1.7693108058191665e+01 6.3409193004906586e+00 0 0 0
176 0 1 0.0000000000000000e+00 1.3561439262286150e+01 1.7252589643420890e+01 6.5061408604830193e+00 0 0 0
291 0 1 0.0000000000000000e+00 1.6463354294713454e+01 1.6633294103945396e+01 6.3483341323180609e+00 0 0 0
164 0 1 0.0000000000000000e+00 2.3279300840429165e+01 1.8943517862244555e+01 6.4461966605765708e+00 -1 0 0
198 0 1 0.0000000000000000e+00 2.0157155108760151e+01 1.9549606979307374e+01 6.4999874432404923e+00 0 0 0
103 0 1 0.0000000000000000e+00 4.6402618883452167e+00 2.1697374335755274e+01 6.3874150357213315e+00 0 -1 0
298 0 1 0.0000000000000000e+00 1.8021547378523308e+00 2.2265125899773967e+01 6.4059307786722011e+00 1 0 0
183 0 1 0.0000000000000000e+00 3.0098655050847403e+00 2.0142053146555913e+01 8.4745118979723131e+00 0 0 0
169 0 1 0.0000000000000000e+00 7.8223276406155007e+00 2.1074791471538170e+01 6.2438378255207638e+00 0 0 0
187 0 1 0.0000000000000000e+00 6.2874791251826236e+00 2.3087909998482086e+01 8.7317248538593191e+00 0 0 0
189 0 1 0.0000000000000000e+00 1.0754791215133876e+01 2.0837025098929619e+01 6.5734157144231391e+00 0 0 0
286 0 1 0.0000000000000000e+00 9.6737084070187613e+00 2.2903831525581140e+01 8.6810980169512746e+00 0 0 0
96 0 1 0.0000000000000000e+00 1.4339826041786894e+01 2.3677428824240444e+01 6.5046977417575578e+00 0 0 0
193 0 1 0.0000000000000000e+00 1.4085685376853149e+01 2.0456011171255010e+01 6.5358084994180681e+00 0 0 0
200 0 1 0.0000000000000000e+00 1.7587041925058255e+01 2.3117890403836078e+01 6.4780387269416213e+00 0 0 0
199 0 1 0.0000000000000000e+00 1.9013965295101720e+01 2.1575360346185771e+01 8.5731821515816300e+00 0 0 0
182 0 1 0.0000000000000000e+00 2.0632305273647098e+01 2.2735273075333861e+01 6.3224475063116685e+00 -1 0 0
381 0 1 0.0000000000000000e+00 2.2173445411183778e+01 2.0722077640589148e+01 8.7144350270937991e+00 -1 0 0
218 0 1 0.0000000000000000e+00 2.0118460631904664e+00 3.0855591190719944e+00 1.1037570045270815e+01 1 0 0
203 0 1 0.0000000000000000e+00 4.9564379203358220e+00 2.3797425027807861e+00 1.0861856779282594e+01 0 0 0
188 0 1 0.0000000000000000e+00 8.1841500012057136e+00 2.1472681985959912e+00 1.0942014489504917e+01 0 1 0
290 0 1 0.0000000000000000e+00 1.1296787262490080e+01 1.6449128583950201e+00 1.0844890594579040e+01 0 1 0
227 0 1 0.0000000000000000e+00 1.1865238607049623e+01 4.7156466579392156e+00 1.1098180069145050e+01 0 0 0
115 0 1 0.0000000000000000e+00 1.6327711341856517e+01 2.2396295176992052e+00 8.7895249526800381e+00 0 0 0
211 0 1 0.0000000000000000e+00 1.4990058367309331e+01 4.1803165135817597e+00 1.0880214446869557e+01 0 0 0
334 0 1 0.0000000000000000e+00 1.7918103410151495e+01 3.7657333067956587e+00 1.0932409373344528e+01 0 0 0
237 0 1 0.0000000000000000e+00 2.2449418988996776e+01 1.4722549418960122e+00 8.6577179203910966e+00 0 0 0
4 0 1 0.0000000000000000e+00 2.3002964407429033e+01 4.6472047533109055e+00 8.5742953610892769e+00 -1 0 0
119 0 1 0.0000000000000000e+00 2.1203399612036396e+01 3.3251767163221162e+00 1.0857287110329256e+01 0 0 0
122 0 1 0.0000000000000000e+00 4.0051027809782820e+00 7.3252254591621728e+00 8.5254738372758325e+00 0 0 0
224 0 1 0.0000000000000000e+00 2.5179353344295610e+00 6.1081734505225294e+00 1.0904091579723412e+01 0 0 0
228 0 1 0.0000000000000000e+00 8.5446187390601089e+00 5.2342874452893424e+00 1.1138201340994687e+01 0 0 0
225 0 1 0.0000000000000000e+00 5.5358444497509032e+00 5.6743051684048638e+00 1.1031891971670346e+01 0 0 0
128 0 1 0.0000000000000000e+00 5.7191140238421232e+00 8.8433630494744051e+00 1.0752039016287171e+01 0 0 0
229 0 1 0.0000000000000000e+00 1.2069311905881435e+01 7.9260445158198065e+00 1.0762423111741276e+01 0 0 0
127 0 1 0.0000000000000000e+00 8.8660934744472293e+00 8.5152793906907558e+00 1.0987067251679642e+01 0 0 0
235 0 1 0.0000000000000000e+00 1.5253439979204224e+01 7.4509404215017376e+00 1.0855505065218829e+01 0 0 0
240 0 1 0.0000000000000000e+00 1.8347380759396341e+01 6.8469159532744257e+00 1.1027809017931272e+01 0 0 0
20 0 1 0.0000000000000000e+00 2.1841822029759996e+01 6.2697019179558735e+00 1.0862041081733750e+01 0 0 0
121 0 1 0.0000000000000000e+00 1.3297198040399465e+00 1.0896878265512145e+01 8.7226253523395876e+00 0 0 0
241 0 1 0.0000000000000000e+00 2.7198852289529092e+00 9.2205407335514025e+00 1.0787284711772278e+01 0 0 0
145 0 1 0.0000000000000000e+00 3.2575066247342317e+00 1.2253512906056773e+01 1.0972025668514032e+01 0 0 0
252 0 1 0.0000000000000000e+00 6.4849644397361246e+00 1.1728736473243245e+01 1.0822227302653141e+01 0 0 0
265 0 1 0.0000000000000000e+00 9.4877750245413797e+00 1.1622096167777373e+01 1.0979372967103378e+01 0 0 0
231 0 1 0.0000000000000000e+00 1.2754807823616703e+01 1.1107595543873764e+01 1.0887155958717649e+01 0 0 0
234 0 1 0.0000000000000000e+00 1.5990258394528327e+01 1.0428316900608316e+01 1.0719704338122565e+01 0 0 0
179 0 1 0.0000000000000000e+00 1.7469703074548161e+01 1.1938592159140399e+01 8.5161379732036302e+00 0 0 0
238 0 1 0.0000000000000000e+00 1.9145207159617751e+01 1.0067912999792021e+01 1.0665323012136225e+01 0 0 0
123 0 1 0.0000000000000000e+00 2.1976100847373655e+01 9.4261568246666609e+00 1.0874082298158722e+01 -1 0 0
144 0 1 0.0000000000000000e+00 3.6258646375878572e+00 1.5344607201030882e+01 1.0834630737464371e+01 0 0 0
285 0 1 0.0000000000000000e+00 6.7596740021610042e+00 1.4965266163367279e+01 1.0957893602275401e+01 0 0 0
167 0 1 0.0000000000000000e+00 9.8261011076434652e+00 1.4584891435161550e+01 1.0950343674423580e+01 0 0 0
278 0 1 0.0000000000000000e+00 1.4640292738341218e+01 1.5447351187470181e+01 8.7613877098009425e+00 0 0 0
171 0 1 0.0000000000000000e+00 1.2867167028758907e+01 1.4308153119044283e+01 1.0766086410225956e+01 0 0 0
160 0 1 0.0000000000000000e+00 1.6388500155332920e+01 1.3883555446065055e+01 1.1049973515159062e+01 0 0 0
277 0 1 0.0000000000000000e+00 1.8006415994137694e+01 1.4816093934064192e+01 8.5471753938444532e+00 0 0 0
155 0 1 0.0000000000000000e+00 1.9285203850304629e+01 1.3400234372663595e+01 1.0806406658225763e+01 0 0 0
140 0 1 0.0000000000000000e+00 2.1189242526451380e+01 1.4507941683571856e+01 8.5336816124526607e+00 0 0 0
159 0 1 0.0000000000000000e+00 2.2456201378103259e+01 1.2781278400952587e+01 1.0760077909439319e+01 0 0 0
283 0 1 0.0000000000000000e+00 2.3054819153462581e+01 1.5845012828232388e+01 1.0830037719600494e+01 -1 0 0
378 0 1 0.0000000000000000e+00 1.9861084296191567e+01 1.6289805525426654e+01 1.0975183260188233e+01 0 0 0
184 0 1 0.0000000000000000e+00 4.1891449479964855e+00 1.8583360372645100e+01 1.1011591349625059e+01 0 0 0
268 0 1 0.0000000000000000e+00 7.2463538224827939e+00 1.8206498206398798e+01 1.0834755580257683e+01 0 0 0
270 0 1 0.0000000000000000e+00 1.2274244008783219e+01 1.8822077588492846e+01 8.8339484204964656e+00 0 0 0
365 0 1 0.0000000000000000e+00 1.0276721332698459e+01 1.7745349475157546e+01 1.0934580002740763e+01 0 0 0
274 0 1 0.0000000000000000e+00 1.5455629083635733e+01 1.8551831066950538e+01 8.7272531948698422e+00 0 0 0
294 0 1 0.0000000000000000e+00 1.3736934676853844e+01 1.7330808488398823e+01 1.1155943972836713e+01 0 0 0
95 0 1 0.0000000000000000e+00 1.8427493799328140e+01 1.8077114398904968e+01 8.6292185625626168e+00 0 0 0
257 0 1 0.0000000000000000e+00 1.6769644035436787e+01 1.6897745465149846e+01 1.0968424076622897e+01 0 0 0
394 0 1 0.0000000000000000e+00 1.7072832686487480e+01 2.0066219884221994e+01 1.0946255482758659e+01 0 0 0
180 0 1 0.0000000000000000e+00 2.1501938264607308e+01 1.7496242904693222e+01 8.7921235044903359e+00 0 0 0
299 0 1 0.0000000000000000e+00 2.3500132546896442e+01 1.8850199033111942e+01 1.0859829308241631e+01 0 0 0
281 0 1 0.0000000000000000e+00 2.0365648553008420e+01 1.9401606304511102e+01 1.1006292272855148e+01 -1 0 0
104 0 1 0.0000000000000000e+00 3.3082952423214484e+00 2.3561499348109329e+01 8.5479001672985202e+00 0 -1 0
363 0 1 0.0000000000000000e+00 4.6629225703203252e+00 2.1685508833810726e+01 1.0967203715721762e+01 0 0 0
301 0 1 0.0000000000000000e+00 1.7624226954426234e+00 2.2261099958426001e+01 1.0987076810847594e+01 0 -1 0
288 0 1 0.0000000000000000e+00 7.7777801229407313e+00 2.1190797678595644e+01 1.0733691215388561e+01 0 0 0
289 0 1 0.0000000000000000e+00 1.0794476845154618e+01 2.0747617717045962e+01 1.0687416595340611e+01 0 0 0
17 0 1 0.0000000000000000e+00 1.5817927062794388e+01 2.1674040817249036e+01 8.8552687260299994e+00 0 -1 0
292 0 1 0.0000000000000000e+00 1.2612709502032342e+01 2.2126787205687361e+01 8.5468926027895282e+00 0 0 0
272 0 1 0.0000000000000000e+00 1.3832627118779849e+01 2.0414764518434751e+01 1.0822259527856067e+01 0 0 0
390 0 1 0.0000000000000000e+00 1.4403725207987147e+01 2.3415793141321313e+01 1.0887054696761270e+01 0 0 0
210 0 1 0.0000000000000000e+00 1.7413170220076861e+01 2.3060386187818068e+01 1.1051679261452801e+01 0 -1 0
201 0 1 0.0000000000000000e+00 2.0758174560202090e+01 2.2535097480503126e+01 1.0816756743843717e+01 -1 -1 0
321 0 1 0.0000000000000000e+00 3.6732334179915505e+00 4.3602700201337461e+00 1.3242256086136994e+01 0 0 0
324 0 1 0.0000000000000000e+00 1.9479829867255611e+00 2.5786697064364845e+00 1.5460777316061298e+01 0 0 0
223 0 1 0.0000000000000000e+00 3.2128733486322547e+00 2.3539643162308629e+01 1.3163317630559760e+01 0 -1 0
304 0 1 0.0000000000000000e+00 5.0148880731363086e+00 2.3530384226306795e+00 1.5220751263857348e+01 0 0 0
305 0 1 0.0000000000000000e+00 6.8174621880854618e+00 3.7623875989010713e+00 1.3111451762361989e+01 0 0 0
388 0 1 0.0000000000000000e+00 8.1829775337926733e+00 2.0287923226473539e+00 1.5284957466591038e+01 0 1 0
202 0 1 0.0000000000000000e+00 9.8854801072226639e+00 3.3442140490537198e+00 1.3136368838590181e+01 0 0 0
307 0 1 0.0000000000000000e+00 1.1324626823846147e+01 1.4616051222068189e+00 1.5201846203728470e+01 0 0 0
306 0 1 0.0000000000000000e+00 1.1579485223570714e+01 4.9298176445693587e+00 1.5193091310039231e+01 0 0 0
207 0 1 0.0000000000000000e+00 1.3245336028294700e+01 3.0580733945714571e+00 1.3260045476258068e+01 0 0 0
333 0 1 0.0000000000000000e+00 1.5219184527569855e+01 4.3787378239204671e+00 1.5471323221840862e+01 0 0 0
213 0 1 0.0000000000000000e+00 1.6306477873149369e+01 2.6680451272842136e+00 1.3310690863097781e+01 0 0 0
314 0 1 0.0000000000000000e+00 1.9417205553009641e+01 1.8525719882668410e+00 1.3045743486755933e+01 0 0 0
335 0 1 0.0000000000000000e+00 1.8343305725917592e+01 3.7336256596151802e+00 1.5269819819161539e+01 0 0 0
318 0 1 0.0000000000000000e+00 2.1248242959995572e+01 3.3098941687268004e+00 1.5382197368464599e+01 0 0 0
337 0 1 0.0000000000000000e+00 2.3042290700252757e+01 4.7120065083043414e+00 1.3306541002621815e+01 0 0 0
239 0 1 0.0000000000000000e+00 2.2409076068628753e+01 1.5199836530256841e+00 1.3049785276993328e+01 0 0 0
243 0 1 0.0000000000000000e+00 4.0600622269657070e+00 7.4871459498374691e+00 1.3249830165475240e+01 0 0 0
322 0 1 0.0000000000000000e+00 2.2645127915007031e+00 6.0123309661220352e+00 1.5465925201999031e+01 0 0 0
302 0 1 0.0000000000000000e+00 8.6260269352945862e+00 5.2271972035232679e+00 1.5288832930934261e+01 0 0 0
204 0 1 0.0000000000000000e+00 7.1871173293036374e+00 6.9092454011384277e+00 1.3203020554193589e+01 0 0 0
222 0 1 0.0000000000000000e+00 5.4923098340870347e+00 5.4951506087840771e+00 1.5360102310884912e+01 0 0 0
208 0 1 0.0000000000000000e+00 9.1536345503235506e+00 8.2825529206543855e+00 1.5316198684788219e+01 0 0 0
251 0 1 0.0000000000000000e+00 1.0666272854294682e+01 6.7535989866712098e+00 1.3065190405894196e+01 0 0 0
332 0 1 0.0000000000000000e+00 1.2067059341421706e+01 7.7630988827621135e+00 1.5439446850887752e+01 0 0 0
326 0 1 0.0000000000000000e+00 1.3774169133155951e+01 6.0076081857419057e+00 1.3156347854264347e+01 0 0 0
355 0 1 0.0000000000000000e+00 1.5221520026929939e+01 7.3858870063229212e+00 1.5457474779641103e+01 0 0 0
336 0 1 0.0000000000000000e+00 2.0074303485331146e+01 4.9049872083647887e+00 1.3087577627009320e+01 0 0 0
216 0 1 0.0000000000000000e+00 1.6726575078053241e+01 5.7014364738638648e+00 1.3107091903423798e+01 0 0 0
279 0 1 0.0000000000000000e+00 1.8520456739213511e+01 7.0000516901878029e+00 1.5194715613725757e+01 0 0 0