LAMMPS data file via write_data, version 20 Nov 2019, timestep = 25000

320 atoms
7 atom types
320 bonds
13 bond types
480 angles
22 angle types
640 dihedrals
36 dihedral types
160 impropers
9 improper types

1.7426663385337786e+00 1.8257333661465619e+01 xlo xhi
1.7426663385337786e+00 1.8257333661465619e+01 ylo yhi
1.7426663385337786e+00 1.8257333661465619e+01 zlo zhi

Masses

1 12.0112
2 1.00797
3 12.0112
4 12.0112
5 12.0112
6 12.0112
7 12.0112

Pair Coeffs # lj/class2/coul/long

1 0.064 4.01
2 0.02 2.7
3 0.064 4.01
4 0.064 3.9
5 0.054 4.01
6 0.054 4.01
7 0.054 4.01

Bond Coeffs # class2

1 1.0982 372.825 -803.453 894.317
2 1.417 470.836 -627.618 1327.63
3 1.501 321.902 -521.821 572.163
4 1.0883 365.768 -725.54 781.662
5 1.34 543.99 -1238.2 1644.03
6 1.0883 365.768 -725.54 781.662
7 1.501 321.902 -521.821 572.163
8 1.101 345 -691.89 844.6
9 1.53 299.67 -501.77 679.81
10 1.101 345 -691.89 844.6
11 1.501 321.902 -521.821 572.163
12 1.101 345 -691.89 844.6
13 1.53 299.67 -501.77 679.81

Angle Coeffs # class2

1 117.94 35.1558 -12.4682 0
2 118.9 61.0226 -34.9931 0
3 120.05 44.7148 -22.7352 0
4 111 44.3234 -9.4454 0
5 108.4 43.9594 -8.3924 -9.3379
6 124.88 35.2766 -17.774 -1.6215
7 124.88 35.2766 -17.774 -1.6215
8 115.49 29.6363 -12.4853 -6.2218
9 120.05 44.7148 -22.7352 0
10 111 44.3234 -9.4454 0
11 108.4 43.9594 -8.3924 -9.3379
12 110.77 41.453 -10.604 5.129
13 112.67 39.516 -7.443 -9.5583
14 110.77 41.453 -10.604 5.129
15 107.66 39.641 -12.921 -2.4318
16 112.67 39.516 -7.443 -9.5583
17 120.05 44.7148 -22.7352 0
18 111 44.3234 -9.4454 0
19 108.4 43.9594 -8.3924 -9.3379
20 110.77 41.453 -10.604 5.129
21 110.77 41.453 -10.604 5.129
22 112.67 39.516 -7.443 -9.5583

BondBond Coeffs

1 1.0795 1.417 1.0982
2 68.2856 1.417 1.417
3 12.0676 1.417 1.501
4 2.9168 1.501 1.0883
5 0 1.501 1.34
6 10.1047 1.0883 1.34
7 10.1047 1.0883 1.34
8 4.8506 1.0883 1.0883
9 12.0676 1.417 1.501
10 2.9168 1.501 1.101
11 0 1.501 1.53
12 3.3872 1.101 1.53
13 0 1.53 1.53
14 3.3872 1.101 1.53
15 5.3316 1.101 1.101
16 0 1.53 1.53
17 12.0676 1.417 1.501
18 2.9168 1.501 1.101
19 0 1.501 1.53
20 3.3872 1.101 1.53
21 3.3872 1.101 1.53
22 0 1.53 1.53

BondAngle Coeffs

1 20.0033 24.2183 1.417 1.0982
2 28.8708 28.8708 1.417 1.417
3 31.0771 47.0579 1.417 1.501
4 26.4608 11.7717 1.501 1.0883
5 0 0 1.501 1.34
6 19.0592 23.3588 1.0883 1.34
7 19.0592 23.3588 1.0883 1.34
8 17.9795 17.9795 1.0883 1.0883
9 31.0771 47.0579 1.417 1.501
10 26.4608 11.7717 1.501 1.101
11 0 0 1.501 1.53
12 11.421 20.754 1.101 1.53
13 8.016 8.016 1.53 1.53
14 11.421 20.754 1.101 1.53
15 18.103 18.103 1.101 1.101
16 8.016 8.016 1.53 1.53
17 31.0771 47.0579 1.417 1.501
18 26.4608 11.7717 1.501 1.101
19 0 0 1.501 1.53
20 11.421 20.754 1.101 1.53
21 11.421 20.754 1.101 1.53
22 8.016 8.016 1.53 1.53

Dihedral Coeffs # class2

1 0 0 1.559 0 0 0
2 0 0 3.9661 0 0 0
3 0 0 4.4072 0 0 0
4 8.3667 0 1.1932 0 0 0
5 0 0 1.8769 0 0 0
6 0 0 0 0 0 0
7 0 0 0 0 0 0
8 0 0 0 0 0 0
9 0 0 4.8974 0 0 0
10 0 0 1.559 0 0 0
11 0 0 4.4072 0 0 0
12 -0.2801 0 -0.0678 0 -0.0122 0
13 -0.2802 0 -0.0678 0 -0.0122 0
14 -0.0228 0 0.028 0 -0.1863 0
15 -0.1432 0 0.0617 0 -0.1083 0
16 0 0 0.0316 0 -0.1681 0
17 0 0 0 0 0 0
18 0 0 0.0316 0 -0.1681 0
19 0 0 0.0514 0 -0.143 0
20 0 0 1.559 0 0 0
21 0 0 4.4072 0 0 0
22 -0.2801 0 -0.0678 0 -0.0122 0
23 -0.2802 0 -0.0678 0 -0.0122 0
24 -0.0228 0 0.028 0 -0.1863 0
25 0 0 0 0 0 0
26 -0.1432 0 0.0617 0 -0.1083 0
27 0 0 0.0316 0 -0.1681 0
28 0 0 0 0 0 0
29 0 0 0.0316 0 -0.1681 0
30 0 0 0.0514 0 -0.143 0
31 -0.0228 0 0.028 0 -0.1863 0
32 -0.1432 0 0.0617 0 -0.1083 0
33 0 0 0.0316 0 -0.1681 0
34 0 0 0 0 0 0
35 0 0 0.0316 0 -0.1681 0
36 0 0 0.0514 0 -0.143 0

AngleAngleTorsion Coeffs

1 4.4444 117.94 120.05
2 -4.8141 118.9 117.94
3 -14.4097 118.9 120.05
4 0 118.9 118.9
5 0.3598 117.94 117.94
6 0 120.05 111
7 0 120.05 108.4
8 0 108.4 124.88
9 -7.0058 124.88 124.88
10 4.4444 117.94 120.05
11 -14.4097 118.9 120.05
12 -5.8888 120.05 111
13 0 120.05 108.4
14 0 108.4 110.77
15 -12.564 110.77 110.77
16 -16.164 112.67 110.77
17 0 108.4 112.67
18 -16.164 110.77 112.67
19 -22.045 112.67 112.67
20 4.4444 117.94 120.05
21 -14.4097 118.9 120.05
22 -5.8888 120.05 111
23 0 120.05 108.4
24 0 108.4 110.77
25 0 108.4 112.67
26 -12.564 110.77 110.77
27 -16.164 110.77 112.67
28 0 112.67 108.4
29 -16.164 112.67 110.77
30 -22.045 112.67 112.67
31 0 110.77 108.4
32 -12.564 110.77 110.77
33 -16.164 110.77 112.67
34 0 112.67 108.4
35 -16.164 112.67 110.77
36 -22.045 112.67 112.67

EndBondTorsion Coeffs

1 0 -0.4879 0 0 -1.797 0 1.0982 1.501
2 0 -6.8958 0 0 -0.4669 0 1.417 1.0982
3 0 -0.6918 0 0 0.2421 0 1.417 1.501
4 -0.1185 6.3204 0 -0.1185 6.3204 0 1.417 1.417
5 0 -0.689 0 0 -0.689 0 1.0982 1.0982
6 0 0 0 0 0 0 1.417 1.0883
7 0 0 0 0 0 0 1.417 1.34
8 0 0 0 0 0 0 1.501 1.0883
9 0.7129 0.5161 0 0.7129 0.5161 0 1.0883 1.0883
10 0 -0.4879 0 0 -1.797 0 1.0982 1.501
11 0 -0.6918 0 0 0.2421 0 1.417 1.501
12 -0.5835 1.122 0.3978 1.3997 0.7756 0 1.417 1.101
13 0 0 0 0 0 0 1.417 1.53
14 0 0 0 0 0 0 1.501 1.101
15 0.213 0.312 0.0777 0.213 0.312 0.0777 1.101 1.101
16 0.2486 0.2422 -0.0925 0.0814 0.0591 0.2219 1.53 1.101
17 0 0 0 0 0 0 1.501 1.53
18 0.0814 0.0591 0.2219 0.2486 0.2422 -0.0925 1.101 1.53
19 -0.0732 0 0 -0.0732 0 0 1.53 1.53
20 0 -0.4879 0 0 -1.797 0 1.0982 1.501
21 0 -0.6918 0 0 0.2421 0 1.417 1.501
22 -0.5835 1.122 0.3978 1.3997 0.7756 0 1.417 1.101
23 0 0 0 0 0 0 1.417 1.53
24 0 0 0 0 0 0 1.501 1.101
25 0 0 0 0 0 0 1.501 1.53
26 0.213 0.312 0.0777 0.213 0.312 0.0777 1.101 1.101
27 0.0814 0.0591 0.2219 0.2486 0.2422 -0.0925 1.101 1.53
28 0 0 0 0 0 0 1.53 1.501
29 0.2486 0.2422 -0.0925 0.0814 0.0591 0.2219 1.53 1.101
30 -0.0732 0 0 -0.0732 0 0 1.53 1.53
31 0 0 0 0 0 0 1.101 1.501
32 0.213 0.312 0.0777 0.213 0.312 0.0777 1.101 1.101
33 0.0814 0.0591 0.2219 0.2486 0.2422 -0.0925 1.101 1.53
34 0 0 0 0 0 0 1.53 1.501
35 0.2486 0.2422 -0.0925 0.0814 0.0591 0.2219 1.53 1.101
36 -0.0732 0 0 -0.0732 0 0 1.53 1.53

MiddleBondTorsion Coeffs

1 0 3.9421 0 1.417
2 0 -1.1521 0 1.417
3 0 9.1792 0 1.417
4 27.5989 -2.312 0 1.417
5 0 4.8228 0 1.417
6 0 0 0 1.501
7 0 0 0 1.501
8 0 0 0 1.34
9 0.8558 6.3911 0 1.34
10 0 3.9421 0 1.417
11 0 9.1792 0 1.417
12 -5.5679 1.4083 0.301 1.501
13 0 0 0 1.501
14 0 0 0 1.53
15 -14.261 -0.5322 -0.4864 1.53
16 -14.879 -3.6581 -0.3138 1.53
17 0 0 0 1.53
18 -14.879 -3.6581 -0.3138 1.53
19 -17.787 -7.1877 0 1.53
20 0 3.9421 0 1.417
21 0 9.1792 0 1.417
22 -5.5679 1.4083 0.301 1.501
23 0 0 0 1.501
24 0 0 0 1.53
25 0 0 0 1.53
26 -14.261 -0.5322 -0.4864 1.53
27 -14.879 -3.6581 -0.3138 1.53
28 0 0 0 1.53
29 -14.879 -3.6581 -0.3138 1.53
30 -17.787 -7.1877 0 1.53
31 0 0 0 1.53
32 -14.261 -0.5322 -0.4864 1.53
33 -14.879 -3.6581 -0.3138 1.53
34 0 0 0 1.53
35 -14.879 -3.6581 -0.3138 1.53
36 -17.787 -7.1877 0 1.53

BondBond13 Coeffs

1 0.8743 1.0982 1.501
2 -6.2741 1.417 1.0982
3 2.5085 1.417 1.501
4 53 1.417 1.417
5 -1.7077 1.0982 1.0982
6 0 1.417 1.0883
7 0 1.417 1.34
8 0 1.501 1.0883
9 0 1.0883 1.0883
10 0.8743 1.0982 1.501
11 2.5085 1.417 1.501
12 -3.4826 1.417 1.101
13 0 1.417 1.53
14 0 1.501 1.101
15 0 1.101 1.101
16 0 1.53 1.101
17 0 1.501 1.53
18 0 1.101 1.53
19 0 1.53 1.53
20 0.8743 1.0982 1.501
21 2.5085 1.417 1.501
22 -3.4826 1.417 1.101
23 0 1.417 1.53
24 0 1.501 1.101
25 0 1.501 1.53
26 0 1.101 1.101
27 0 1.101 1.53
28 0 1.53 1.501
29 0 1.53 1.101
30 0 1.53 1.53
31 0 1.101 1.501
32 0 1.101 1.101
33 0 1.101 1.53
34 0 1.53 1.501
35 0 1.53 1.101
36 0 1.53 1.53

AngleTorsion Coeffs

1 0 3.4601 0 0 -0.1242 0 117.94 120.05
2 0 2.5014 0 0 2.7147 0 118.9 117.94
3 0 3.8987 0 0 -4.4683 0 118.9 120.05
4 1.9767 1.0239 0 1.9767 1.0239 0 118.9 118.9
5 0 2.4501 0 0 2.4501 0 117.94 117.94
6 0 0 0 0 0 0 120.05 111
7 0 0 0 0 0 0 120.05 108.4
8 0 0 0 0 0 0 108.4 124.88
9 -1.8911 3.254 0 -1.8911 3.254 0 124.88 124.88
10 0 3.4601 0 0 -0.1242 0 117.94 120.05
11 0 3.8987 0 0 -4.4683 0 118.9 120.05
12 0.2251 0.6548 0.1237 4.6266 0.1632 0.0461 120.05 111
13 0 0 0 0 0 0 120.05 108.4
14 0 0 0 0 0 0 108.4 110.77
15 -0.8085 0.5569 -0.2466 -0.8085 0.5569 -0.2466 110.77 110.77
16 -0.2454 0 -0.1136 0.3113 0.4516 -0.1988 112.67 110.77
17 0 0 0 0 0 0 108.4 112.67
18 0.3113 0.4516 -0.1988 -0.2454 0 -0.1136 110.77 112.67
19 0.3886 -0.3139 0.1389 0.3886 -0.3139 0.1389 112.67 112.67
20 0 3.4601 0 0 -0.1242 0 117.94 120.05
21 0 3.8987 0 0 -4.4683 0 118.9 120.05
22 0.2251 0.6548 0.1237 4.6266 0.1632 0.0461 120.05 111
23 0 0 0 0 0 0 120.05 108.4
24 0 0 0 0 0 0 108.4 110.77
25 0 0 0 0 0 0 108.4 112.67
26 -0.8085 0.5569 -0.2466 -0.8085 0.5569 -0.2466 110.77 110.77
27 0.3113 0.4516 -0.1988 -0.2454 0 -0.1136 110.77 112.67
28 0 0 0 0 0 0 112.67 108.4
29 -0.2454 0 -0.1136 0.3113 0.4516 -0.1988 112.67 110.77
30 0.3886 -0.3139 0.1389 0.3886 -0.3139 0.1389 112.67 112.67
31 0 0 0 0 0 0 110.77 108.4
32 -0.8085 0.5569 -0.2466 -0.8085 0.5569 -0.2466 110.77 110.77
33 0.3113 0.4516 -0.1988 -0.2454 0 -0.1136 110.77 112.67
34 0 0 0 0 0 0 112.67 108.4
35 -0.2454 0 -0.1136 0.3113 0.4516 -0.1988 112.67 110.77
36 0.3886 -0.3139 0.1389 0.3886 -0.3139 0.1389 112.67 112.67

Improper Coeffs # class2

1 4.8912 0
2 7.8153 0
3 0 0
4 2.8561 0
5 7.8153 0
6 0 0
7 0 0
8 7.8153 0
9 0 0

AngleAngle Coeffs

1 0 0 0 118.9 117.94 117.94
2 0 0 0 118.9 120.05 120.05
3 0 0 0 111 124.88 108.4
4 0 0 0 115.49 124.88 124.88
5 0 0 0 118.9 120.05 120.05
6 0 0 0 107.66 110.77 110.77
7 0 0 0 111 110.77 108.4
8 0 0 0 118.9 120.05 120.05
9 0 0 0 111 110.77 108.4

Atoms # full

40602 2538 2 1.2880000000000000e-01 3.3609401967585955e+00 4.4067042595247594e+00 1.7652703015153694e+01 0 1 -1
111366 6961 2 1.2370000000000000e-01 2.5287450867535228e+00 3.4595752969959102e+00 5.5197750474116489e+00 0 0 0
111365 6961 1 -1.2900000000000000e-01 2.2477552210789034e+00 4.1940380679220048e+00 6.2531010916436118e+00 0 0 0
111364 6961 3 -1.8200000000000001e-02 4.6534606713809783e+00 4.0872493335204627e+00 6.6406706800933657e+00 0 0 0
111373 6961 2 5.1600000000000000e-02 4.7065862756318362e+00 3.1388066541018711e+00 7.1483388517476536e+00 0 0 0
107224 6702 2 1.4030000000000001e-01 4.3747823735813256e+00 6.6777036283374303e+00 1.8126826734147052e+01 1 0 -1
107223 6702 1 -1.7340000000000000e-01 3.3819489105921479e+00 7.1051571061898393e+00 1.9476793708830493e+00 1 0 0
40599 2538 1 -1.7340000000000000e-01 1.7897991574638404e+01 3.7109360216682128e+00 1.7502909648810935e+01 -1 1 -1
40600 2538 2 1.4030000000000001e-01 1.7761669662555619e+01 4.2961185209612616e+00 1.6631333893439564e+01 -1 1 -1
41356 2585 2 1.4030000000000001e-01 5.9156631480771527e+00 1.0478394367195754e+01 8.3875585503933614e+00 0 1 1
107222 6702 2 1.2370000000000000e-01 3.6715671896819093e+00 6.6024431064152225e+00 4.0510480747089339e+00 1 0 0
40597 2538 1 -1.2900000000000000e-01 1.6955889539378134e+01 2.7829267678458436e+00 1.7962156465993502e+01 -1 1 -1
40598 2538 2 1.2370000000000000e-01 1.5942867471528109e+01 2.6001610609395129e+00 1.7514042185813334e+01 -1 1 -1
111367 6961 1 -1.7340000000000000e-01 1.7495745294265745e+01 4.6877369518904199e+00 6.4410612543144401e+00 -1 0 0
111368 6961 2 1.4030000000000001e-01 1.6684286240405104e+01 4.1990863000633958e+00 5.8354395711206708e+00 -1 0 0
188723 11796 1 2.6599999999999999e-02 1.2794445780805036e+01 4.8153878517226305e+00 2.8366538199234208e+00 0 2 0
188726 11796 2 1.2370000000000000e-01 1.1307621657711582e+01 6.0648965933332004e+00 3.8852435658831435e+00 0 2 0
188736 11796 2 3.5400000000000001e-02 1.0942691320187310e+01 2.8660493976532067e+00 3.6592390992421064e+00 0 2 0
41360 2585 2 3.5400000000000001e-02 8.5172276274172862e+00 6.6772583543717241e+00 4.6258553568569134e+00 0 1 1
111375 6961 2 3.5400000000000001e-02 5.1160863341697551e+00 3.1557498302500560e+00 4.8281676316055648e+00 0 0 0
41346 2585 2 1.2370000000000000e-01 5.2803967127973479e+00 8.3738447196883783e+00 7.1113512659172891e+00 0 1 1
41359 2585 2 3.5400000000000001e-02 7.0805979681390792e+00 5.5480506789621362e+00 4.1107885168230087e+00 0 1 1
188725 11796 1 -1.2900000000000000e-01 1.2408079703909788e+01 5.7336269491919198e+00 3.7349335138244366e+00 0 2 0
188729 11796 1 -1.1340000000000000e-01 1.4703709315154203e+01 6.4426943408965585e+00 4.1248777022829106e+00 0 2 0
188727 11796 1 -1.7340000000000000e-01 1.3333557950108901e+01 6.5153791380185462e+00 4.4423297264254140e+00 0 2 0
20158 1260 4 -6.9599999999999995e-02 1.3854962450513005e+01 1.7558158358296474e+01 6.0985091703687049e+00 -1 0 0
20160 1260 2 3.5400000000000001e-02 1.2918711114031632e+01 1.7814458238382855e+01 5.7425825995785100e+00 -1 0 0
20148 1260 3 -1.8200000000000001e-02 1.4873275896132416e+01 1.9084526466056861e+00 6.2828310713786459e+00 -1 1 0
188728 11796 2 1.4030000000000001e-01 1.2869094657766244e+01 7.2098256594356229e+00 5.1535483885770113e+00 0 2 0
20157 1260 2 5.1600000000000000e-02 1.5744980877568938e+01 1.8128011607429414e+01 6.7646315462574487e+00 -1 0 0
188730 11796 2 1.2880000000000000e-01 1.5413809605693494e+01 7.1215792753373064e+00 4.6045554272301157e+00 0 2 0
41355 2585 1 -1.7340000000000000e-01 6.6267551131373832e+00 1.0027638223239382e+01 7.7182869694089700e+00 0 1 1
108389 6775 1 -1.2900000000000000e-01 7.0133566713184710e+00 1.1863505693448808e+01 3.0100421026579314e+00 0 0 1
41327 2583 2 3.5400000000000001e-02 1.8025151826355874e+01 1.5680601368303122e+01 5.4799644916431216e+00 -1 0 1
41326 2583 4 -6.9599999999999995e-02 2.5704711045235697e+00 1.5575122040069637e+01 5.4065270673139985e+00 0 0 1
41328 2583 2 3.5400000000000001e-02 2.9997429592273956e+00 1.4685386861680085e+01 4.9759285267091098e+00 0 0 1
108390 6775 2 1.2370000000000000e-01 6.9836751439323628e+00 1.0846526933351964e+01 3.4784800869303512e+00 0 0 1
108391 6775 1 -1.7340000000000000e-01 6.8087445208925681e+00 1.3003486840032258e+01 3.7761607679871307e+00 0 0 1
41353 2585 1 -1.1340000000000000e-01 7.8573883366696089e+00 1.0627162455737775e+01 7.3859043657940493e+00 0 1 1
41351 2585 1 -1.7340000000000000e-01 8.6981014387032438e+00 1.0201900398046481e+01 6.3533593539380941e+00 0 1 1
107221 6702 1 -1.2900000000000000e-01 3.1758840802872599e+00 7.1678179098614141e+00 3.2854613341877181e+00 1 0 0
107219 6702 1 2.6599999999999999e-02 2.0748866096178964e+00 7.9461425898687992e+00 3.7753484383081610e+00 1 0 0
107232 6702 2 3.5400000000000001e-02 1.7648721744994319e+01 1.0103122840036239e+01 4.7798275704340671e+00 0 0 0
108392 6775 2 1.4030000000000001e-01 6.3995996961287833e+00 1.2731343992705472e+01 4.7487947462305771e+00 0 0 1
41354 2585 2 1.2880000000000000e-01 8.1692015925027768e+00 1.1493632013886158e+01 7.9544056830537269e+00 0 1 1
69384 4337 2 1.4030000000000001e-01 1.2507275934560081e+01 9.2207766533505673e+00 7.3246588169625140e+00 0 1 1
41345 2585 1 -1.2900000000000000e-01 6.3195931272585391e+00 8.8692855685170500e+00 6.9676292860762716e+00 0 1 1
41347 2585 1 2.6599999999999999e-02 7.0702614826346544e+00 8.4743337141795241e+00 5.8547594819621187e+00 0 1 1
41357 2585 2 5.1600000000000000e-02 5.5016574767426301e+00 7.4706228475946332e+00 4.6418688283853040e+00 0 1 1
41358 2585 4 -6.9599999999999995e-02 7.4737228534116324e+00 6.4899475004190332e+00 4.5180419190464987e+00 0 1 1
41348 2585 3 -1.8200000000000001e-02 6.6062265756796981e+00 7.5175310927852941e+00 4.7713364455934872e+00 0 1 1
41349 2585 1 -1.2900000000000000e-01 8.2441070780215853e+00 9.1470326477281088e+00 5.5160478380515663e+00 0 1 1
41350 2585 2 1.2370000000000000e-01 8.8604728777063109e+00 8.8987664442336971e+00 4.6534059979647555e+00 0 1 1
69382 4337 2 1.2370000000000000e-01 1.2037994406712755e+01 1.1438693923544918e+01 6.6961121531796941e+00 0 1 1
108400 6775 2 3.5400000000000001e-02 9.4434155310323717e+00 1.0779831061177935e+01 1.7308995238384654e+01 0 0 0
107220 6702 3 -1.8200000000000001e-02 1.8511457716678090e+00 8.2067707732304527e+00 5.1884876711911101e+00 1 0 0
107229 6702 2 5.1600000000000000e-02 2.3229493400774794e+00 7.4350000572163024e+00 5.7660915302438154e+00 1 0 0
65551 4097 2 3.5400000000000001e-02 1.8064251645249804e+01 1.2963289176981608e+01 5.4842508762037534e+00 0 0 0
107230 6702 4 -6.9599999999999995e-02 1.8228240499767143e+00 9.5598483570416146e+00 5.3379848839478363e+00 1 0 0
107231 6702 2 3.5400000000000001e-02 2.5955528839673567e+00 1.0106560918497969e+01 5.9757939945393543e+00 1 0 0
148088 9256 2 1.4030000000000001e-01 1.1762030797439378e+01 1.1693785579271282e+01 4.4638937261529295e+00 0 0 1
148090 9256 2 1.2880000000000000e-01 1.4099636105822544e+01 1.2327433192859456e+01 4.0225129791140546e+00 0 0 1
148087 9256 1 -1.7340000000000000e-01 1.1979028403125646e+01 1.2633659013855903e+01 3.9376689709327510e+00 0 0 1
148089 9256 1 -1.1340000000000000e-01 1.3280445370302795e+01 1.3014281950759539e+01 3.7240436336308522e+00 0 0 1
40604 2538 2 1.4030000000000001e-01 4.0250594599637042e+00 2.7167655841048841e+00 2.9671010133230107e+00 0 1 0
40603 2538 1 -1.7340000000000000e-01 2.9715213077297893e+00 2.8387700187263976e+00 2.6496011286331638e+00 0 1 0
40601 2538 1 -1.1340000000000000e-01 2.6436717484652190e+00 3.7161784029911313e+00 1.8118381074995945e+01 0 1 -1
41314 2583 2 1.2370000000000000e-01 6.1655197061189391e+00 1.6429093178302054e+01 5.2634660717283719e+00 0 0 1
40594 2538 2 1.2370000000000000e-01 2.3106168557244260e+00 1.7574548555023910e+01 3.6114577101537471e+00 0 0 0
40593 2538 1 -1.2900000000000000e-01 2.0192147877585960e+00 1.8971927062618956e+00 2.9622660579545812e+00 0 1 0
40595 2538 1 2.6599999999999999e-02 1.7291779626197169e+01 1.8599578675608062e+00 2.3904540665275351e+00 -1 1 0
41316 2583 3 -1.8200000000000001e-02 3.4212771996318807e+00 1.6520636908143409e+01 5.7386914040715045e+00 0 0 1
108393 6775 1 -1.1340000000000000e-01 6.6499881779146026e+00 1.4259117018515532e+01 3.0584002634074370e+00 0 0 1
108394 6775 2 1.2880000000000000e-01 6.1964048810474663e+00 1.5224374946621646e+01 3.4935080873808033e+00 0 0 1
41313 2583 1 -1.2900000000000000e-01 5.8827015465618375e+00 1.5865587321912503e+01 6.1431437364315027e+00 0 0 1
108395 6775 1 -1.7340000000000000e-01 7.1097892289262878e+00 1.4350613194723607e+01 1.7470717630973838e+00 0 0 1
108396 6775 2 1.4030000000000001e-01 6.9903337205295530e+00 1.5224750453488815e+01 1.7644673266894884e+01 0 0 0
148096 9256 2 3.5400000000000001e-02 1.0752335098968890e+01 1.7218144880618222e+01 3.5500932917187793e+00 0 0 1
148095 9256 2 3.5400000000000001e-02 1.0359671951490158e+01 1.7522361890554926e+01 1.8218190609141388e+01 0 0 0
148094 9256 4 -6.9599999999999995e-02 1.0424710670624640e+01 1.6814346694132169e+01 2.5033401382466907e+00 0 0 1
40608 2538 2 3.5400000000000001e-02 1.6659811918729936e+01 1.5824060712051581e+01 1.7856371334575492e+01 -1 0 -1
40607 2538 2 3.5400000000000001e-02 1.7068652155067138e+01 1.5312925579361091e+01 3.0807371681198257e+00 -1 0 0
40605 2538 2 5.1600000000000000e-02 1.6526035362495449e+01 1.7247373568378688e+01 3.9930857730966038e+00 -1 0 0
40606 2538 4 -6.9599999999999995e-02 1.6690607482896461e+01 1.6080613680347298e+01 2.3857659847545456e+00 -1 0 0
40596 2538 3 -1.8200000000000001e-02 1.6426787646343708e+01 1.7312070439154404e+01 2.8996717936988108e+00 -1 0 0
148093 9256 2 5.1600000000000000e-02 9.7084895751228579e+00 1.5206903985177071e+01 1.7929781969852563e+01 0 0 0
148084 9256 3 -1.8200000000000001e-02 1.0037261004726227e+01 1.5553915685523059e+01 2.3820334888623931e+00 0 0 1
148086 9256 2 1.2370000000000000e-01 9.8538164885967223e+00 1.3122374408103786e+01 3.7386171094020604e+00 0 0 1
148085 9256 1 -1.2900000000000000e-01 1.0915815138831038e+01 1.3468093486840369e+01 3.5699140224340207e+00 0 0 1
148083 9256 1 2.6599999999999999e-02 1.1127532644580404e+01 1.4687297959113698e+01 2.8927936993164374e+00 0 0 1
20159 1260 2 3.5400000000000001e-02 1.3926944139015212e+01 1.6557995485351512e+01 6.3887938420848460e+00 -1 0 0
148081 9256 1 -1.2900000000000000e-01 1.2492118565628704e+01 1.4979897838545488e+01 2.6436586008146001e+00 0 0 1
148091 9256 1 -1.7340000000000000e-01 1.3530995074380009e+01 1.4213674981946097e+01 3.1123918617731032e+00 0 0 1
148092 9256 2 1.4030000000000001e-01 1.4623143267492075e+01 1.4535351487479833e+01 2.9973381899213969e+00 0 0 1
148082 9256 2 1.2370000000000000e-01 1.2782518572888232e+01 1.5903925404629245e+01 2.1259561679744268e+00 0 0 1
111363 6961 1 2.6599999999999999e-02 3.3251830344800792e+00 4.7485757568569973e+00 6.9113558564667130e+00 0 0 0
111369 6961 1 -1.1340000000000000e-01 1.7274039940012614e+01 5.7584093577092439e+00 7.2910114349614759e+00 -1 0 0
111371 6961 1 -1.7340000000000000e-01 1.8312835551908693e+00 6.2232465111479911e+00 8.1114550764182880e+00 0 0 0
111372 6961 2 1.4030000000000001e-01 1.8184339590637627e+01 7.0555999825672302e+00 8.7298916963317161e+00 -1 0 0
111362 6961 2 1.2370000000000000e-01 3.9289971116618676e+00 6.1185293409164041e+00 8.4690798450222537e+00 0 0 0
111361 6961 1 -1.2900000000000000e-01 3.1341751882158055e+00 5.7178553096834150e+00 7.8335342183333747e+00 0 0 0
43056 2691 2 3.5400000000000001e-02 7.3303403250812371e+00 4.9319934647318124e+00 1.0162980877015160e+01 0 1 0
195807 12238 2 3.5400000000000001e-02 3.1236778954925324e+00 2.4452125090877095e+00 1.1400842410014139e+01 2 2 1
195808 12238 2 3.5400000000000001e-02 2.0398723702262984e+00 2.7431930858712024e+00 9.8739778618202809e+00 2 2 1
195806 12238 4 -6.9599999999999995e-02 2.7616033282961303e+00 2.1041460428116832e+00 1.0438344594844656e+01 2 2 1
43041 2691 1 -1.2900000000000000e-01 6.3733220978070637e+00 4.4203611180779721e+00 1.3517632502395033e+01 0 1 0
43042 2691 2 1.2370000000000000e-01 5.6489085759325306e+00 4.6150266566474185e+00 1.2719368891868069e+01 0 1 0
43043 2691 1 2.6599999999999999e-02 7.7212675306349068e+00 4.4431128372749367e+00 1.3317902516492849e+01 0 1 0
43055 2691 2 3.5400000000000001e-02 7.5569470416398614e+00 3.2145118903989083e+00 1.1016915970754408e+01 0 1 0
43044 2691 3 -1.8200000000000001e-02 8.3614898082720455e+00 4.8362903846004572e+00 1.1991757246671359e+01 0 1 0
43054 2691 4 -6.9599999999999995e-02 7.6774180518032056e+00 4.2978431680872893e+00 1.1030363927900430e+01 0 1 0
150156 9385 2 1.4030000000000001e-01 6.9383382514086422e+00 1.7437119221893461e+01 9.1021782978174173e+00 1 1 -1
150155 9385 1 -1.7340000000000000e-01 8.0221029992533950e+00 1.7834769921916759e+01 9.1631290455798435e+00 1 1 -1
111374 6961 4 -6.9599999999999995e-02 4.7656438943583348e+00 4.0654137347449968e+00 5.3046612893154670e+00 0 0 0
111376 6961 2 3.5400000000000001e-02 4.7963400068324304e+00 4.9709930653728112e+00 4.7188309040401490e+00 0 0 0
150154 9385 2 1.2880000000000000e-01 8.1369513264721434e+00 2.0263974595218754e+00 7.1494567261751296e+00 1 2 -1
150153 9385 1 -1.1340000000000000e-01 8.6608899042584291e+00 1.8888977494944439e+00 8.0784138030671233e+00 1 2 -1
150151 9385 1 -1.7340000000000000e-01 1.0018867708590742e+01 2.2567570866800981e+00 8.0675401866229777e+00 1 2 -1
43046 2691 2 1.2370000000000000e-01 9.6303640603892067e+00 4.2459259032489243e+00 1.4177008871757124e+01 0 1 0
43053 2691 2 5.1600000000000000e-02 8.6562690567036107e+00 5.8993116724868262e+00 1.2016505189049507e+01 0 1 0
20146 1260 2 1.2370000000000000e-01 1.2925937029105093e+01 3.6154428198559656e+00 5.6919997433898892e+00 -1 1 0
111370 6961 2 1.2880000000000000e-01 1.6276841578468378e+01 6.1680557812999490e+00 7.4004318736634556e+00 -1 0 0
20155 1260 1 -1.7340000000000000e-01 1.2881099375913237e+01 4.8772017009451076e+00 7.4144207441793428e+00 -1 1 0
20145 1260 1 -1.2900000000000000e-01 1.3325636094702979e+01 3.8506374415214806e+00 6.6335193494241205e+00 -1 1 0
20149 1260 1 -1.2900000000000000e-01 1.4803237282058465e+01 3.1721920915819846e+00 8.3854646584058017e+00 -1 1 0
20153 1260 1 -1.1340000000000000e-01 1.3361990235494616e+01 5.0962782885434859e+00 8.6895105180563945e+00 -1 1 0
20154 1260 2 1.2880000000000000e-01 1.3027697793413543e+01 5.9629979486703641e+00 9.2441017743763290e+00 -1 1 0
20151 1260 1 -1.7340000000000000e-01 1.4380189422775935e+01 4.2223572958105908e+00 9.1399321348841838e+00 -1 1 0
20147 1260 1 2.6599999999999999e-02 1.4304259480768936e+01 3.0225224973374898e+00 7.0840404864415598e+00 -1 1 0
20152 1260 2 1.4030000000000001e-01 1.5000038710755923e+01 4.4820227233013270e+00 9.9846869651675494e+00 -1 1 0
20150 1260 2 1.2370000000000000e-01 1.5639941935305668e+01 2.5539512931406918e+00 8.7033169971457358e+00 -1 1 0
20156 1260 2 1.4030000000000001e-01 1.2081029146239729e+01 5.5619230729709805e+00 7.0240622755420876e+00 -1 1 0
150152 9385 2 1.4030000000000001e-01 1.0398677710841509e+01 2.6132174552595142e+00 7.1458602364708215e+00 1 2 -1
107926 6746 2 1.2370000000000000e-01 5.0564645669299786e+00 9.8206736952581757e+00 1.2050756067767006e+01 1 0 0
65549 4097 2 5.1600000000000000e-02 2.0092237695336150e+00 1.3647733560513613e+01 7.8060964087143585e+00 1 0 0
41318 2583 2 1.2370000000000000e-01 3.2889581470504385e+00 1.5395406831499587e+01 8.1227148731915086e+00 0 0 1
41320 2583 2 1.4030000000000001e-01 4.9623722046803023e+00 1.4094953957382288e+01 9.5590806118604554e+00 0 0 1
107925 6746 1 -1.2900000000000000e-01 6.0634867066543432e+00 9.5484282841539585e+00 1.2296230810664806e+01 1 0 0
107928 6746 2 1.4030000000000001e-01 6.6741988665111220e+00 9.2499811531291734e+00 1.0308875349648671e+01 1 0 0
107927 6746 1 -1.7340000000000000e-01 6.9187781699197348e+00 9.1217664477662801e+00 1.1322711921884700e+01 1 0 0
41352 2585 2 1.4030000000000001e-01 9.6017776350949440e+00 1.0818988642106115e+01 5.9796717383331348e+00 0 1 1
107931 6746 1 -1.7340000000000000e-01 8.8159008450723420e+00 9.2215476294842276e+00 1.2939060135330434e+01 1 0 0
107930 6746 2 1.2880000000000000e-01 9.1151905965455686e+00 8.8340925395314045e+00 1.0892578555618352e+01 1 0 0
107929 6746 1 -1.1340000000000000e-01 8.3352274204594607e+00 8.9222475622725810e+00 1.1632822526543650e+01 1 0 0
69386 4337 2 1.2880000000000000e-01 1.2475432366972534e+01 8.4535388534671192e+00 9.8010997231828423e+00 0 1 1
69385 4337 1 -1.1340000000000000e-01 1.2183961606338126e+01 9.5133083783428809e+00 9.5150186186307018e+00 0 1 1
69388 4337 2 1.4030000000000001e-01 1.1821311669543274e+01 1.0271543753950064e+01 1.1515153882968731e+01 0 1 1
69387 4337 1 -1.7340000000000000e-01 1.1871110594374576e+01 1.0483008707917794e+01 1.0444919114342293e+01 0 1 1
69379 4337 1 2.6599999999999999e-02 1.1857971549146844e+01 1.2184042292015063e+01 8.6614659076276297e+00 0 1 1
69378 4337 2 1.2370000000000000e-01 1.1317141396250484e+01 1.2573319300708581e+01 1.0672328887070607e+01 0 1 1
69377 4337 1 -1.2900000000000000e-01 1.1722235923015901e+01 1.1839046459537844e+01 1.0007231464783189e+01 0 1 1
69383 4337 1 -1.7340000000000000e-01 1.2261182546118910e+01 9.8671789721187935e+00 8.1443688661455607e+00 0 1 1
69381 4337 1 -1.2900000000000000e-01 1.2014141664603619e+01 1.1182218859954364e+01 7.7458662139445638e+00 0 1 1
107932 6746 2 1.4030000000000001e-01 9.8995913535996376e+00 9.2237698067897202e+00 1.3177685392622811e+01 1 0 0
65550 4097 4 -6.9599999999999995e-02 1.7458318049986850e+01 1.2626772124497204e+01 6.3525170639926802e+00 0 0 0
65552 4097 2 3.5400000000000001e-02 1.6665164338293771e+01 1.1937651629402151e+01 6.0235296511383511e+00 0 0 0
65540 4097 3 -1.8200000000000001e-02 1.7646955427571115e+01 1.3029929723406916e+01 7.5909570929344019e+00 0 0 0
69389 4337 2 5.1600000000000000e-02 1.2265189992326546e+01 1.4290742881741917e+01 8.4069171939395204e+00 0 1 1
69380 4337 3 -1.8200000000000001e-02 1.1555358586339914e+01 1.3518810236412984e+01 8.2012594227094588e+00 0 1 1
65542 4097 2 1.2370000000000000e-01 1.5690440868314797e+01 1.1580697705070271e+01 8.7879736220365245e+00 0 0 0
65539 4097 1 2.6599999999999999e-02 1.7811281801694086e+01 1.1774589953178271e+01 8.4290535902248998e+00 0 0 0
65543 4097 1 -1.7340000000000000e-01 1.6690991873171978e+01 1.0038282867815722e+01 9.7296121527578130e+00 0 0 0
65541 4097 1 -1.2900000000000000e-01 1.6665595158679011e+01 1.1138183814109587e+01 8.9474424737658609e+00 0 0 0
65544 4097 2 1.4030000000000001e-01 1.5750449560114141e+01 9.7712770926962200e+00 1.0179218454081040e+01 0 0 0
65545 4097 1 -1.1340000000000000e-01 1.7917505972636960e+01 9.5217739132725718e+00 1.0138662254181785e+01 0 0 0
65547 4097 1 -1.7340000000000000e-01 2.4985890098324282e+00 1.0025642898562477e+01 9.4176492999025960e+00 1 0 0
65537 4097 1 -1.2900000000000000e-01 2.5037460872226416e+00 1.1160633791856982e+01 8.6253692316834503e+00 1 0 0
65538 4097 2 1.2370000000000000e-01 3.4886865157086326e+00 1.1651865642923802e+01 8.2660122736916346e+00 1 0 0
41340 2584 2 1.4030000000000001e-01 1.6345251447958152e+01 1.0581077581118659e+01 1.2940303448103140e+01 -1 0 -1
101772 6361 2 1.4030000000000001e-01 1.2061325019095884e+01 8.2414580626526899e+00 1.2746827572696125e+01 0 0 0
41325 2583 2 5.1600000000000000e-02 3.2807546908780347e+00 1.7513301250682424e+01 6.1969284929278405e+00 0 0 1
41319 2583 1 -1.7340000000000000e-01 5.1667966032079615e+00 1.4504958612304554e+01 8.4899418683521528e+00 0 0 1
41317 2583 1 -1.2900000000000000e-01 4.2709331569515046e+00 1.5171166486203983e+01 7.7097533336229027e+00 0 0 1
41315 2583 1 2.6599999999999999e-02 4.5302208176436256e+00 1.5822738162287587e+01 6.5065100708848096e+00 0 0 1
195805 12238 2 5.1600000000000000e-02 3.4789342586146521e+00 1.6756199991066900e+01 1.0774146846249749e+01 2 1 1
195796 12238 3 -1.8200000000000001e-02 2.9396670397560705e+00 1.7364763999896855e+01 1.0037973077323782e+01 2 1 1
195794 12238 2 1.2370000000000000e-01 1.8172149588585661e+01 1.5879196184308281e+01 1.1942665785926817e+01 1 1 1
195795 12238 1 2.6599999999999999e-02 1.8189960246829628e+01 1.6557402820682235e+01 9.8951910057012231e+00 1 1 1
150146 9385 2 1.2370000000000000e-01 8.3229454006835439e+00 1.7106284894415296e+01 1.1175280806134634e+01 1 1 -1
41321 2583 1 -1.1340000000000000e-01 6.4886610422833844e+00 1.4417282047103134e+01 8.0372824966757364e+00 0 0 1
41324 2583 2 1.4030000000000001e-01 7.8692334894297309e+00 1.5217531732265087e+01 6.5759412635528571e+00 0 0 1
41323 2583 1 -1.7340000000000000e-01 6.8035306315514008e+00 1.5119554474942500e+01 6.8678298859343405e+00 0 0 1
41322 2583 2 1.2880000000000000e-01 7.2031050513797865e+00 1.3866464011687089e+01 8.6968935609528657e+00 0 0 1