ITEM: TIMESTEP
0
ITEM: NUMBER OF ATOMS
32000
ITEM: BOX BOUNDS pp pp pp
-4.0799999999999997e+01 4.0799999999999997e+01
-4.0799999999999997e+01 4.0799999999999997e+01
-4.0799999999999997e+01 4.0799999999999997e+01
ITEM: ATOMS id type xs ys zs c_pot v_mises c_kin 
1 1 0.0661048 -0.159591 -0.165029 -3.93 7.57035e-10 0.0653678 
2 1 0.089431 -0.13055 -0.160904 -3.93 1.21997e-09 0.0406265 
3 1 0.0916642 -0.155282 -0.137105 -3.93 1.27784e-09 0.0498949 
4 1 0.0638398 -0.134889 -0.138881 -3.93 1.15672e-09 0.0240805 
5 1 0.117203 -0.150894 -0.159159 -3.93 9.30449e-10 0.0538866 
6 1 0.140555 -0.121619 -0.154877 -3.93 1.04889e-09 0.0609144 
7 1 0.142714 -0.146428 -0.131192 -3.93 1.38853e-09 0.0503057 
8 1 0.115004 -0.126127 -0.132902 -3.93 1.4678e-09 0.0739327 
9 1 0.168193 -0.141885 -0.153206 -3.93 8.14994e-10 0.032025 
10 1 0.19156 -0.11235 -0.14876 -3.93 1.52336e-09 0.0755593 
11 1 0.193633 -0.137266 -0.125203 -3.93 1.81281e-09 0.017513 
12 1 0.166076 -0.117026 -0.126829 -3.93 1.65384e-09 0.0482979 
13 1 0.219026 -0.132576 -0.147185 -3.93 2.61841e-09 0.0561079 
14 1 0.242389 -0.102761 -0.142573 -3.93 3.72792e-09 0.0249867 
15 1 0.244365 -0.127818 -0.119156 -3.93 4.08103e-09 0.0504842 
16 1 0.217001 -0.107594 -0.120674 -3.93 2.9758e-09 0.0534764 
17 1 0.269641 -0.122999 -0.141119 -3.93 4.76005e-10 0.0589865 
18 1 0.29297 -0.0928911 -0.136341 -3.93 3.71626e-09 0.0393024 
19 1 0.294845 -0.118127 -0.113078 -3.93 4.09088e-09 0.0250845 
20 1 0.267715 -0.0978577 -0.114461 -3.93 1.54301e-09 0.0552256 
21 1 0.319969 -0.113213 -0.135036 -3.93 2.62974e-09 0.0138596 
22 1 0.343227 -0.082812 -0.130098 -3.93 1.55191e-09 0.0467195 
23 1 0.345004 -0.108267 -0.107 -3.93 1.81116e-09 0.0286233 
24 1 0.318144 -0.0878717 -0.108218 -3.93 2.92691e-09 0.038903 
25 1 0.369942 -0.103306 -0.128974 -3.93 9.47593e-10 0.0641885 
26 1 0.39308 -0.0726359 -0.123888 -3.93 1.84336e-09 0.0170942 
27 1 0.394775 -0.0983461 -0.100964 -3.93 2.41155e-09 0.0149314 
28 1 0.368208 -0.0777274 -0.101985 -3.93 1.87621e-09 0.0316115 
29 1 0.419497 -0.0934057 -0.122976 -3.93 1.43119e-09 0.0485256 
30 1 0.442466 -0.0625167 -0.117765 -3.93 2.39439e-09 0.0731954 
31 1 0.444103 -0.088506 -0.0950177 -3.93 2.44178e-09 0.0353135 
32 1 0.417835 -0.067558 -0.0958116 -3.93 2.35913e-09 0.0503379 
33 1 0.468592 -0.0836692 -0.117095 -3.93 6.68088e-10 0.0250715 
34 1 0.491347 -0.0526447 -0.111789 -3.93 1.6537e-09 0.0658728 
35 1 0.492964 -0.0789184 -0.0892152 -3.93 1.85211e-09 0.0464582 
36 1 0.46697 -0.0575369 -0.0897545 -3.93 1.63022e-09 0.0586594 
37 1 0.51722 -0.0742769 -0.111385 -3.93 7.62025e-10 0.0168841 
38 1 0.539732 -0.0432286 -0.106023 -3.93 1.48701e-09 0.0383339 
39 1 0.541366 -0.0697674 -0.0836109 -3.93 1.54187e-09 0.0611578 
40 1 0.515599 -0.0478667 -0.0838758 -3.93 1.87823e-09 0.00886895 
41 1 0.565411 -0.0654113 -0.105899 -3.93 8.93744e-10 0.0404342 
44 1 0.563755 -0.038755 -0.0782368 -3.93 1.95806e-09 0.0559514 
42 1 0.58768 -0.0344677 -0.100524 -3.93 1.53601e-09 0.0263561 
43 1 0.589366 -0.0612277 -0.0782555 -3.93 1.61919e-09 0.0423656 
45 1 0.613242 -0.0572329 -0.100685 -3.93 1.07174e-09 0.0311294 
48 1 0.611521 -0.0303852 -0.0728911 -3.93 1.74704e-09 0.0096352 
46 1 0.635295 -0.0265219 -0.0953416 -3.93 1.66064e-09 0.00855305 
47 1 0.637054 -0.0534401 -0.073191 -3.93 1.50572e-09 0.0977199 
49 1 0.660817 -0.0498584 -0.0957777 -3.93 4.89667e-10 0.00634008 
52 1 0.659019 -0.0228878 -0.0678795 -3.93 2.30142e-09 0.043873 
50 1 0.682711 -0.0194885 -0.0905072 -3.93 1.92998e-09 0.00319436 
51 1 0.684548 -0.0464934 -0.0684471 -3.93 1.95225e-09 0.0101168 
53 1 0.70826 -0.0433472 -0.0912007 -3.93 1.61051e-09 0.0502339 
56 1 0.706387 -0.0163253 -0.0632264 -3.93 3.20726e-09 0.0108263 
54 1 0.730064 -0.0133954 -0.0860373 -3.93 1.87861e-09 0.0195959 
55 1 0.731968 -0.0404181 -0.0640391 -3.93 2.66924e-09 0.0642424 
57 1 0.755687 -0.0377016 -0.0869623 -3.93 4.71002e-10 0.0476228 
60 1 0.753756 -0.0106927 -0.0589396 -3.93 1.79309e-09 0.0424582 
58 1 0.777476 -0.0082083 -0.0819321 -3.93 1.32098e-09 0.00643435 
59 1 0.779426 -0.035191 -0.0599694 -3.93 1.77372e-09 0.0483654 
61 1 0.803196 -0.0328771 -0.0830589 -3.93 2.61703e-09 0.0180753 
64 1 0.801233 -0.0059313 -0.0550128 -3.93 3.32483e-09 0.0334017 
62 1 0.825038 -0.0038493 -0.0781794 -3.93 3.33317e-09 0.0580245 
63 1 0.827006 -0.0307496 -0.056229 -3.93 3.98383e-09 0.0424724 
65 1 0.850862 -0.0287973 -0.0794773 -3.93 4.83152e-10 0.0307534 
68 1 0.848894 -0.00194909 -0.0514289 -3.93 1.64659e-09 0.078529 
66 1 0.872809 -0.000217055 -0.0747582 -3.93 3.85339e-09 0.0169389 
67 1 0.874768 -0.0270083 -0.0528012 -3.93 3.9567e-09 0.0341444 
69 1 0.898728 -0.0253706 -0.0761979 -3.93 2.58506e-09 0.0224428 
72 1 0.896783 0.00136033 -0.048164 -3.93 2.76414e-09 0.0331409 
70 1 0.920819 0.00279626 -0.0716427 -3.93 1.20559e-09 0.00659393 
71 1 0.922745 -0.0238724 -0.0496644 -3.93 1.40874e-09 0.0034327 
73 1 0.946819 -0.0225022 -0.0731976 -3.93 1.13408e-09 0.0410343 
76 1 0.944916 0.00410335 -0.045191 -3.93 1.36863e-09 0.0614045 
74 1 0.969075 0.00529347 -0.0688052 -3.93 1.41153e-09 0.0265219 
75 1 0.97095 -0.021249 -0.0467944 -3.93 1.17624e-09 0.0361279 
77 1 0.995137 -0.0201025 -0.0704518 -3.93 1.91473e-09 0.0740422 
80 1 0.993294 0.00637769 -0.0424819 -3.93 1.31809e-09 0.0706085 
78 1 1.01757 0.00736623 -0.0662178 -3.93 1.41626e-09 0.0335401 
79 1 1.01938 -0.0190531 -0.0441667 -3.93 1.69356e-09 0.0363802 
81 1 0.0614831 -0.110222 -0.162758 -3.93 6.58928e-10 0.00713398 
82 1 0.0846791 -0.0812015 -0.158581 -3.93 1.03898e-09 0.0287338 
83 1 0.0871047 -0.105857 -0.134728 -3.93 1.48647e-09 0.0580303 
84 1 0.059029 -0.0855895 -0.136665 -3.93 8.35928e-10 0.0185357 
85 1 0.112713 -0.101401 -0.15667 -3.93 1.03006e-09 0.0483586 
86 1 0.135946 -0.0721357 -0.152318 -3.93 2.36141e-11 0.0480359 
87 1 0.138301 -0.0968544 -0.128584 -3.93 1.06232e-09 0.0443125 
88 1 0.11032 -0.0767177 -0.130465 -3.93 1.01878e-09 0.0462243 
89 1 0.163864 -0.0922155 -0.150472 -3.93 1.25229e-09 0.00661075 
90 1 0.187127 -0.0626724 -0.145935 -3.93 4.92585e-10 0.00607547 
91 1 0.189395 -0.0874852 -0.122337 -3.93 1.8544e-09 0.0711061 
92 1 0.161551 -0.0674541 -0.124141 -3.93 1.43195e-09 0.0281263 
93 1 0.214884 -0.082665 -0.144179 -3.93 2.50476e-09 0.0273039 
94 1 0.238162 -0.0528126 -0.139448 -3.93 3.26598e-09 0.0148842 
95 1 0.240324 -0.0777583 -0.116003 -3.93 3.49824e-09 0.0352894 
96 1 0.212667 -0.0577912 -0.117703 -3.93 2.8138e-09 0.0274006 
97 1 0.265705 -0.0727701 -0.137811 -3.93 3.13732e-10 0.0115701 
98 1 0.288968 -0.0425825 -0.132883 -3.93 2.62949e-09 0.00316355 
99 1 0.291015 -0.0677078 -0.109608 -3.93 3.3514e-09 0.0417761 
100 1 0.263599 -0.0477409 -0.111174 -3.93 1.29635e-09 0.0145146 
101 1 0.316243 -0.0625811 -0.131399 -3.93 2.47386e-09 0.0316561 
102 1 0.339451 -0.0320464 -0.126276 -3.93 5.28364e-10 0.0153263 
103 1 0.341379 -0.0574029 -0.103189 -3.93 1.4694e-09 0.0568424 
104 1 0.314256 -0.0373468 -0.104582 -3.93 2.8418e-09 0.0092043 
105 1 0.36641 -0.052189 -0.124984 -3.93 1.02456e-09 0.0260849 
106 1 0.389505 -0.0213205 -0.119678 -3.93 1.384e-09 0.0461446 
107 1 0.391326 -0.0469586 -0.096792 -3.93 2.41424e-09 0.0304269 
108 1 0.364538 -0.0266976 -0.0979722 -3.93 1.7327e-09 0.0715539 
109 1 0.416118 -0.041734 -0.11862 -3.93 1.77268e-09 0.0336653 
110 1 0.439036 -0.010582 -0.113155 -3.93 1.49819e-09 0.0285594 
111 1 0.440778 -0.0365406 -0.0904774 -3.93 2.72006e-09 0.0174697 
112 1 0.414341 -0.0159393 -0.0914028 -3.93 2.38752e-09 0.0572075 
113 1 0.465302 -0.0314062 -0.112372 -3.93 1.74775e-09 0.0517448 
114 1 0.48798 -6.67859e-05 -0.106785 -3.93 1.03998e-09 0.0427955 
115 1 0.489687 -0.0263604 -0.084313 -3.93 1.9578e-09 0.0386594 
116 1 0.463583 -0.00527997 -0.0849459 -3.93 1.94234e-09 0.0181372 
117 1 0.513936 -0.0214337 -0.10631 -3.93 1.0023e-09 0.0579959 
118 1 0.536332 0.0099537 -0.100649 -3.93 1.29201e-09 0.0121323 
119 1 0.538055 -0.0166557 -0.0783705 -3.93 2.2297e-09 0.0570021 
120 1 0.512227 0.00502263 -0.0786824 -3.93 2.80809e-09 0.0116844 
121 1 0.562055 -0.0120546 -0.100504 -3.93 1.51581e-09 0.0484725 
124 1 0.560306 0.0146938 -0.0726943 -3.93 1.91837e-09 0.0314954 
122 1 0.584164 0.0192138 -0.0948267 -3.93 7.70229e-10 0.0550511 
123 1 0.585947 -0.0076555 -0.072717 -3.93 1.68977e-09 0.0267207 
125 1 0.609751 -0.00347942 -0.0950165 -3.93 1.44005e-09 0.0164279 
128 1 0.607925 0.0234898 -0.0670537 -3.93 1.95457e-09 0.0467347 
126 1 0.631612 0.0275036 -0.0893811 -3.93 1.0361e-09 0.0512463 
127 1 0.633483 0.000457527 -0.0674075 -3.93 1.67692e-09 0.0111044 
129 1 0.657164 0.00414455 -0.089894 -3.93 1.96144e-09 0.00869801 
132 1 0.655247 0.0312436 -0.0618134 -3.93 1.88929e-09 0.048038 
130 1 0.678853 0.0347051 -0.0843532 -3.93 1.48373e-09 0.0556558 
131 1 0.680814 0.00757627 -0.0624786 -3.93 2.58007e-09 0.0697332 
133 1 0.704453 0.0107525 -0.0851626 -3.93 2.06549e-09 0.0282793 
136 1 0.702452 0.0378891 -0.0570017 -3.93 3.38587e-09 0.0496498 
134 1 0.726065 0.0408022 -0.0797589 -3.93 1.39058e-09 0.0127418 
135 1 0.728098 0.0136775 -0.0579463 -3.93 2.57062e-09 0.0507195 
137 1 0.751764 0.0163597 -0.0808289 -3.93 1.23929e-09 0.0760192 
140 1 0.749707 0.0434554 -0.0526232 -3.93 2.57967e-09 0.0283791 
138 1 0.773394 0.0458628 -0.0755922 -3.93 4.34692e-10 0.0365942 
139 1 0.775466 0.0188101 -0.0538084 -3.93 7.76175e-10 0.0309535 
141 1 0.799214 0.0210421 -0.0768826 -3.93 2.99754e-09 0.0704512 
144 1 0.797136 0.0480406 -0.0486627 -3.93 3.95709e-09 0.0379828 
142 1 0.820942 0.0500065 -0.0718308 -3.93 2.65122e-09 0.0761203 
143 1 0.823017 0.0230706 -0.0500483 -3.93 3.37889e-09 0.0223316 
145 1 0.846879 0.0249109 -0.073302 -3.93 1.04364e-09 0.0517618 
148 1 0.844816 0.0517784 -0.0450923 -3.93 1.56229e-09 0.0232894 
146 1 0.868762 0.0533741 -0.0684427 -3.93 3.10015e-09 0.0272808 
147 1 0.870806 0.0265787 -0.0466399 -3.93 3.3705e-09 0.0804052 
149 1 0.8948 0.0280891 -0.0700581 -3.93 2.68687e-09 0.0656644 
152 1 0.892781 0.0548106 -0.0418772 -3.93 3.3748e-09 0.0578838 
150 1 0.916873 0.056104 -0.0653913 -3.93 8.76887e-10 0.0218168 
151 1 0.91886 0.0294569 -0.0435526 -3.93 9.2825e-10 0.0055771 
153 1 0.942988 0.0306956 -0.0671193 -3.93 1.34184e-09 0.0499784 
156 1 0.941036 0.0572693 -0.0389803 -3.93 2.15097e-09 0.0259818 
154 1 0.965269 0.0583201 -0.0626397 -3.93 1.03703e-09 0.0307257 
155 1 0.96718 0.0318183 -0.0407543 -3.93 1.37381e-09 0.050507 
157 1 0.991436 0.0328366 -0.0644536 -3.93 9.90026e-10 0.0213264 
160 1 0.989567 0.0592689 -0.0363653 -3.93 9.88907e-10 0.0193579 
158 1 1.01393 0.0601269 -0.060153 -3.93 5.85206e-10 0.035112 
159 1 1.01575 0.0337612 -0.0382137 -3.93 1.40192e-09 0.0905883 
161 1 0.0564719 -0.0609889 -0.160604 -3.93 4.03693e-10 0.052386 
162 1 0.0795039 -0.0319983 -0.156386 -3.93 1.41964e-09 0.0216417 
163 1 0.0821476 -0.0565827 -0.132465 -3.93 1.51059e-09 0.00561614 
164 1 0.0538061 -0.0364182 -0.134579 -3.93 1.35433e-09 0.0527919 
165 1 0.107819 -0.0520749 -0.154291 -3.93 9.85406e-10 0.0258877 
166 1 0.130897 -0.0228337 -0.14988 -3.93 4.97607e-10 0.052504 
167 1 0.13348 -0.0474624 -0.126081 -3.93 9.72317e-10 0.0210799 
168 1 0.105202 -0.0274716 -0.128153 -3.93 1.35837e-09 0.0253606 
169 1 0.159126 -0.0427426 -0.147837 -3.93 1.04744e-09 0.0073797 
170 1 0.182248 -0.0132099 -0.143216 -3.93 8.99106e-10 0.0443119 
171 1 0.184749 -0.0379137 -0.11956 -3.93 1.8753e-09 0.0237707 
172 1 0.156581 -0.0180808 -0.121567 -3.93 1.52976e-09 0.0488337 
173 1 0.21034 -0.0329752 -0.141252 -3.93 2.19916e-09 0.0605525 
174 1 0.233497 -0.00310709 -0.136407 -3.93 2.76187e-09 0.0105196 
175 1 0.23589 -0.0279279 -0.112915 -3.93 3.15922e-09 0.0272182 
176 1 0.207891 -0.0082189 -0.114829 -3.93 3.22187e-09 0.0189854 
177 1 0.261387 -0.0227747 -0.134553 -3.93 1.71104e-10 0.0299521 
178 1 0.284556 0.00747121 -0.129474 -3.93 2.71215e-09 0.0242908 
179 1 0.28682 -0.017521 -0.10617 -3.93 2.87306e-09 0.021237 
180 1 0.259057 0.00212422 -0.107954 -3.93 1.35037e-09 0.0147387 
181 1 0.312173 -0.0121752 -0.127771 -3.93 2.13743e-09 0.0416416 
182 1 0.335311 0.0184796 -0.122455 -3.93 8.92447e-10 0.0317978 
183 1 0.337432 -0.00674961 -0.0993632 -3.93 1.58673e-09 0.0243098 
184 1 0.30998 0.0129267 -0.100972 -3.93 3.18434e-09 0.0372894 
185 1 0.362582 -0.00126044 -0.120953 -3.93 6.79905e-10 0.0124878 
186 1 0.385624 0.0298079 -0.115406 -3.93 1.26411e-09 0.0513878 
187 1 0.387608 0.00427122 -0.0925486 -3.93 2.30289e-09 0.0274921 
188 1 0.360532 0.0241139 -0.0939295 -3.93 1.5957e-09 0.0330319 
189 1 0.412495 0.00981942 -0.11416 -3.93 1.64555e-09 0.0346746 
190 1 0.435357 0.0412587 -0.108407 -3.93 1.27541e-09 0.0284836 
191 1 0.437231 0.0153533 -0.0857986 -3.93 2.58255e-09 0.0354737 
192 1 0.410571 0.0355341 -0.0868944 -3.93 2.63055e-09 0.0367054 
193 1 0.461808 0.0208378 -0.107475 -3.93 1.3658e-09 0.0174322 
194 1 0.484403 0.0525404 -0.101559 -3.93 8.51645e-10 0.0344196 
195 1 0.48622 0.0262344 -0.0792012 -3.93 1.88015e-09 0.0302842 
196 1 0.45997 0.0469422 -0.0799576 -3.93 1.80164e-09 0.00519632 
197 1 0.510468 0.0315025 -0.10099 -3.93 7.43799e-10 0.0376937 
198 1 0.532731 0.0632918 -0.0949755 -3.93 1.06821e-09 0.00893436 
199 1 0.534559 0.0366019 -0.0728529 -3.93 2.19777e-09 0.0381778 
200 1 0.508654 0.0580061 -0.0732274 -3.93 2.51366e-09 0.0226637 
201 1 0.558506 0.0414944 -0.0948014 -3.93 1.26703e-09 0.0636455 
204 1 0.556648 0.0683522 -0.0668173 -3.93 2.64263e-09 0.0570175 
202 1 0.580425 0.0731472 -0.0887646 -3.93 9.28051e-10 0.0132484 
203 1 0.582325 0.0461459 -0.0668456 -3.93 1.54619e-09 0.0231179 
205 1 0.60604 0.0505287 -0.088994 -3.93 1.22319e-09 0.0412697 
208 1 0.604089 0.0776446 -0.0608276 -3.93 2.56848e-09 0.0589398 
206 1 0.627669 0.0818214 -0.0830139 -3.93 8.66577e-10 0.0352 
207 1 0.629677 0.0546225 -0.0612534 -3.93 1.6197e-09 0.0298286 
209 1 0.653261 0.058415 -0.0836285 -3.93 1.40245e-09 0.0170955 
212 1 0.651199 0.0856648 -0.0553288 -3.93 1.73456e-09 0.0645512 
210 1 0.674709 0.0891721 -0.0777751 -3.93 1.33502e-09 0.015874 
211 1 0.67682 0.0619022 -0.0561221 -3.93 2.3515e-09 0.050184 
213 1 0.700379 0.0650872 -0.0787352 -3.93 1.84991e-09 0.030956 
216 1 0.698226 0.0923494 -0.0503531 -3.93 3.48085e-09 0.0145309 
214 1 0.721776 0.0952102 -0.0730614 -3.93 7.10833e-10 0.0138414 
215 1 0.72396 0.0679797 -0.0514669 -3.93 2.53668e-09 0.0357112 
217 1 0.74758 0.0705938 -0.0743152 -3.93 8.63201e-10 0.0308155 
220 1 0.745378 0.0977732 -0.0458966 -3.93 1.83583e-09 0.0398918 
218 1 0.769047 0.100061 -0.0688545 -3.93 1.07475e-09 0.0364347 
219 1 0.771256 0.0729475 -0.0472767 -3.93 9.35326e-10 0.0552867 
221 1 0.794997 0.0750606 -0.0703471 -3.93 2.60371e-09 0.0590447 
224 1 0.792795 0.102097 -0.0419294 -3.93 3.78998e-09 0.0449732 
222 1 0.816627 0.103906 -0.0651155 -3.93 2.68583e-09 0.0129932 
223 1 0.818812 0.0769537 -0.0435217 -3.93 3.22761e-09 0.0268087 
225 1 0.842704 0.0786479 -0.0667954 -3.93 8.21818e-10 0.00669443 
228 1 0.840546 0.105513 -0.0384064 -3.93 1.78214e-09 0.0447422 
226 1 0.864554 0.106939 -0.0617958 -3.93 2.85828e-09 0.0366597 
227 1 0.866677 0.0801631 -0.0401626 -3.93 2.9128e-09 0.0164457 
229 1 0.890729 0.0815184 -0.0636179 -3.93 2.6979e-09 0.0822564 
232 1 0.888648 0.108205 -0.0352772 -3.93 3.63835e-09 0.0346634 
230 1 0.912826 0.109332 -0.0588444 -3.93 7.87917e-10 0.0370703 
231 1 0.91486 0.0827314 -0.0371561 -3.93 1.08415e-09 0.0188821 
233 1 0.939066 0.0838181 -0.0607717 -3.93 6.92445e-10 0.0814492 
236 1 0.937084 0.110335 -0.0324916 -3.93 1.67344e-09 0.0472209 
234 1 0.961416 0.111231 -0.0562132 -3.93 1.17176e-09 0.0449548 
235 1 0.963345 0.0847931 -0.0344599 -3.93 1.58964e-09 0.0536879 
237 1 0.987693 0.0856693 -0.0582158 -3.93 7.99744e-10 0.013985 
240 1 0.985819 0.112032 -0.0300037 -3.93 1.22995e-09 0.0418326 
238 1 1.01029 0.11275 -0.0538584 -3.93 8.29293e-10 0.0307697 
239 1 1.0121 0.0864581 -0.0320349 -3.93 1.59903e-09 0.0342848 
241 1 0.0510262 -0.0118739 -0.158594 -3.93 2.54265e-09 0.0469027 
242 1 0.0738548 0.0170798 -0.154351 -3.93 3.81858e-09 0.0529123 
243 1 0.0767416 -0.00744549 -0.130346 -3.93 3.59179e-09 0.0104621 
244 1 0.0481276 0.0126481 -0.132653 -3.93 3.26654e-09 0.0423922 
245 1 0.102463 -0.00290516 -0.152054 -3.93 2.7227e-09 0.0276099 
246 1 0.12534 0.0262989 -0.147599 -3.93 3.12333e-09 0.0197511 
247 1 0.128186 0.00175242 -0.123717 -3.93 3.19704e-09 0.0218201 
248 1 0.0995935 0.021628 -0.126 -3.93 3.76408e-09 0.0573256 
249 1 0.153906 0.00653231 -0.145335 -3.93 2.26898e-09 0.0210907 
250 1 0.176839 0.0360346 -0.140645 -3.93 2.86866e-09 0.0160724 
251 1 0.179616 0.0114391 -0.116909 -3.93 3.2761e-09 0.0590504 
252 1 0.151091 0.031099 -0.119147 -3.93 3.58598e-09 0.0334881 
253 1 0.205307 0.0164765 -0.13844 -3.93 2.42051e-09 0.0280763 
254 1 0.228295 0.0463336 -0.133493 -3.93 2.59702e-09 0.0580658 
255 1 0.230971 0.0216472 -0.109931 -3.93 2.75639e-09 0.0828392 
256 1 0.202577 0.0411112 -0.112093 -3.93 4.2115e-09 0.0132526 
257 1 0.256594 0.0269518 -0.131383 -3.93 1.96515e-09 0.046868 
258 1 0.279624 0.0572255 -0.126159 -3.93 2.57348e-09 0.0296709 
259 1 0.282163 0.0323884 -0.102801 -3.93 2.79075e-09 0.0531088 
260 1 0.253983 0.0517048 -0.104847 -3.93 3.81683e-09 0.0338564 
261 1 0.307662 0.037952 -0.12419 -3.93 2.40999e-09 0.0679604 
262 1 0.330696 0.0687007 -0.118674 -3.93 2.68972e-09 0.0341839 
263 1 0.333071 0.0436328 -0.0955559 -3.93 3.3309e-09 0.0933813 
264 1 0.305202 0.0628933 -0.0974321 -3.93 4.179e-09 0.0345251 
265 1 0.358371 0.0494158 -0.116907 -3.93 2.28214e-09 0.034502 
266 1 0.38134 0.0806744 -0.111098 -3.93 2.87371e-09 0.0659132 
267 1 0.38354 0.0552795 -0.088254 -3.93 3.28766e-09 0.0449294 
268 1 0.356084 0.0746346 -0.0898925 -3.93 3.12811e-09 0.0479932 
269 1 0.408558 0.061195 -0.109608 -3.93 2.44948e-09 0.0614291 
270 1 0.431357 0.092943 -0.103526 -3.93 2.44516e-09 0.014563 
271 1 0.433403 0.0671255 -0.0809825 -3.93 4.09259e-09 0.0146534 
272 1 0.406439 0.0867903 -0.0823045 -3.93 4.06256e-09 0.0105894 
273 1 0.458061 0.0730267 -0.102393 -3.93 2.41126e-09 0.0516253 
274 1 0.480566 0.105151 -0.0960893 -3.93 2.42241e-09 0.0221533 
275 1 0.482521 0.0788476 -0.0738565 -3.93 3.38602e-09 0.0146326 
276 1 0.456071 0.0990828 -0.0747813 -3.93 4.02978e-09 0.0288888 
277 1 0.506779 0.084533 -0.0953896 -3.93 2.44607e-09 0.0438778 
278 1 0.528887 0.116808 -0.0889466 -3.93 2.18917e-09 0.0362413 
279 1 0.530843 0.0900262 -0.0670096 -3.93 3.37622e-09 0.0163111 
280 1 0.504836 0.111082 -0.0674708 -3.93 3.69829e-09 0.0259695 
281 1 0.554727 0.095273 -0.0887326 -3.93 2.34043e-09 0.0379491 
284 1 0.552736 0.122264 -0.0605365 -3.93 3.52083e-09 0.0509145 
282 1 0.576412 0.127391 -0.082258 -3.93 2.55332e-09 0.0350856 
283 1 0.578456 0.100226 -0.060573 -3.93 3.45197e-09 0.0507785 
285 1 0.602063 0.104846 -0.0825427 -3.93 2.42689e-09 0.0294542 
288 1 0.599954 0.132143 -0.0541252 -3.93 3.50481e-09 0.0485077 
286 1 0.623405 0.136493 -0.0761485 -3.93 2.87753e-09 0.0509439 
287 1 0.625582 0.109108 -0.0546505 -3.93 3.70026e-09 0.0107738 
289 1 0.649052 0.113 -0.0769022 -3.93 2.27193e-09 0.0349375 
292 1 0.64681 0.140427 -0.048334 -3.93 3.96058e-09 0.0284663 
290 1 0.670213 0.143948 -0.0706837 -3.93 2.58813e-09 0.00277824 
291 1 0.672509 0.116519 -0.0493002 -3.93 3.8463e-09 0.0608346 
293 1 0.695985 0.119678 -0.0718444 -3.93 2.10574e-09 0.0632782 
296 1 0.693648 0.147072 -0.0431964 -3.93 4.24554e-09 0.0394751 
294 1 0.717147 0.149826 -0.0658675 -3.93 2.93344e-09 0.0362791 
295 1 0.719507 0.122493 -0.044532 -3.93 3.1054e-09 0.093391 
297 1 0.743096 0.12499 -0.0673585 -3.93 2.10507e-09 0.040182 
300 1 0.74073 0.15224 -0.0386906 -3.93 3.83492e-09 0.0102915 
298 1 0.764412 0.15435 -0.0616578 -3.93 2.71411e-09 0.0333346 
299 1 0.766767 0.127197 -0.0403177 -3.93 3.15797e-09 0.0112588 
301 1 0.790529 0.129143 -0.0634028 -3.93 2.18872e-09 0.0155793 
304 1 0.7882 0.15619 -0.0347602 -3.93 4.32422e-09 0.0148418 
302 1 0.812098 0.157794 -0.0579886 -3.93 2.33905e-09 0.0321331 
303 1 0.814388 0.130856 -0.0366064 -3.93 2.6014e-09 0.00223862 
305 1 0.838344 0.132364 -0.0599208 -3.93 2.01113e-09 0.0622803 
308 1 0.836104 0.159193 -0.0313338 -3.93 3.78403e-09 0.0589233 
306 1 0.860214 0.160414 -0.0547868 -3.93 2.60749e-09 0.0189366 
307 1 0.862397 0.133692 -0.0333384 -3.93 2.89018e-09 0.027266 
309 1 0.886543 0.134863 -0.0568519 -3.93 2.40204e-09 0.0441377 
312 1 0.884423 0.161482 -0.0283391 -3.93 4.04432e-09 0.0286306 
310 1 0.908724 0.16242 -0.0519827 -3.93 3.50278e-09 0.0450857 
311 1 0.910778 0.135898 -0.030454 -3.93 2.89306e-09 0.0373349 
313 1 0.935095 0.136814 -0.0541382 -3.93 2.62946e-09 0.00626486 
316 1 0.93311 0.163245 -0.02571 -3.93 3.45976e-09 0.0166114 
314 1 0.957574 0.163973 -0.0495142 -3.93 3.23869e-09 0.0367726 
315 1 0.959489 0.137626 -0.0278983 -3.93 3.16865e-09 0.0276567 
317 1 0.983955 0.13835 -0.0517283 -3.93 3.39941e-09 0.0722556 
320 1 0.982109 0.164617 -0.023389 -3.93 3.40827e-09 0.0701023 
318 1 1.00671 0.16519 -0.0473286 -3.93 2.58069e-09 0.0375401 
319 1 1.00849 0.138996 -0.025623 -3.93 3.81554e-09 0.0294813 
321 1 0.045106 0.037153 -0.156759 -3.93 7.25e-10 0.0211482 
322 1 0.0676872 0.0660697 -0.152511 -3.93 3.97113e-09 0.0273401 
323 1 0.0708381 0.0415828 -0.128404 -3.93 1.56742e-09 0.031044 
324 1 0.0419583 0.0616471 -0.130918 -3.93 4.0385e-09 0.0506066 
325 1 0.0965873 0.0461327 -0.149995 -3.93 2.8893e-10 0.00858175 
326 1 0.119211 0.0752925 -0.145517 -3.93 3.78036e-09 0.0348983 
327 1 0.122351 0.0508102 -0.12153 -3.93 1.8265e-10 0.0416452 
328 1 0.0934386 0.0706153 -0.124045 -3.93 4.36148e-09 0.0496971 
329 1 0.148126 0.0556232 -0.143008 -3.93 2.04409e-10 0.0296118 
330 1 0.170806 0.0850786 -0.138272 -3.93 3.36401e-09 0.0326755 
331 1 0.173906 0.0605795 -0.11443 -3.93 1.05566e-09 0.0305808 
332 1 0.145001 0.0801104 -0.116926 -3.93 4.25181e-09 0.0345075 
333 1 0.199686 0.0656868 -0.135794 -3.93 2.50923e-09 0.0242646 
334 1 0.222435 0.0955047 -0.130766 -3.93 2.57151e-09 0.0397887 
335 1 0.225456 0.0709521 -0.107102 -3.93 3.7836e-09 0.0456864 
336 1 0.19662 0.0902068 -0.109552 -3.93 4.11498e-09 0.0218489 
337 1 0.251205 0.0763813 -0.128355 -3.93 6.41991e-10 0.0454026 
338 1 0.274025 0.106644 -0.123001 -3.93 2.48307e-09 0.0138831 
339 1 0.276918 0.0819783 -0.0995554 -3.93 4.11041e-09 0.0406481 
340 1 0.248241 0.100981 -0.101915 -3.93 4.07289e-09 0.0438612 
341 1 0.302578 0.0877438 -0.120708 -3.93 2.62196e-09 0.0407384 
342 1 0.325447 0.118544 -0.114997 -3.93 3.11203e-09 0.0121922 
343 1 0.328163 0.093674 -0.0918175 -3.93 1.52842e-09 0.0229576 
344 1 0.299767 0.112498 -0.0940267 -3.93 4.39447e-09 0.0322401 
345 1 0.353648 0.0997586 -0.112893 -3.93 6.06143e-10 0.024219 
346 1 0.376503 0.131178 -0.106807 -3.93 2.76364e-09 0.0650005 
347 1 0.379003 0.105979 -0.0839462 -3.93 1.98454e-09 0.0604186 
348 1 0.351037 0.124775 -0.0859203 -3.93 3.11995e-09 0.0560447 
349 1 0.404198 0.112306 -0.10499 -3.93 1.0832e-09 0.0533066 
350 1 0.426917 0.144373 -0.0985349 -3.93 2.63025e-09 0.0692399 
351 1 0.429202 0.118698 -0.0760419 -3.93 2.27258e-09 0.0618331 
352 1 0.40181 0.137725 -0.0776722 -3.93 4.1429e-09 0.0353974 
353 1 0.453985 0.1251 -0.0971225 -3.93 2.78339e-10 0.0166331 
354 1 0.476392 0.157715 -0.0903514 -3.93 2.58163e-09 0.0379274 
355 1 0.478527 0.131444 -0.068255 -3.93 2.52547e-09 0.0461364 
356 1 0.451788 0.151062 -0.0694187 -3.93 4.38953e-09 0.0396322 
357 1 0.502817 0.137652 -0.0894645 -3.93 4.92438e-10 0.0542943 
358 1 0.524742 0.170531 -0.0824882 -3.93 2.2162e-09 0.0469686 
359 1 0.526857 0.143642 -0.0607767 -3.93 2.85552e-09 0.0257108 
360 1 0.50071 0.164239 -0.0613639 -3.93 4.25622e-09 0.0116381 
361 1 0.550667 0.149333 -0.082216 -3.93 3.7941e-10 0.0482117 
364 1 0.54851 0.17649 -0.0537553 -3.93 4.45414e-09 0.00588724 
362 1 0.572057 0.182027 -0.0751925 -3.93 2.63433e-09 0.0488482 
363 1 0.574283 0.154653 -0.0538041 -3.93 2.81176e-09 0.0544981 
365 1 0.597751 0.159549 -0.0755583 -3.93 7.96251e-10 0.0354813 
368 1 0.59544 0.187077 -0.0468211 -3.93 4.42646e-09 0.0874629 
366 1 0.618729 0.1916 -0.0686552 -3.93 2.96109e-09 0.0264921 
367 1 0.621125 0.163986 -0.0474905 -3.93 2.31861e-09 0.0372609 
369 1 0.644461 0.167955 -0.0696071 -3.93 2.79201e-10 0.0204042 
372 1 0.641989 0.19559 -0.0407012 -3.93 4.30158e-09 0.0540604 
370 1 0.665279 0.199064 -0.0629587 -3.93 2.90058e-09 0.0550716 
371 1 0.667807 0.171462 -0.0419095 -3.93 2.20511e-09 0.0409506 
373 1 0.691206 0.174534 -0.0643943 -3.93 1.1219e-09 0.0560416 
376 1 0.688648 0.202058 -0.0354217 -3.93 4.63336e-09 0.0451342 
374 1 0.712126 0.20462 -0.0580801 -3.93 3.04071e-09 0.0433995 
375 1 0.714688 0.177204 -0.0370549 -3.93 1.73201e-09 0.0457223 
377 1 0.738277 0.179515 -0.0598822 -3.93 4.02637e-10 0.031148 
380 1 0.735735 0.206803 -0.0309215 -3.93 3.80482e-09 0.0493642 
378 1 0.759482 0.20866 -0.0539319 -3.93 3.39652e-09 0.0583937 
379 1 0.761983 0.181509 -0.0328657 -3.93 1.13724e-09 0.0562204 
381 1 0.785812 0.183227 -0.0559941 -3.93 2.59137e-09 0.0910746 
384 1 0.78337 0.210238 -0.0270972 -3.93 4.21502e-09 0.0592511 
382 1 0.807392 0.211583 -0.0504036 -3.93 2.44375e-09 0.0578667 
383 1 0.809763 0.184708 -0.0292562 -3.93 2.86994e-09 0.0211735 
385 1 0.833833 0.185986 -0.0526408 -3.93 6.34754e-10 0.0394379 
388 1 0.831541 0.212731 -0.0238378 -3.93 3.77769e-09 0.0683585 
386 1 0.855807 0.213715 -0.0473877 -3.93 2.46581e-09 0.0319263 
387 1 0.858013 0.187092 -0.0261376 -3.93 2.86923e-09 0.0417498 
389 1 0.882297 0.188053 -0.0497366 -3.93 3.00621e-09 0.0424605 
392 1 0.880179 0.214562 -0.0210422 -3.93 4.27683e-09 0.0260874 
390 1 0.904647 0.215295 -0.0447911 -3.93 3.46695e-09 0.0131963 
391 1 0.906676 0.188889 -0.0234288 -3.93 9.96726e-10 0.0860849 
393 1 0.93114 0.18962 -0.0472059 -3.93 4.60816e-10 0.0439055 
396 1 0.929199 0.215931 -0.0186254 -3.93 3.74297e-09 0.054397 
394 1 0.953827 0.216487 -0.0425369 -3.93 3.37224e-09 0.0588385 
395 1 0.955682 0.190262 -0.0210604 -3.93 2.69778e-10 0.00306179 
397 1 0.980294 0.190828 -0.0449855 -3.93 8.54881e-10 0.029137 
400 1 0.978521 0.216975 -0.0165184 -3.93 4.02534e-09 0.00703578 
398 1 1.00328 0.217406 -0.0405634 -3.93 3.51358e-09 0.00754063 
399 1 1.00497 0.191329 -0.0189752 -3.93 1.99239e-09 0.0211888 
401 1 0.0386826 0.0861378 -0.155133 -3.93 2.55193e-09 0.0446165 
402 1 0.0609725 0.115027 -0.150904 -3.93 1.49942e-09 0.045288 
403 1 0.0643991 0.0905481 -0.126676 -3.93 3.08947e-09 0.0140531 
404 1 0.0352788 0.110633 -0.129408 -3.93 1.47203e-09 0.0669426 
405 1 0.0901429 0.0950835 -0.148154 -3.93 2.4232e-09 0.0187982 
406 1 0.112454 0.124203 -0.143682 -3.93 9.71287e-10 0.0375017 
407 1 0.115913 0.0997534 -0.119566 -3.93 2.61005e-09 0.0489032 
408 1 0.0866976 0.119547 -0.12233 -3.93 9.94012e-10 0.0621485 
409 1 0.141709 0.104568 -0.140907 -3.93 2.03678e-09 0.0116317 
410 1 0.164063 0.13397 -0.136156 -3.93 7.92851e-10 0.0573028 
411 1 0.167528 0.109539 -0.112177 -3.93 2.81146e-09 0.0375312 
412 1 0.138243 0.129006 -0.114959 -3.93 1.23997e-09 0.0273507 
413 1 0.193366 0.114678 -0.133374 -3.93 1.76458e-09 0.0304165 
414 1 0.215785 0.144435 -0.128298 -3.93 2.18192e-09 0.0637272 
415 1 0.219217 0.119996 -0.104494 -3.93 2.56628e-09 0.0306016 
416 1 0.189912 0.139108 -0.10727 -3.93 3.00021e-09 0.0297935 
417 1 0.245073 0.125507 -0.125539 -3.93 9.18253e-10 0.0686331 
418 1 0.267579 0.155718 -0.120088 -3.93 2.06042e-09 0.0212038 
419 1 0.27092 0.131223 -0.0965076 -3.93 2.78418e-09 0.0929155 
420 1 0.241678 0.149966 -0.0992378 -3.93 1.45391e-09 0.00531572 
421 1 0.296743 0.137152 -0.117402 -3.93 2.1168e-09 0.0356425 
422 1 0.319344 0.167943 -0.111521 -3.93 8.95359e-10 0.0393905 
423 1 0.322519 0.143302 -0.0882262 -3.93 2.75901e-09 0.0493206 
424 1 0.293475 0.161706 -0.0908485 -3.93 3.02648e-09 0.0676433 
425 1 0.34822 0.149672 -0.108987 -3.93 2.27123e-09 0.00921055 
426 1 0.37088 0.181192 -0.102623 -3.93 1.10617e-09 0.0430032 
427 1 0.373809 0.156255 -0.0796937 -3.93 3.02633e-09 0.0218922 
428 1 0.345159 0.174438 -0.0821092 -3.93 1.63251e-09 0.0604808 
429 1 0.399244 0.163026 -0.100362 -3.93 2.4379e-09 0.0713211 
430 1 0.421841 0.195393 -0.093491 -3.93 1.07027e-09 0.0588983 
431 1 0.424476 0.169947 -0.0710136 -3.93 3.85023e-09 0.0496436 
432 1 0.39646 0.188188 -0.0730764 -3.93 2.80637e-09 0.0456542 
433 1 0.449456 0.176951 -0.0916742 -3.93 2.00821e-09 0.0385599 
434 1 0.471753 0.210134 -0.0843339 -3.93 6.30682e-10 0.00326866 
435 1 0.474142 0.183952 -0.0623774 -3.93 3.28228e-09 0.0611456 
436 1 0.446959 0.202741 -0.063897 -3.93 1.98984e-09 0.0786225 
437 1 0.498502 0.190837 -0.0831614 -3.93 2.07898e-09 0.060849 
438 1 0.52021 0.224489 -0.0754973 -3.93 1.13486e-09 0.081521 
439 1 0.522531 0.197478 -0.0540672 -3.93 3.36322e-09 0.0157747 
440 1 0.496175 0.217437 -0.0548496 -3.93 2.90371e-09 0.0503687 
441 1 0.546253 0.203747 -0.0751348 -3.93 1.81062e-09 0.0247887 
444 1 0.543879 0.231121 -0.0463301 -3.93 2.96624e-09 0.00287242 
442 1 0.56725 0.237184 -0.0673948 -3.93 8.69242e-10 0.0472082 
443 1 0.569719 0.20953 -0.0463994 -3.93 3.39277e-09 0.0184031 
445 1 0.593004 0.214745 -0.0678878 -3.93 1.877e-09 0.0548607 
448 1 0.590421 0.242575 -0.0387257 -3.93 2.90052e-09 0.029967 
446 1 0.613504 0.247248 -0.0603421 -3.93 1.02811e-09 0.0455081 
447 1 0.616196 0.219349 -0.0396166 -3.93 3.14663e-09 0.0542408 
449 1 0.639376 0.223341 -0.0615914 -3.93 1.77523e-09 0.0400427 
452 1 0.636603 0.251213 -0.0322479 -3.93 1.79583e-09 0.0785508 
450 1 0.6598 0.254524 -0.0544348 -3.93 1.4223e-09 0.045491 
451 1 0.662615 0.226752 -0.0338091 -3.93 4.10561e-09 0.0140136 
453 1 0.685965 0.229637 -0.0562594 -3.93 2.50159e-09 0.0265772 
456 1 0.683149 0.257259 -0.0268861 -3.93 3.85128e-09 0.0418335 
454 1 0.706678 0.259507 -0.0495798 -3.93 7.09269e-10 0.0347925 
455 1 0.709456 0.23206 -0.0289274 -3.93 3.7188e-09 0.0225479 
457 1 0.733106 0.234089 -0.0517959 -3.93 1.74365e-09 0.022033 
460 1 0.730397 0.26135 -0.0224925 -3.93 2.28404e-09 0.0111514 
458 1 0.7543 0.262864 -0.0456008 -3.93 9.03319e-10 0.0626208 
459 1 0.756917 0.235785 -0.0248468 -3.93 2.71004e-09 0.0827834 
461 1 0.780885 0.237207 -0.0480622 -3.93 2.2325e-09 0.0609688 
464 1 0.778374 0.264112 -0.0188825 -3.93 3.49958e-09 0.0612335 
462 1 0.802603 0.265147 -0.0423176 -3.93 2.12491e-09 0.0366455 
463 1 0.804999 0.238402 -0.0214255 -3.93 2.62392e-09 0.0393541 
465 1 0.829246 0.239411 -0.0449211 -3.93 9.61694e-10 0.0201351 