LAMMPS (29 Sep 2021 - Update 1)
Reading data file ...
  orthogonal box = (0.0000000 0.0000000 0.0000000) to (16.800000 16.800000 6.0000000)
  4 by 8 by 2 MPI processor grid
  reading atoms ...
  1734240 atoms
Finding 1-2 1-3 1-4 neighbors ...
  special bond factors lj:    0        0        0       
  special bond factors coul:  0        0        0       
     0 = max # of 1-2 neighbors
     0 = max # of 1-3 neighbors
     0 = max # of 1-4 neighbors
     1 = max # of special neighbors
  special bonds CPU = 0.018 seconds
  read_data CPU = 1.916 seconds
480 atoms in group ForceAtoms
1733760 atoms in group FluidAtoms
Using a lattice-Boltzmann grid of 280 by 280 by 101 total grid points. (../fix_lb_fluid.cpp:477)
Local Grid Geometry created. (../fix_lb_fluid.cpp:1023)
First Run initialized
  480 rigid bodies with 1734240 atoms
Neighbor list info ...
  update every 1 steps, delay 0 steps, check yes
  max neighbors/atom: 2000, page size: 100000
  master list distance cutoff = 1.602
  ghost atom cutoff = 1.602
  binsize = 0.801, bins = 21 21 8
  1 neighbor lists, perpetual/occasional/extra = 1 0 0
  (1) pair lj/cut, perpetual
      attributes: half, newton on
      pair build: half/bin/newton
      stencil: half/bin/3d
      bin: standard
Setting up Verlet run ...
  Unit style    : micro
  Current step  : 0
  Time step     : 0.001
Per MPI rank memory allocation (min/avg/max) = 97.31 | 97.33 | 97.36 Mbytes
Step Temp E_pair E_mol TotEng Press 
       0            0            0            0            0            0 
      50    4511970.8            0            0    89.610701   0.21526205 
     100     16113793            0            0     320.0305  -0.54714356 
     150     31550748    67.191512            0    693.81006    1.2310415 
     200     46439326    498.87168            0    1421.1872    4.0383841 
     250     61684647    1043.9263            0    2269.0239    6.4736851 
     300     80760268    1365.1861            0     2969.138    8.4186043 
     350 1.0442842e+08     1296.934            0    3370.9509    8.9271065 
     400 1.2759824e+08    817.33984            0    3351.5245    6.8724618 
Loop time of 528.696 on 64 procs for 400 steps with 1734240 atoms

Performance: 65368.335 ns/day, 0.000 hours/ns, 0.757 timesteps/s
99.2% CPU use with 64 MPI tasks x no OpenMP threads

MPI task timing breakdown:
Section |  min time  |  avg time  |  max time  |%varavg| %total
---------------------------------------------------------------
Pair    | 0.053098   | 0.071612   | 0.096152   |   4.1 |  0.01
Bond    | 9.7577e-05 | 0.00012984 | 0.00017322 |   0.0 |  0.00
Neigh   | 301.06     | 394.1      | 493.41     | 450.6 | 74.54
Comm    | 7.8705     | 106.94     | 200.63     | 865.5 | 20.23
Output  | 0.0047098  | 0.0052866  | 0.0055549  |   0.3 |  0.00
Modify  | 25.511     | 26.848     | 28.764     |  17.8 |  5.08
Other   |            | 0.736      |            |       |  0.14

Nlocal:        27097.5 ave       28368 max       25504 min
Histogram: 16 0 0 8 8 0 0 0 16 16
Nghost:        166100.0 ave      167736 max      164146 min
Histogram: 16 0 4 12 0 0 0 0 12 20
Neighs:        14.0625 ave          21 max           6 min
Histogram: 8 4 4 0 12 0 8 12 12 4

Total # of neighbors = 900
Ave neighs/atom = 0.00051895931
Ave special neighs/atom = 0.0000000
Neighbor list builds = 144
Dangerous builds = 0

LB equilibriumDist time: 3.490595
LB update time: 8.100787
LB PCalc time: 4.473729
LB fluidForce time: 7.598387
LB CorrectU time: 1.830964
Total wall time: 0:08:54
