print           "This is replica: ${rep}"
This is replica: 0

read_data       ${rep}/lj.data
read_data       0/lj.data
  orthogonal box = (1.27034 1.27034 1.27034) to (23.7297 23.7297 23.7297)
  1 by 1 by 1 MPI processor grid
  reading atoms ...
  500 atoms
  reading velocities ...
  500 velocities
  0 = max # of 1-2 neighbors
  0 = max # of 1-3 neighbors
  0 = max # of 1-4 neighbors
  1 = max # of special neighbors

#dump            dump all xyz 1000 ${rep}/dump.xyz

fix             fxnpt all npt temp ${T0} ${T0} 1000.0 iso ${press} ${press} 10000.0
fix             fxnpt all npt temp 300 ${T0} 1000.0 iso ${press} ${press} 10000.0
fix             fxnpt all npt temp 300 300 1000.0 iso ${press} ${press} 10000.0
fix             fxnpt all npt temp 300 300 1000.0 iso 0 ${press} 10000.0
fix             fxnpt all npt temp 300 300 1000.0 iso 0 0 10000.0
fix             fxgREM all grem ${lambda} -.03 -30000 fxnpt
fix             fxgREM all grem 900 -.03 -30000 fxnpt

thermo          10
thermo_style    custom step temp f_fxgREM pe etotal press vol
thermo_modify   press fxgREM_press
timestep        1.0

temper/grem     10000 100 ${lambda} fxgREM fxnpt 10294 98392 #${walker}
temper/grem     10000 100 900 fxgREM fxnpt 10294 98392 
Neighbor list info ...
  update every 1 steps, delay 10 steps, check yes
  max neighbors/atom: 2000, page size: 100000
  master list distance cutoff = 7
  ghost atom cutoff = 7
  binsize = 3.5, bins = 7 7 7
  1 neighbor lists, perpetual/occasional/extra = 1 0 0
  (1) pair lj/cut, perpetual
      attributes: half, newton on
      pair build: half/bin/newton
      stencil: half/bin/3d/newton
      bin: standard
Per MPI rank memory allocation (min/avg/max) = 5.728 | 5.728 | 5.728 Mbytes
Step Temp f_fxgREM PotEng TotEng Press Volume 
       0    299.42262      102.507      -3416.9   -2971.5315    134.01052    11328.967 
      10    305.01315    102.57259   -3419.0863   -2965.4023    52.103984    11328.968 
      20    309.92197    102.64755    -3421.585   -2960.5996   -26.370593     11328.97 
      30    311.99962    102.71885   -3423.9618    -2959.886   -76.248163    11328.972 
      40    310.18839    102.69518   -3423.1727    -2961.791   -52.274449    11328.972 
      50    305.15121     102.6302   -3421.0067   -2967.1174    16.259045    11328.972 
      60    299.39836     102.5938   -3419.7932   -2974.4609    80.723613    11328.972 
      70     295.2947    102.55104   -3418.3682   -2979.1397    134.53808    11328.974 
      80    293.51832    102.50438   -3416.8126   -2980.2263    170.69406    11328.978 
      90     293.4313    102.51498   -3417.1659   -2980.7091    170.93297    11328.985 
     100    294.63941     102.5177   -3417.2566   -2979.0028    164.62038    11328.996 
     110    297.25348    102.56555   -3418.8518   -2976.7098    131.78524     11329.01 
     120    300.50388    102.60344   -3420.1147    -2973.138    98.057487    11329.026 
     130    302.95328     102.6409   -3421.3632   -2970.7432    69.182017    11329.044 
     140    304.05933    102.70523   -3423.5076   -2971.2424    38.480693    11329.064 
     150    304.21872    102.71956   -3423.9853    -2971.483    33.117628    11329.084 
     160    304.38371    102.70642   -3423.5475   -2970.7998    39.859883    11329.105 
     170    304.80117    102.70106   -3423.3687   -2970.0001    43.810288    11329.127 
     180    305.13983    102.71028   -3423.6759   -2969.8035    46.007676     11329.15 
     190    304.94578    102.68774   -3422.9246   -2969.3408    69.449779    11329.173 
     200    302.86941    102.65221   -3421.7405   -2971.2452    116.35909    11329.199 
     210      297.662     102.5571     -3418.57   -2975.8203    210.54052    11329.226 
     220    290.84972     102.4888   -3416.2934   -2983.6765    300.40584    11329.257 
     230    286.66935    102.40548   -3413.5161   -2987.1171    365.46428    11329.294 
     240    288.43119    102.42846   -3414.2821   -2985.2626    333.78695    11329.338 
     250     295.9831    102.53577   -3417.8591   -2977.6067    218.31479    11329.388 
     260    305.50936    102.66938   -3422.3128   -2967.8908    75.635176    11329.443 
     270    311.52891    102.76931   -3425.6438   -2962.2682   -26.093631    11329.498 
     280    311.04895    102.75023   -3425.0078    -2962.346   -28.116138    11329.554 
     290    305.15136    102.64834   -3421.6115    -2967.722    47.657742    11329.609 
     300    297.43413    102.53064   -3417.6882   -2975.2774    143.60143    11329.666 
     310    292.00918    102.45991   -3415.3303   -2980.9888    202.75098    11329.725 
     320    291.38867    102.45449   -3415.1495    -2981.731    200.97437    11329.788 
     330    294.86583    102.51948    -3417.316   -2978.7254    144.54327    11329.854 
     340    299.07345    102.62717   -3420.9058   -2976.0567    71.367848    11329.924 
     350    301.19767    102.64391   -3421.4636   -2973.4549    53.019075    11329.994 
     360    301.40218    102.64706   -3421.5686   -2973.2557    57.550459    11330.066 
     370    301.60343    102.63439   -3421.1465   -2972.5342    71.264067    11330.139 
     380     302.3767    102.66604   -3422.2013   -2972.4389    65.704342    11330.213 
     390    302.18634    102.66324   -3422.1079   -2972.6286    79.588346    11330.289 
     400     300.1465    102.64398    -3421.466   -2975.0208    108.02406    11330.366 
     410    297.66938    102.55498   -3418.4992   -2975.7385    159.37689    11330.446 
     420    296.70991    102.52861   -3417.6203   -2976.2868    170.02926    11330.528 
     430    297.60515    102.52266   -3417.4218   -2974.7567    154.72136    11330.614 
     440    299.48021    102.57498    -3419.166   -2973.7119    108.67344    11330.703 
     450    301.07427    102.60725   -3420.2418   -2972.4166    73.295179    11330.793 
     460    302.09454    102.59522   -3419.8407    -2970.498    61.278464    11330.886 
     470    302.70993    102.61648   -3420.5493   -2970.2912    41.512266    11330.979 
     480    302.81262    102.62998   -3420.9993   -2970.5885    29.560402    11331.073 
     490    302.14786    102.61601   -3420.5338   -2971.1117    34.608836    11331.168 
     500     300.2847    102.59162   -3419.7205   -2973.0698     51.93802    11331.264 
     510    297.96748    102.55635    -3418.545   -2975.3409     76.76076    11331.361 
     520    296.76806    102.53422   -3417.8075   -2976.3875    89.385785    11331.459 
     530    296.70055    102.51748   -3417.2493   -2975.9297    92.386458    11331.559 
     540    296.45476    102.50595   -3416.8648   -2975.9109    92.522412    11331.661 
     550    296.25617    102.49905   -3416.6349   -2975.9763    88.090319    11331.765 
     560    297.43141    102.48149   -3416.0497    -2973.643    77.975047     11331.87 
     570    299.89275    102.52306   -3417.4354   -2971.3677     40.26193    11331.977 
     580    301.71033    102.55476    -3418.492   -2969.7207    18.941485    11332.085 
     590     301.0837    102.56499    -3418.833   -2970.9938     31.38825    11332.194 
     600    297.98642    102.48227   -3416.0758   -2972.8436    102.67264    11332.303 
     610    293.64246    102.45555   -3415.1849    -2978.414    160.19415    11332.414 
     620    290.00186    102.38828   -3412.9426   -2981.5869    218.76366    11332.528 
     630    289.94928    102.41899   -3413.9664   -2982.6888    200.08217    11332.646 
     640    295.74572    102.48763   -3416.2545   -2976.3551    112.68119    11332.768 
     650    306.46178    102.65897   -3421.9655   -2966.1269   -54.544301    11332.892 
     660    317.10206    102.85711   -3428.5703    -2956.905   -227.40954    11333.015 
     670    322.23923    102.91998   -3430.6661   -2951.3597   -299.41158    11333.135 
     680     320.5723    102.93397   -3431.1325   -2954.3055   -291.13842    11333.248 
     690    314.82311     102.8303   -3427.6765    -2959.401   -196.15735    11333.357 
     700    308.88819    102.71216   -3423.7386   -2964.2908   -84.991092    11333.461 
     710     304.9868    102.66458   -3422.1526   -2968.5078   -11.177461    11333.565 
     720    303.01004    102.61889   -3420.6298   -2969.9253    49.289549    11333.668 
     730    300.99168    102.60022   -3420.0074   -2972.3051    98.740194    11333.772 
     740    296.94374    102.54664   -3418.2214   -2976.5401     171.9416    11333.877 
     750    291.19139    102.44341   -3414.7802   -2981.6551    269.15521    11333.987 
     760    285.41566     102.3714   -3412.3799   -2987.8457    343.50487    11334.101 
     770    281.59912    102.30948   -3410.3161   -2991.4588    384.62499    11334.222 
     780    282.54974    102.32011   -3410.6705   -2990.3991    347.61696     11334.35 
     790    289.63184    102.42814   -3414.2713   -2983.4659    218.95403    11334.485 
     800    300.03002    102.54734   -3418.2447   -2971.9728    61.530839    11334.623 
     810    308.28446    102.63792   -3421.2641   -2962.7143   -61.683906    11334.763 
     820    310.71517    102.67118   -3422.3726   -2960.2073   -105.82674    11334.902 
     830    307.51937    102.64604   -3421.5347   -2964.1229    -72.21706     11335.04 
     840    302.15103    102.52481   -3417.4936   -2968.0669      22.7566    11335.176 
     850    298.13259    102.46761   -3415.5869   -2972.1373    83.701724    11335.312 
     860    296.67204    102.44948   -3414.9826   -2973.7055    105.71932     11335.45 
     870    296.58815    102.49174   -3416.3914    -2975.239      86.7842     11335.59 
     880    296.07017    102.48007   -3416.0022   -2975.6203    85.129741    11335.731 
     890    294.71487    102.49894   -3416.6313   -2978.2652    73.985492    11335.875 
     900    294.38296    102.50186   -3416.7286   -2978.8563      59.4512     11336.02 
     910    297.14646    102.51252   -3417.0839   -2975.1011    20.162699    11336.166 
     920    302.00677    102.60648    -3420.216   -2971.0038   -63.001904    11336.312 
     930    305.93557    102.65476   -3421.8253   -2966.7693   -118.84051    11336.457 
     940    307.40744    102.65758   -3421.9192   -2964.6739    -136.4053    11336.601 
     950    306.77038    102.64009   -3421.3363   -2965.0386   -128.88393    11336.742 
     960    305.29301    102.60192   -3420.0641   -2965.9639   -105.70523     11336.88 
     970    304.01625    102.62204   -3420.7347   -2968.5336   -106.83536    11337.017 
     980    303.31176    102.61148   -3420.3825   -2969.2293    -99.75059    11337.151 
     990    302.52222    102.60354   -3420.1179    -2970.139   -91.350072    11337.284 
    1000    301.55478    102.58106   -3419.3685   -2970.8287   -70.828164    11337.415 
    1010    300.80872    102.57382   -3419.1273   -2971.6971   -51.456861    11337.545 
    1020    300.39394    102.57561   -3419.1869   -2972.3737    -30.06259    11337.674 
    1030     299.3407    102.56375   -3418.7917   -2973.5451    8.5095011    11337.802 
    1040    296.64408    102.51102   -3417.0339   -2975.7983    76.942673    11337.931 
    1050    292.71654    102.45136   -3415.0454   -2979.6518    150.13917    11338.061 
    1060    290.03112    102.41851   -3413.9503    -2982.551    191.32381    11338.195 
    1070    291.18322    102.40463   -3413.4876   -2980.3746    184.12677    11338.331 
    1080    295.92737    102.46916   -3415.6386   -2975.4691    109.66058    11338.472 
    1090    301.38195    102.55252   -3418.4174   -2970.1346    17.470646    11338.614 
    1100    304.76191     102.6003     -3420.01   -2966.6997    -46.02246    11338.757 
    1110    305.67145    102.63011   -3421.0035   -2966.3404   -77.688687    11338.899 
    1120    304.63891    102.59084   -3419.6947   -2966.5674   -58.912495     11339.04 
    1130    302.03115    102.55519   -3418.5064    -2969.258   -22.869742     11339.18 
    1140    298.58726    102.51077   -3417.0257   -2972.8997    25.472397    11339.319 
    1150    295.27588    102.46046   -3415.3487   -2976.1482    73.241528    11339.459 
    1160     292.9158    102.45232   -3415.0775   -2979.3875    92.346457      11339.6 
    1170    292.32496     102.4632   -3415.4399   -2980.6287    85.260271    11339.743 
    1180    294.10212    102.48255    -3416.085   -2978.6304    55.687553    11339.888 
    1190    297.62415    102.51671   -3417.2237   -2974.5303    10.398915    11340.033 
    1200    300.87935    102.55071    -3418.357   -2970.8218   -27.557375    11340.179 
    1210    302.10425    102.57743   -3419.2477   -2969.8905   -43.340394    11340.325 
    1220    301.30073    102.56135   -3418.7116   -2970.5496   -24.958889    11340.469 
    1230    299.19878    102.52943   -3417.6477   -2972.6122    9.1129556    11340.614 
    1240    296.57738    102.49746    -3416.582   -2975.4456    44.677497    11340.759 
    1250     294.7463    102.46575   -3415.5249   -2977.1121    71.138297    11340.904 
    1260    295.03023    102.45442   -3415.1473   -2976.3122    71.685459    11341.051 
    1270    297.27714     102.5085     -3416.95   -2974.7728    32.147349      11341.2 
    1280    299.58047    102.55561   -3418.5205   -2972.9172   -3.9755183    11341.349 
    1290    299.93811    102.56119   -3418.7063   -2972.5711   -9.1750938    11341.498 
    1300    297.90925    102.50276   -3416.7586   -2973.6412    27.202549    11341.647 
    1310    294.65437    102.42963   -3414.3209   -2976.0448    75.461621    11341.797 
    1320    292.32951      102.414   -3413.8001   -2978.9821    92.928442    11341.948 
    1330    291.73106      102.405   -3413.4999   -2979.5721    91.541739    11342.101 
    1340    292.46822    102.38863   -3412.9545   -2977.9302     79.39213    11342.255 
    1350    294.51754    102.45145   -3415.0485   -2976.9759    25.453397    11342.412 
    1360    298.37904    102.51036   -3417.0121   -2973.1958   -39.401903    11342.568 
    1370    303.20597    102.60772   -3420.2573   -2969.2614   -123.63065    11342.725 
    1380    306.63864    102.64436   -3421.4786   -2965.3768   -170.50872    11342.878 
    1390    306.88908    102.66404   -3422.1346   -2965.6603   -183.28528    11343.029 
    1400     304.0426    102.63248   -3421.0828   -2968.8425   -150.93733    11343.177 
    1410    299.66949    102.56974   -3418.9914   -2973.2558     -94.9749    11343.322 
    1420    295.75762    102.53777   -3417.9258   -2978.0088   -56.871182    11343.465 
    1430    294.21861    102.49465   -3416.4882   -2978.8603    -36.38455    11343.607 
    1440    296.29159    102.52235   -3417.4116   -2976.7003   -73.334676    11343.749 
    1450    301.43074    102.58107    -3419.369   -2971.0136   -145.05567    11343.889 
    1460    306.46756    102.66201    -3422.067   -2966.2197   -219.74649    11344.026 
    1470    307.07703     102.7226   -3424.0867   -2967.3329   -247.49745    11344.159 
    1480     302.2323    102.62495   -3420.8317    -2971.284   -168.81147    11344.288 
    1490    295.91077    102.50883    -3416.961   -2976.8162   -69.501498    11344.414 
    1500    293.50425    102.48006   -3416.0019   -2979.4366   -32.703088    11344.538 
    1510    296.38451     102.5083   -3416.9434   -2976.0939   -58.867745    11344.662 
    1520    300.86865    102.56497   -3418.8323    -2971.313   -111.47355    11344.785 
    1530    302.55532    102.63423    -3421.141   -2971.1129   -151.60859    11344.905 
    1540    300.12591    102.59715   -3419.9051   -2973.4905   -123.34016    11345.023 
    1550    295.72707    102.49851   -3416.6169   -2976.7453   -60.531918    11345.139 
    1560     293.2099     102.4286   -3414.2866   -2978.1591   -24.591334    11345.254 
    1570    294.28758    102.45689   -3415.2297   -2977.4993   -53.252019    11345.368 
    1580    297.21835    102.52137   -3417.3791   -2975.2893    -106.9868    11345.481 
    1590    298.97978    102.51665   -3417.2215   -2972.5118   -122.34188    11345.592 
    1600    298.70817    102.49274   -3416.4247   -2972.1189   -111.16189    11345.702 
    1610    297.71642    102.50123   -3416.7078   -2973.8772   -103.17121    11345.809 
    1620    297.11447    102.49992   -3416.6639   -2974.7287   -92.752723    11345.914 
    1630    297.30695    102.47122   -3415.7074   -2973.4858   -77.698896    11346.018 
    1640    298.78349    102.50947   -3416.9822   -2972.5644   -98.097519     11346.12 
    1650    301.16284    102.54579    -3418.193   -2970.2361   -122.32653     11346.22 
    1660    302.06844    102.57137   -3419.0456   -2969.7417   -128.70176    11346.319 
    1670    299.50439     102.5007     -3416.69   -2971.1999   -72.217359    11346.415 
    1680    294.73969    102.42805   -3414.2685   -2975.8655   -2.7377727     11346.51 
    1690    291.74851    102.38634   -3412.8781   -2978.9243    34.143745    11346.605 
    1700    293.12426    102.45458   -3415.1528   -2979.1527   -12.438698    11346.701 
    1710    297.66889    102.50404   -3416.8012   -2974.0413   -84.291158    11346.796 
    1720    303.18954    102.62371   -3420.7905    -2969.819   -194.16156     11346.89 
    1730    307.99174    102.70484   -3423.4945   -2965.3802   -281.31997     11346.98 
    1740    310.44287    102.74613   -3424.8708   -2963.1106   -328.29545    11347.066 
    1750     309.0034    102.67277   -3422.4258   -2962.8067   -292.43283    11347.145 
    1760    303.32174    102.59781   -3419.9269   -2968.7588   -216.31399    11347.219 
    1770    295.38441    102.44513   -3414.8376   -2975.4757   -89.076671    11347.289 
    1780    288.58524    102.35732   -3411.9108   -2982.6621    3.0132998    11347.357 
    1790       286.12    102.32368   -3410.7894   -2985.2076    35.206418    11347.425 
    1800    289.23529    102.40263   -3413.4211   -2983.2055   -27.234713    11347.494 
    1810    297.14401    102.51126   -3417.0419   -2975.0627   -143.73517    11347.563 
    1820    306.76876    102.69352   -3423.1173    -2966.822   -303.83015    11347.628 
    1830    313.74855    102.79616   -3426.5388   -2959.8616   -411.15416    11347.689 
    1840    315.46423     102.8539   -3428.4633   -2959.2341   -457.59523    11347.741 
    1850    313.12768     102.7984   -3426.6133   -2960.8595   -424.12945    11347.785 
    1860    309.05655    102.75586   -3425.1952    -2965.497   -376.68901    11347.822 
    1870    304.34244    102.62867   -3420.9558   -2968.2695   -287.77517    11347.851 
    1880    299.24405    102.55097   -3418.3655   -2973.2627   -213.86081    11347.875 
    1890    294.61776    102.49233    -3416.411   -2978.1894   -151.41806    11347.894 
    1900    292.62679    102.46597   -3415.5324   -2980.2722   -121.80014    11347.911 
    1910    294.72445    102.45454   -3415.1512   -2976.7709   -126.45908    11347.926 
    1920    298.52848    102.50865    -3416.955   -2972.9165   -166.49847    11347.938 
    1930    300.00062    102.53502   -3417.8341   -2971.6059   -176.48502    11347.948 
    1940    297.49521    102.47308   -3415.7692   -2973.2676   -123.76195    11347.954 
    1950    292.71263    102.40415   -3413.4715   -2978.0837   -54.263616    11347.958 
    1960    288.44322     102.3588     -3411.96   -2982.9226   -3.4208938     11347.96 
    1970    287.06595    102.34563   -3411.5212   -2984.5323    8.2328493    11347.963 
    1980    289.12422    102.36896   -3412.2988   -2982.2484   -22.331306    11347.966 
    1990    292.66135     102.4424   -3414.7468   -2979.4352   -83.979412    11347.969 
    2000     295.3705    102.46378   -3415.4594   -2976.1182   -118.35918     11347.97 
    2010    296.19204    102.49592   -3416.5306   -2975.9674   -139.92814    11347.969 
    2020    294.90329    102.46027   -3415.3424   -2976.6961   -117.84509    11347.965 
    2030     292.6706    102.42204    -3414.068   -2978.7427   -85.454237     11347.96 
    2040     291.1965    102.40326   -3413.4421   -2980.3094   -65.359696    11347.953 
    2050    291.49792    102.43522   -3414.5074   -2980.9263   -74.906718    11347.944 
    2060    292.19872    102.43772   -3414.5905   -2979.9671   -72.703722    11347.934 
    2070    291.30976     102.4396   -3414.6532    -2981.352   -57.588834    11347.923 
    2080    289.10508     102.4017     -3413.39   -2983.3681   -18.360635    11347.911 
    2090    287.50207    102.35715   -3411.9051   -2984.2676    16.153245    11347.899 
    2100     288.3131    102.35721   -3411.9071   -2983.0632    11.471141    11347.887 
    2110     292.7849    102.38929   -3412.9764    -2977.481   -35.718949    11347.876 
    2120    300.57092    102.54295   -3418.0984    -2971.022   -153.11266    11347.863 
    2130    308.35058    102.65721    -3421.907   -2963.2588   -250.25017    11347.848 
    2140     311.5324    102.69737   -3423.2455   -2959.8647   -278.53274    11347.828 
    2150    307.94447    102.66567   -3422.1891    -2964.145   -226.03646    11347.803 
    2160    300.34725    102.54919   -3418.3064   -2971.5626   -113.33777    11347.774 
    2170    294.74346    102.42777   -3414.2591   -2975.8505     -21.9587    11347.743 
    2180    295.93182    102.43361   -3414.4537   -2974.2776   -40.912863    11347.712 
    2190    303.44883    102.53191   -3417.7303   -2966.3732   -151.31949    11347.679 
    2200    312.55009    102.67428   -3422.4761   -2957.5815   -294.72858    11347.644 
    2210    318.70677    102.77575   -3425.8585   -2951.8063   -399.95463    11347.603 
    2220    320.41031    102.81707   -3427.2357   -2950.6497   -442.80939    11347.555 
    2230    317.89639    102.77822   -3425.9407   -2953.0939   -415.74038    11347.499 
    2240    311.79167    102.70038   -3423.3458   -2959.5794   -339.24833    11347.434 
    2250    302.71984    102.57339   -3419.1129     -2968.84   -217.78603    11347.364 
    2260    292.68143    102.44369   -3414.7896   -2979.4482   -88.707316    11347.289 
    2270    285.16359    102.34464   -3411.4881   -2987.3289    8.1302473    11347.213 
    2280    282.20047    102.34256   -3411.4188    -2991.667    31.275399    11347.137 
    2290    282.97286    102.37758   -3412.5859   -2991.6852    8.3448595    11347.061 
    2300    285.92437    102.43787   -3414.5956   -2989.3047   -43.986075    11346.986 
    2310    290.33396    102.48872   -3416.2907    -2984.441   -102.13915     11346.91 
    2320    295.06958    102.57618    -3419.206   -2980.3124   -171.55177    11346.832 
    2330    298.20563    102.59982   -3419.9941   -2976.4358   -196.58253    11346.751 
    2340    298.24805    102.60378    -3420.126   -2976.5046   -183.81627    11346.666 
    2350    295.73298    102.56082   -3418.6941   -2978.8137   -130.56758    11346.578 
    2360    292.97371    102.49046   -3416.3488   -2980.5726   -65.991294    11346.487 
    2370    292.09981    102.44491   -3414.8303   -2980.3539   -30.554608    11346.395 
    2380    293.80369    102.47809   -3415.9363   -2978.9256   -51.800628    11346.303 
    2390    297.03927    102.55038    -3418.346   -2976.5226    -106.6691    11346.209 
    2400    300.19294    102.58986   -3419.6619   -2973.1476   -153.30034    11346.114 
    2410    302.52849    102.61685   -3420.5618   -2970.5736   -190.20449    11346.016 
    2420     304.2705    102.63871   -3421.2905   -2968.7112   -218.07039    11345.914 
    2430    305.85619    102.66217   -3422.0724   -2967.1345   -239.56699    11345.808 
    2440    307.32492    102.65625   -3421.8749   -2964.7524   -241.23506    11345.698 
    2450    308.04007    102.65063   -3421.6876   -2963.5014   -229.18194    11345.583 
    2460    307.04877     102.6426   -3421.4201   -2964.7084   -197.70237    11345.464 
    2470    304.24305    102.61084   -3420.3614   -2967.8229   -141.79187    11345.341 
    2480    300.73751    102.56457   -3418.8189   -2971.4947   -77.902376    11345.216 
    2490    297.83991    102.50388    -3416.796   -2973.7818   -19.331564    11345.089 
    2500    295.61459    102.45348   -3415.1159   -2975.4116     20.33969    11344.962 
    2510    293.90955    102.42678   -3414.2261   -2977.0579     37.36597    11344.835 
    2520     293.2758    102.40449   -3413.4831   -2977.2576    38.441637    11344.709 
    2530    294.10044    102.42813   -3414.2709   -2976.8188    8.2781685    11344.583 
    2540    295.79126    102.46495   -3415.4982   -2975.5312   -32.653729    11344.458 
    2550    297.46851    102.46999   -3415.6663   -2973.2045   -58.295967    11344.332 
    2560    299.11686    102.49825   -3416.6084   -2971.6947   -88.286189    11344.205 
    2570    301.18226    102.49734   -3416.5779   -2968.5922   -103.49957    11344.077 
    2580    302.63024     102.5265   -3417.5501   -2967.4106   -120.78148    11343.946 
    2590    301.58639    102.53737   -3417.9123   -2969.3254   -110.85339    11343.813 
    2600    297.71268    102.47348   -3415.7827   -2972.9577   -52.926913    11343.679 
    2610    293.37251    102.35913   -3411.9709   -2975.6016    24.038394    11343.543 
    2620    291.57318    102.33871   -3411.2903   -2977.5973    39.974952    11343.408 
    2630    293.60911    102.40434   -3413.4781   -2976.7568   -11.291017    11343.273 
    2640    298.03205    102.51421   -3417.1404   -2973.8403   -99.838219    11343.138 
    2650    301.82817    102.61056   -3420.3519   -2971.4054   -177.26862    11343.002 
    2660    303.05948    102.60469   -3420.1562   -2969.3782   -192.61408    11342.862 
    2670    302.00375    102.55206   -3418.4021   -2969.1944   -169.04976    11342.719 
    2680    300.12539    102.53028   -3417.6761   -2971.2624    -146.9902    11342.572 
    2690    298.69819    102.55882   -3418.6273   -2974.3363   -144.09982    11342.423 
    2700    298.56462    102.53998   -3417.9995   -2973.9072   -131.29953    11342.271 
    2710    300.36177    102.56644   -3418.8813   -2972.1159   -148.75542    11342.116 
    2720    303.05628    102.57891    -3419.297   -2968.5237   -166.08469    11341.959 
    2730    304.31746    102.62475    -3420.825   -2968.1758   -184.53772    11341.798 
    2740    303.30231    102.58845    -3419.615   -2968.4758   -152.58699    11341.634 
    2750    300.88876    102.55454   -3418.4847   -2970.9355   -107.57012    11341.467 
    2760    297.47918    102.53312   -3417.7708   -2975.2931   -56.252079    11341.298 
    2770    293.03307    102.42885    -3414.295   -2978.4305    36.263572    11341.129 
    2780    288.40268    102.36122   -3412.0408   -2983.0636    114.05528     11340.96 
    2790    285.56689    102.30512   -3410.1707   -2985.4116    168.78308    11340.793 
    2800    286.03931    102.31912   -3410.6373   -2985.1754    164.72078    11340.629 
    2810    289.36719     102.3765   -3412.5499   -2982.1381    114.49221    11340.468 
    2820    294.12351    102.45166   -3415.0553   -2977.5689    38.242625    11340.309 
    2830    299.93982    102.51538   -3417.1795   -2971.0417   -47.538089    11340.151 
    2840    306.52231    102.61846   -3420.6155   -2964.6868   -154.04342    11339.993 
    2850     311.8299    102.71002   -3423.6674   -2959.8441   -239.35759    11339.831 
    2860    313.16451    102.70148   -3423.3826   -2957.5742   -245.17137    11339.665 
    2870    309.66773    102.68618   -3422.8725   -2962.2653   -200.14279    11339.495 
    2880    303.04179    102.55611    -3418.537   -2967.7853   -78.388837     11339.32 
    2890    296.09023    102.47255   -3415.7518     -2975.34    31.562303    11339.145 
    2900    290.70577    102.34593   -3411.5311   -2979.1283    143.13209     11338.97 
    2910    287.87699    102.27794   -3409.2646   -2981.0694    205.23091    11338.797 
    2920     288.5156    102.24294   -3408.0979   -2978.9528    218.49033    11338.628 
    2930    293.42282    102.31627   -3410.5423   -2974.0981    149.60588    11338.464 
    2940    301.23155    102.44568   -3414.8559   -2966.7968    31.452595    11338.302 
    2950    308.28679    102.53999   -3417.9998   -2959.4465   -71.450294     11338.14 
    2960    311.90297    102.59377   -3419.7925   -2955.8604   -133.20873    11337.978 
    2970    311.90753    102.61216   -3420.4055   -2956.4667   -152.07015    11337.812 
    2980    309.52021    102.55066   -3418.3552   -2957.9674   -119.36033    11337.645 
    2990    306.24786    102.53092   -3417.6973   -2962.1769    -91.93941    11337.475 
    3000      303.332    102.47338   -3415.7792   -2964.5958   -49.330701    11337.303 
    3010    301.77545    102.45228   -3415.0762    -2966.208   -28.857235     11337.13 
    3020    302.30004    102.51026   -3417.0085   -2967.3601   -51.534897    11336.957 
    3030    304.17544    102.53757   -3417.9189   -2965.4809   -68.897987    11336.783 
    3040    304.91398     102.5752   -3419.1732   -2965.6367   -78.661065    11336.607 
    3050    302.17194    102.56359   -3418.7863   -2969.3285   -40.479311     11336.43 
    3060    295.33808    102.44622   -3414.8741   -2975.5811    67.550001    11336.253 
    3070    287.67745    102.30843    -3410.281   -2982.3826    183.72816    11336.076 
    3080    285.34182    102.25583   -3408.5278   -2984.1035    220.67815    11335.903 
    3090    291.27355    102.31712   -3410.5705   -2977.3232    147.76789    11335.735 
    3100    301.73339    102.51056   -3417.0188   -2968.2132   -8.5041565    11335.568 
    3110    309.85683    102.64885   -3421.6282   -2960.7396   -120.10423    11335.402 
    3120    311.55409    102.66934   -3422.3115   -2958.8984   -128.86291    11335.233 
    3130     307.3327    102.59945   -3419.9817   -2962.8476   -47.617285    11335.063 
    3140    299.92758    102.48502   -3416.1675   -2970.0479    80.605277    11334.891 
    3150    292.93367     102.3692   -3412.3066     -2976.59    204.67622    11334.721 
    3160    289.72621    102.34257   -3411.4191   -2980.4733    256.81694    11334.555 
    3170    291.67069    102.35894   -3411.9647   -2978.1267     239.1892    11334.393 
    3180    297.52865    102.46647   -3415.5491   -2972.9978    140.31814    11334.236 
    3190    305.25157    102.59851   -3419.9503   -2965.9117    4.6483503    11334.081 
    3200    313.04988    102.69231    -3423.077    -2957.439   -122.70098    11333.927 
    3210    318.97432    102.78136   -3426.0455   -2951.5954   -229.92268     11333.77 
    3220    321.20355    102.80998   -3426.9992   -2949.2333   -274.19805    11333.609 
    3230    319.32049    102.76394   -3425.4647   -2950.4997   -244.22576    11333.443 
    3240    314.68691    102.69567   -3423.1889    -2955.116   -170.83257    11333.273 
    3250    309.49262    102.61105   -3420.3684   -2960.0216   -76.170797      11333.1 
    3260    304.59025    102.52707    -3417.569   -2964.5141    23.655499    11332.925 
    3270    298.17868    102.40837   -3413.6123   -2970.0941     150.0034     11332.75 
    3280    289.89012    102.28882   -3409.6275   -2978.4379    284.14697    11332.579 
    3290    284.30126     102.2261   -3407.5368   -2984.6603    366.95736    11332.413 
    3300    286.09745    102.25218   -3408.4061   -2982.8579    353.68123    11332.253 
    3310    293.33392    102.37673   -3412.5576   -2976.2457    256.19547      11332.1 
    3320     301.0149    102.49231   -3416.4103   -2968.6735    155.09674    11331.952 
    3330    307.30122    102.61033   -3420.3444   -2963.2571    62.440701    11331.807 
    3340    312.53092    102.65711   -3421.9037   -2957.0377    9.2485959    11331.663 
    3350    315.64491    102.66766   -3422.2553   -2952.7574   -8.9635528    11331.519 
    3360    315.15776    102.64301   -3421.4338   -2952.6605    16.901657    11331.376 
    3370    311.24667    102.58588   -3419.5292   -2956.5734    81.827464    11331.232 
    3380    305.99482    102.54774   -3418.2579   -2963.1138    145.93822     11331.09 
    3390    302.75439    102.46151   -3415.3836   -2965.0594    209.37224    11330.951 
    3400    303.00349    102.39698   -3413.2328   -2962.5381    231.93254    11330.816 
    3410     305.5257      102.442   -3414.7334   -2960.2871      190.476    11330.685 
    3420    307.81516     102.4637   -3415.4565   -2957.6048    157.58587    11330.558 
    3430     308.4995    102.48069   -3416.0229   -2957.1533    141.19165    11330.434 
    3440    307.28043     102.4766   -3415.8866   -2958.8302    153.55063    11330.313 
    3450    304.08687    102.41482   -3413.8274   -2961.5213    207.93895    11330.194 
    3460    299.65439    102.33421   -3411.1403   -2965.4271     277.2275     11330.08 
    3470    296.32907    102.27835   -3409.2782   -2968.5112    322.25086     11329.97 
    3480    296.47373    102.33853   -3411.2843   -2970.3021    287.42311    11329.867 
    3490    301.11216    102.41975   -3413.9916   -2966.1101    205.21241    11329.769 
    3500    308.79241    102.52367   -3417.4556   -2958.1503    91.741468    11329.674 
    3510    313.82024    112.62165   -3420.7216   -2953.9378    68.070844    11329.582 
    3520    312.17975    112.59278   -3419.7593   -2955.4156    99.345939    11329.492 
    3530    304.28932    112.50266   -3416.7555   -2964.1482    218.12897    11329.403 
    3540    293.52077    112.33699    -3411.233   -2974.6431    397.39315    11329.319 
    3550    284.16324    112.16362   -3405.4541   -2982.7828    570.65082    11329.242 
    3560    278.59083    112.06147   -3402.0489   -2987.6661    682.09863    11329.176 
    3570    276.87088    112.01565   -3400.5217   -2988.6972    730.14542    11329.123 
    3580    278.19722    112.04419   -3401.4731   -2987.6759    711.27968    11329.083 
    3590    281.91007    112.08873   -3402.9577   -2983.6378    655.25628    11329.057 
    3600    287.41302    112.22629   -3407.5431    -2980.038    543.23683    11329.043 
    3610    293.04417    112.31863   -3410.6209   -2974.7399    446.56273    11329.039 
    3620    297.26272    112.35175   -3411.7251   -2969.5693    386.12831    11329.044 
    3630    300.17716    112.38288   -3412.7626   -2966.2718    342.09224    11329.056 
    3640    302.23929    112.38388    -3412.796    -2963.238    321.74396    11329.075 
    3650    303.26631    112.41101   -3413.7004   -2962.6147    303.98938      11329.1 
    3660    302.92126    112.37573   -3412.5243   -2961.9519    321.75911     11329.13 
    3670    301.78497    112.34303   -3411.4342    -2962.552    344.33169    11329.167 
    3680    300.06579    112.33224   -3411.0748   -2964.7497    361.96582     11329.21 
    3690    297.42058    112.32177   -3410.7256    -2968.335    386.32968    11329.261 
    3700    294.17479    112.22625   -3407.5416   -2969.9788    449.07447    11329.318 
    3710    291.36041    112.20504   -3406.8348   -2973.4583    482.40403    11329.384 
    3720    289.22388    112.15171   -3405.0572   -2974.8586    525.75427     11329.46 
    3730    287.40035     112.1273   -3404.2435   -2976.7572      557.519    11329.545 
    3740    286.43141     112.1289   -3404.2967   -2978.2517    573.33026    11329.641 
    3750    287.25887    112.11706   -3403.9021   -2976.6263    580.77656    11329.747 
    3760    289.37209    112.13446   -3404.4819   -2974.0629    567.39293    11329.865 
    3770    290.97106    112.16693   -3405.5643   -2972.7669    552.87407    11329.993 
    3780    290.79361    112.17361   -3405.7869   -2973.2534    561.15697    11330.132 
    3790     289.6584    112.15243   -3405.0811   -2974.2362    583.38373    11330.282 
    3800    289.81831    112.16476    -3405.492   -2974.4092    576.60121    11330.443 
    3810    292.48719     112.1913   -3406.3766   -2971.3241    539.19837    11330.615 
    3820    296.99463     112.2721   -3409.0701   -2967.3131    465.89889    11330.797 
    3830    301.10814    112.33452   -3411.1507   -2963.2752    407.18977    11330.988 
    3840    302.52711    112.34397   -3411.4657   -2961.4795     397.2451    11331.187 
    3850    300.48194    112.33889   -3411.2964   -2964.3523    426.34028    11331.393 
    3860    296.07037    112.24306   -3408.1022   -2967.7199    510.06753    11331.608 
    3870    291.71471    112.20744   -3406.9145    -2973.011    562.96593    11331.833 
    3880      289.931    112.15163   -3405.0543   -2973.8039    589.98936    11332.068 
    3890    291.48251    112.15539   -3405.1797   -2971.6215    552.76938    11332.315 
    3900    295.40157    112.25383   -3408.4609   -2969.0734    451.50877    11332.572 
    3910    299.66071    112.33031   -3411.0104   -2965.2878    356.16668    11332.838 
    3920    302.09191    112.36433   -3412.1445   -2962.8056    301.68043     11333.11 
    3930    300.91963    112.33418   -3411.1394   -2963.5442    314.52609    11333.389 
    3940    296.44979    112.25295   -3408.4315   -2967.4849    385.79232    11333.674 
    3950    291.35954    112.14567   -3404.8556   -2971.4803    481.31446    11333.966 
    3960    287.77794    112.10707   -3403.5689    -2975.521    541.92103    11334.268 
    3970    285.78596    112.07518   -3402.5062   -2977.4212    584.71511     11334.58 
    3980    284.88927    112.07729   -3402.5763    -2978.825    600.06986    11334.903 
    3990    285.23665    112.09618   -3403.2058   -2978.9379    591.28151    11335.237 
    4000    287.71309    112.07949   -3402.6497   -2974.6982    573.42617    11335.583 
    4010    292.18637    112.16707    -3405.569   -2970.9639    494.20949     11335.94 
    4020    297.25971     112.2449   -3408.1634   -2966.0121    412.26903    11336.306 
    4030     300.6334    112.27855   -3409.2851   -2962.1157    363.51421     11336.68 
    4040    300.39711    112.27161   -3409.0537   -2962.2357    363.09176    11337.062 
    4050    296.85456    112.20546   -3406.8486   -2965.2999    414.89498    11337.451 
    4060    292.44322    112.13275   -3404.4251   -2969.4379    479.30074    11337.847 
    4070    289.31292    112.05786   -3401.9285   -2971.5975    536.28198    11338.253 
    4080    288.22728    112.04471   -3401.4902    -2972.774    552.87886     11338.67 
    4090    288.96998    112.05017   -3401.6724   -2971.8515    548.64672    11339.097 
    4100    290.02657    112.09236   -3403.0786    -2971.686    527.71502    11339.534 
    4110     290.0294    112.09717   -3403.2389   -2971.8422    526.85667    11339.982 
    4120    289.71383     112.1203   -3404.0099   -2973.0825    518.01045     11340.44 
    4130    290.72904    112.15373   -3405.1243   -2972.6868    489.42752    11340.908 
    4140    293.57015    112.19006   -3406.3355   -2969.6721    439.64349    11341.385 
    4150    297.00834    112.22039   -3407.3462   -2965.5688    383.85759    11341.871 
    4160     299.0427    112.26669   -3408.8897   -2964.0863    331.12884    11342.365 
    4170    299.04358     112.2474   -3408.2465   -2963.4418    321.19393    11342.865 
    4180    298.08281    112.23567   -3407.8556     -2964.48    318.60805    11343.372 
    4190    297.56479    112.27088   -3409.0293   -2966.4242    297.26633    11343.885 
    4200    297.74424    112.29405   -3409.8018   -2966.9298    277.40905    11344.404 
    4210    297.77619    112.27922   -3409.3073   -2966.3878    275.10654    11344.928 
    4220    296.84391     112.2325     -3407.75   -2966.2172    293.82591    11345.458 
    4230    295.45499     112.1979   -3406.5968   -2967.1298    313.32611    11345.994 
    4240    294.90025    112.19295   -3406.4318     -2967.79    320.64488    11346.536 
    4250    294.33896    112.15246   -3405.0821   -2967.2752    347.61266    11347.085 
    4260    292.50339    112.10645   -3403.5482   -2968.4716    390.73716     11347.64 
    4270    290.30042    112.08588   -3402.8626   -2971.0627    429.04038    11348.203 
    4280    289.44734    112.07595   -3402.5317   -2972.0007    452.41154    11348.774 
    4290    290.27173    112.05848   -3401.9492    -2970.192    460.77553    11349.355 
    4300    292.06583    112.06505   -3402.1684   -2967.7426    444.89069    11349.944 
    4310    293.74496     112.1525   -3405.0833   -2968.1599    390.53476    11350.542 
    4320    294.41598    112.15205   -3405.0684    -2967.147    369.76308    11351.147 
    4330     294.3844    112.12406   -3404.1354   -2966.2609    358.56018     11351.76 
    4340    294.49418    112.12602   -3404.2005   -2966.1628    330.56658    11352.381 
    4350    294.94774    112.10215    -3403.405   -2964.6926    309.28604    11353.007 
    4360    295.27813    112.08407   -3402.8023   -2963.5984    287.43987     11353.64 
    4370    295.75524    112.14334   -3404.7779   -2964.8644    238.28923    11354.279 
    4380    297.03367      112.145   -3404.8333   -2963.0182    210.20054    11354.923 
    4390    298.97933     112.1735   -3405.7833   -2961.0742    169.91228    11355.571 
    4400    300.74402     112.1871   -3406.2366   -2958.9027    139.09782    11356.223 
    4410    301.58368    112.20496   -3406.8319    -2958.249    116.24921    11356.878 
    4420    301.37308    112.21319   -3407.1064   -2958.8368    106.92515    11357.535 
    4430    300.95878    112.19826   -3406.6087   -2958.9553    110.27193    11358.195 
    4440    301.05389     112.1998   -3406.6599   -2958.8651    106.89495    11358.857 
    4450    301.01024    112.15564   -3405.1881   -2957.4582    125.31948    11359.522 
    4460    300.15177    112.12548   -3404.1827   -2957.7297    146.28156    11360.189 
    4470    298.41347    112.08862    -3402.954   -2959.0866    176.11859     11360.86 
    4480    295.78779    112.04882   -3401.6275   -2961.6655    208.13775    11361.534 
    4490    293.99068    112.03472   -3401.1572   -2963.8683    215.77962    11362.213 
    4500    295.14988    112.07779   -3402.5929   -2963.5798    173.91619    11362.896 
    4510    298.46042    112.14087   -3404.6956   -2960.7584    107.34651    11363.583 
    4520    300.52531    112.14764   -3404.9214   -2957.9128    76.720645    11364.272 
    4530    299.04629    112.13473   -3404.4911   -2959.6824    90.465654    11364.963 
    4540    294.70636    112.07417   -3402.4725   -2964.1191    154.70066    11365.657 
    4550     289.8278    111.98502   -3399.5006   -2968.4037    238.15365    11366.354 
    4560    287.06081    111.92327   -3397.4423   -2970.4611    293.49845    11367.055 
    4570    287.17919    111.87809   -3395.9363   -2968.7791    313.34189    11367.763 
    4580    289.62792     111.9268     -3397.56   -2966.7604    270.18472    11368.477 
    4590    294.12786    112.01356   -3400.4522   -2962.9592    190.50138    11369.196 
    4600    299.82229    112.06503   -3402.1676   -2956.2047    114.51482    11369.919 
    4610     304.6382    112.14907   -3404.9691   -2951.8429    38.086885    11370.645 
    4620    307.00205    112.14884   -3404.9614   -2948.3191    19.268197    11371.373 
    4630    307.60392    112.13892   -3404.6308   -2947.0933    22.477149    11372.101 
    4640     308.3034    112.12276   -3404.0919   -2945.5139    26.859602    11372.829 
    4650      310.183    112.15394   -3405.1313   -2943.7576  -0.66225589    11373.559 
    4660    312.20571    112.18362   -3406.1208   -2941.7384   -34.675836     11374.29 
    4670    312.19174    112.18718   -3406.2395   -2941.8779    -47.79275     11375.02 
    4680    309.32117    112.15892   -3405.2975   -2945.2057   -27.792753    11375.749 
    4690    304.59351    112.09195   -3403.0651   -2950.0054    24.410403    11376.479 
    4700    299.72789    112.02282   -3400.7608   -2954.9383    83.204669     11377.21 
    4710    296.49159    111.96525   -3398.8415   -2957.8327    126.98296    11377.942 
    4720     296.3322    111.95105   -3398.3684   -2957.5968    130.30677    11378.677 
    4730    298.77269    111.98412   -3399.4706   -2955.0689     92.09603    11379.416 
    4740    301.85841    112.00426   -3400.1421   -2951.1506     48.80207    11380.156 
    4750    304.00922    112.04034   -3401.3446   -2949.1539    4.0719572    11380.897 
    4760    304.23108    111.99696   -3399.8988   -2947.3781     6.398444     11381.64 
    4770    301.96767    111.95167   -3398.3889   -2949.2349    33.686842    11382.382 
    4780     297.8986    111.87638   -3395.8794   -2952.7778    91.337441    11383.126 
    4790    293.94296    111.79523   -3393.1744   -2955.9565    152.72218    11383.873 
    4800    292.34822     111.7968   -3393.2268   -2958.3809    161.50646    11384.622 
    4810    294.61697    111.81922   -3393.9739   -2955.7535    126.77343    11385.375 
    4820    299.61819    111.89887    -3396.629   -2950.9697    44.321826    11386.131 
    4830    303.95004    112.00688   -3400.2294   -2948.1267   -44.597588    11386.888 
    4840    305.18896    112.02779   -3400.9263   -2946.9809   -73.576983    11387.644 
    4850    303.82769    112.00153   -3400.0509   -2948.1302   -58.862803      11388.4 
    4860    301.68863    111.98605    -3399.535    -2950.796   -36.669954    11389.155 
    4870    299.99992    111.92287   -3397.4291    -2951.202    2.5995097     11389.91 
    4880    299.05999    111.93139    -3397.713    -2952.884    8.2212876    11390.665 
    4890    298.44802    111.89024   -3396.3414   -2952.4226    26.370874    11391.421 
    4900    298.32652    111.86114   -3395.3712   -2951.6331    29.917068    11392.178 
    4910    299.53022    111.90937   -3396.9789   -2951.4504    -13.27231    11392.936 
    4920    301.92773    111.93806   -3397.9354   -2948.8408   -63.283119    11393.694 
    4930    303.49394    111.94498    -3398.166   -2946.7418   -100.84788    11394.451 
    4940    302.55359    111.92991   -3397.6638   -2947.6383   -110.70989    11395.207 
    4950    299.85877     111.9172     -3397.24   -2951.2228    -104.7902    11395.961 
    4960    296.98274    111.88576    -3396.192   -2954.4527   -85.285838    11396.714 
    4970      294.914     111.8836   -3396.1199   -2957.4577   -76.679334    11397.466 
    4980    293.61147    111.88637   -3396.2122   -2959.4874   -71.712277    11398.216 
    4990    292.91902    111.86375   -3395.4585   -2959.7636   -59.937667    11398.966 
    5000     293.0855    111.87124   -3395.7079   -2959.7654   -67.018003    11399.715 
    5010      294.598    111.83789   -3394.5965   -2956.4043   -71.117596    11400.463 
    5020    297.34325    111.85271   -3395.0903   -2952.8147   -107.42432    11401.211 
    5030    301.11793    111.88856   -3396.2855   -2948.3954   -162.94314    11401.956 
    5040    305.64741    111.99614   -3399.8714   -2945.2441   -252.13638    11402.699 
    5050    309.80654    112.03054    -3401.018   -2940.2042   -306.34653    11403.438 
    5060    311.28106    112.01626    -3400.542    -2937.535    -316.7573    11404.171 
    5070    309.33998    112.00428   -3400.1428    -2940.023   -297.50862    11404.899 
    5080    305.72309    111.99606   -3399.8685   -2945.1286   -263.59958    11405.622 
    5090    303.02725    111.97962   -3399.3206   -2948.5905   -232.93751     11406.34 
    5100    302.58088    111.94551   -3398.1836   -2948.1175   -214.79018    11407.054 
    5110    303.42424    111.95268   -3398.4225    -2947.102    -226.8692    11407.765 
    5120    303.58972    111.93667    -3397.889   -2946.3223   -230.86674    11408.471 
    5130    302.02765    111.88406   -3396.1354   -2946.8921   -213.99183    11409.174 
    5140    299.59878    111.82101   -3394.0336   -2948.4032    -194.8338    11409.873 
    5150    299.00485    111.80817   -3393.6057   -2948.8586   -215.24991    11410.568 
    5160    301.56809    111.87166   -3395.7221   -2947.1624   -288.39273     11411.26 
    5170    305.06087    111.97829   -3399.2763   -2945.5214   -378.74891    11411.947 
    5180    306.60043    111.93001   -3397.6671   -2941.6222   -383.23623    11412.627 
    5190    305.33426    111.90609   -3396.8695    -2942.708   -361.27186      11413.3 
    5200    302.00186    111.85969   -3395.3231   -2946.1182   -305.62771    11413.967 
    5210    297.85982    111.78411   -3392.8036   -2949.7597   -231.48813    11414.628 
    5220    294.40813    111.72016    -3390.672   -2952.7623   -175.28359    11415.286 
    5230    293.45936    111.70976   -3390.3255   -2953.8269   -169.86767     11415.94 
    5240    294.94525    111.72396   -3390.7988   -2952.0901    -202.8398    11416.591 
    5250    296.95868    111.76268   -3392.0893   -2950.3858   -256.42496    11417.239 
    5260    298.36144    111.77539   -3392.5131   -2948.7231   -297.67284    11417.883 
    5270     299.9619    111.77962   -3392.6541   -2946.4835   -332.96203    11418.521 
    5280    302.74579    111.79555   -3393.1851   -2942.8737   -373.52615    11419.153 
    5290    306.17905    111.83022   -3394.3406   -2938.9225   -416.81553    11419.779 
    5300    308.44521    111.90078   -3396.6926   -2937.9037   -455.80177    11420.397 
    5310    308.02982    111.90703    -3396.901   -2938.7299   -443.42372    11421.007 
    5320    305.00786    111.89358   -3396.4528   -2942.7767   -404.21095    11421.609 
    5330     301.5211     111.8173     -3393.91   -2945.4202   -344.16095    11422.203 
    5340    300.35286    111.76781   -3392.2602   -2945.5081   -323.17737    11422.791 
    5350    302.77611    111.77811   -3392.6036   -2942.2471   -363.37731    11423.373 
    5360    307.38336    111.83654   -3394.5514    -2937.342   -444.85145    11423.949 
    5370    311.21332    111.86627   -3395.5423   -2932.6361   -508.32271    11424.516 
    5380    311.78544    111.88912    -3396.304   -2932.5468   -538.29044    11425.075 
    5390     309.1498    111.86268   -3395.4225   -2935.5856   -517.04187    11425.623 
    5400    305.55347    111.78873   -3392.9576   -2938.4699   -464.74116    11426.162 
    5410    303.37076    111.69893   -3389.9643   -2938.7233   -413.66713    11426.692 
    5420    302.99892    111.71819   -3390.6063   -2939.9184    -415.6796    11427.215 
    5430    302.93829    111.71505   -3390.5018   -2939.9041   -410.70129    11427.729 
    5440    301.83468    111.69855   -3389.9516   -2940.9954   -394.29474    11428.237 
    5450    300.37836    111.66835   -3388.9449   -2942.1549   -372.81769    11428.737 
    5460    300.69038    111.70302   -3390.1007   -2942.8466   -393.08972     11429.23 
    5470     304.0612    111.74126   -3391.3754   -2939.1074   -437.40674    11429.716 
    5480    308.43934    111.79223   -3393.0743   -2934.2941   -489.30054    11430.193 
    5490    309.75954     111.8161     -3393.87   -2933.1262   -500.33525    11430.662 
    5500    306.15731     111.8015   -3393.3834   -2937.9976   -453.93342    11431.122 
    5510    300.42212    111.68054   -3389.3514   -2942.4963   -349.51515    11431.573 
    5520    297.01716    111.62611   -3387.5371   -2945.7466   -291.47271    11432.018 
    5530    297.60665    111.61433   -3387.1442   -2944.4769   -287.56086    11432.457 
    5540    300.57981    111.66586    -3388.862   -2941.7723   -334.95585    11432.891 
    5550     303.7393    111.70069   -3390.0229   -2938.2337   -384.40511    11433.319 
    5560    306.26661    111.74871   -3391.6235   -2936.0751   -437.49847     11433.74 
    5570    307.94817    111.77873   -3392.6242   -2934.5746    -475.4377    11434.153 
    5580    307.71307    111.76907   -3392.3024   -2934.6025   -479.47797    11434.557 
    5590    305.06207    111.75874    -3391.958   -2938.2013   -460.12167    11434.952 
    5600    300.86617    111.72273   -3390.7578   -2943.2421   -413.36436    11435.339 
    5610    296.50669    111.67621   -3389.2071   -2948.1759   -357.61827    11435.719 
    5620     293.5616    111.57439    -3385.813   -2949.1624   -292.15997    11436.092 
    5630    293.25354     111.5716   -3385.7202   -2949.5278   -291.89447    11436.459 
    5640    296.58426    111.58969   -3386.3229   -2945.1763   -337.65611    11436.821 
    5650     303.1078    111.70033   -3390.0111   -2939.1612   -451.24854    11437.177 
    5660    309.83897    111.81052   -3393.6842   -2932.8222   -569.53122    11437.524 
    5670    313.79402     111.8983   -3396.6098    -2929.865    -655.5822    11437.861 
    5680    314.57764    111.87411   -3395.8036   -2927.8932   -666.86078    11438.185 
    5690    313.46961    111.86976   -3395.6586   -2929.3963   -659.31727    11438.497 
    5700     311.4673    111.87825   -3395.9418   -2932.6578   -637.62795    11438.796 
    5710    308.81075    111.82075   -3394.0248   -2934.6923   -574.02683    11439.084 
    5720    304.71425    111.77088   -3392.3627   -2939.1233   -496.85943     11439.36 
    5730    299.18305    111.65393   -3388.4645   -2943.4524    -386.4782    11439.628 
    5740    294.33467     111.5918   -3386.3933   -2948.5928   -312.03292    11439.888 
    5750    292.33312    111.56909   -3385.6364   -2950.8131   -288.59554    11440.142 
    5760     293.2352    111.54724    -3384.908   -2948.7429   -302.20245    11440.391 
    5770    296.01439    111.58412   -3386.1375   -2945.8385   -362.20936    11440.634 
    5780    299.57634    111.62222   -3387.4073   -2941.8102   -430.44687     11440.87 
    5790     302.2015    111.65652   -3388.5507   -2939.0488   -484.56535    11441.099 
    5800    302.31851    111.66891   -3388.9636   -2939.2877   -501.87858    11441.318 
    5810    300.15059    111.67096   -3389.0318   -2942.5806   -487.91527    11441.528 
    5820    297.84134    111.64312    -3388.104   -2945.0876   -452.51112    11441.729 
    5830    296.96172    111.63115    -3387.705   -2945.9969   -426.94079    11441.921 
    5840    296.53664    111.64246   -3388.0822   -2947.0064   -411.66903    11442.105 
    5850    295.68822    111.59941   -3386.6472   -2946.8333   -376.21638    11442.282 
    5860    295.89206    111.61718   -3387.2393   -2947.1223     -380.953    11442.451 
    5870     299.3712    111.64594    -3388.198    -2942.906   -425.68545    11442.613 
    5880     305.7684     111.7509   -3391.6967   -2936.8894   -532.12832    11442.767 
    5890    312.13982     111.9108   -3397.0268   -2932.7425   -665.30456    11442.911 
    5900    315.93456    112.00815   -3400.2717    -2930.343   -753.56358    11443.043 
    5910    316.80268    112.02918   -3400.9726   -2929.7526   -782.40538     11443.16 
    5920    315.39944    112.02431   -3400.8103   -2931.6775   -770.99043    11443.262 
    5930    312.24109    111.93102   -3397.7008   -2933.2658   -698.78562     11443.35 
    5940    308.55707    111.81733   -3393.9108   -2934.9556   -606.16532    11443.424 
    5950    306.29304    111.78658    -3392.886   -2937.2983   -554.71195    11443.487 
    5960     306.2832    111.79328   -3393.1093   -2937.5363   -538.09897    11443.539 
    5970    307.30185    111.82107   -3394.0358   -2936.9476   -543.40687    11443.581 
    5980     307.6486    111.83772   -3394.5906   -2936.9866   -544.03194    11443.613 
    5990    306.45289    111.76567   -3392.1889   -2936.3634   -501.60286    11443.634 
    6000    304.69067    111.75913   -3391.9711   -2938.7668   -477.72322    11443.646 
    6010    303.41492    111.68577   -3389.5255   -2938.2188   -428.48886    11443.649 
    6020    301.89535    111.65184   -3388.3945   -2939.3481   -389.86777    11443.643 
    6030    298.63654    111.64033    -3388.011   -2943.8117   -348.20631     11443.63 
    6040    294.47919    111.57044   -3385.6813   -2947.6658   -283.83188     11443.61 
    6050    292.52809    111.54906   -3384.9686   -2949.8552   -265.08019    11443.585 
    6060    294.92215      111.588   -3386.2668   -2947.5924    -315.3257    11443.555 
    6070    300.73863    111.68378   -3389.4592   -2942.1333   -424.20854    11443.518 
    6080    306.92649    111.77783   -3392.5944   -2936.0645   -540.38385    11443.473 
    6090    310.90826     111.8393   -3394.6433   -2932.1908   -624.50414    11443.418 
    6100    311.80005    111.79014   -3393.0048   -2929.2259   -633.56098    11443.351 
    6110     310.3043    111.74081   -3391.3603   -2929.8062   -611.76548    11443.273 
    6120    308.07003    111.68717   -3389.5723   -2931.3415   -570.29181    11443.182 
    6130    305.36747     111.6771   -3389.2367   -2935.0257   -533.05282     11443.08 
    6140    302.37094    111.56741   -3385.5804   -2935.8265   -453.07064    11442.969 
    6150     301.2837    111.57241   -3385.7469   -2937.6103    -434.8878    11442.848 
    6160    303.51697    111.57727    -3385.909   -2934.4505    -447.9957    11442.719 
    6170    307.90762    111.66138   -3388.7128   -2930.7236   -511.40408    11442.581 
    6180    311.36513    111.73009    -3391.003    -2927.871   -562.48856    11442.434 
    6190    311.11046    111.77654   -3392.5513   -2929.7981    -576.0018    11442.276 
    6200    307.36579    111.74922   -3391.6406   -2934.4573   -532.82298    11442.106 
    6210    302.85217    111.65394   -3388.4647   -2937.9951   -456.15798    11441.927 
    6220    300.39571     111.6245   -3387.4832   -2940.6674    -420.2194    11441.738 
    6230    301.42682     111.6649   -3388.8299   -2940.4804   -438.20176    11441.541 
    6240    304.81996    111.69329   -3389.7762   -2936.3796    -470.9116    11441.336 
    6250    307.69783    111.75248   -3391.7494   -2934.0722   -513.49632    11441.121 
    6260    307.89364    111.78689   -3392.8962   -2934.9278   -529.39867    11440.897 
    6270    305.70706    111.74618   -3391.5392   -2936.8231   -502.82056    11440.662 
    6280    303.38026    111.73475   -3391.1582    -2939.903    -490.7223    11440.418 
    6290    302.61985    111.72971   -3390.9902   -2940.8661   -494.53635    11440.164 
    6300     302.7084    111.69536   -3389.8455   -2939.5897   -490.38666    11439.901 
    6310    301.36501    111.68857   -3389.6189   -2941.3613   -480.54303    11439.628 
    6320    298.10336    111.63797   -3387.9323   -2944.5262   -433.94487    11439.346 
    6330    295.05851    111.58315    -3386.105   -2947.2278   -384.61619    11439.055 
    6340    294.31978    111.55482   -3385.1608   -2947.3824   -363.45878    11438.757 
    6350    295.68865    111.56538   -3385.5125   -2945.6981   -376.43369    11438.451 
    6360    297.90732    111.59793   -3386.5978   -2943.4832   -409.55125    11438.138 
    6370    300.69878    111.63603   -3387.8678   -2940.6011   -452.87487    11437.818 
    6380    304.10074    111.67247   -3389.0823   -2936.7555   -498.36601    11437.488 
    6390    306.54537    111.71273   -3390.4245   -2934.4615    -532.6716    11437.149 
    6400    306.78573    111.76383   -3392.1276    -2935.807   -547.43007      11436.8 
    6410    305.90297     111.7252   -3390.8399   -2935.8325   -511.46257     11436.44 
    6420    305.75176    111.71851   -3390.6172   -2935.8346   -488.26838     11436.07 
    6430    307.37146    111.73731   -3391.2436   -2934.0519   -487.13144     11435.69 
    6440    310.30993    111.78202   -3392.7339   -2931.1714   -509.03092    11435.301 
    6450    313.13315    111.84854   -3394.9513   -2929.1894   -543.05637    11434.902 
    6460    314.44167    111.87415    -3395.805   -2928.0968   -553.92728    11434.492 
    6470    313.88042    111.85683   -3395.2275   -2928.3542   -535.07568    11434.072 
    6480     311.4787    111.77342   -3392.4475   -2929.1465   -476.20019    11433.641 
    6490    307.77733    111.70798   -3390.2661   -2932.4707   -412.28298    11433.201 
    6500    304.23179     111.6451     -3388.17   -2935.6483   -348.52993    11432.753 
    6510    302.29418    111.60508    -3386.836   -2937.1963   -302.63747    11432.298 
    6520    301.84323    111.58974   -3386.3246   -2937.3556   -273.11907    11431.837 
    6530    301.45687    111.60312   -3386.7708   -2938.3765    -251.0312     11431.37 
    6540    300.04488    111.58367   -3386.1223   -2939.8283   -206.52249    11430.899 
    6550    297.50815    111.54553    -3384.851   -2942.3301   -148.33854    11430.423 
    6560    294.56197    111.50848   -3383.6161   -2945.4775   -95.393541    11429.944 
    6570    292.58997    111.45997   -3381.9991   -2946.7937   -58.303695    11429.463 
    6580    292.42266    111.46899   -3382.2995    -2947.343   -71.266456    11428.981 
    6590    293.77828    111.53084   -3384.3614   -2947.3885   -129.64139    11428.497 
    6600     296.7094    111.57539   -3385.8464   -2944.5136    -201.5605     11428.01 
    6610    301.93077    111.64221   -3388.0736   -2938.9744   -298.40912     11427.52 
    6620    309.07114    111.78449   -3392.8165   -2933.0966   -428.32681    11427.023 
    6630    315.44562    111.91026   -3397.0086   -2927.8071   -529.43373    11426.518 
    6640    318.07732    111.95808   -3398.6025   -2925.4866   -554.34859    11426.003 
    6650    316.04355    111.91246   -3397.0821   -2926.9912   -497.01773    11425.477 
    6660    311.40802    111.83547   -3394.5156   -2931.3198   -405.75476    11424.941 
    6670    307.80464    111.78361   -3392.7868   -2934.9508   -339.39882    11424.397 
    6680    307.93824    111.77419   -3392.4729   -2934.4381   -330.60736    11423.847 
    6690    311.12049    111.83535   -3394.5118   -2931.7437    -381.9866    11423.289 
    6700     313.3959     111.8578     -3395.26   -2929.1073   -415.82786    11422.724 
    6710    311.42766    111.83727   -3394.5755   -2931.3505   -399.07436    11422.151 
    6720    305.06312    111.80273   -3393.4242   -2939.6659   -335.42165    11421.569 
    6730     296.2198    111.68771   -3389.5902   -2948.9857   -214.14945    11420.982 
    6740     287.8049    111.56012   -3385.3373   -2957.2493   -89.231176    11420.389 
    6750    283.20398    111.51947   -3383.9824    -2962.738     -31.2551    11419.795 
    6760     284.8599    111.49977   -3383.3256   -2959.6181   -36.925431      11419.2 
    6770    292.33639    111.57273   -3385.7576   -2950.9294   -129.67617    11418.603 
    6780    302.33249    111.72713   -3390.9045   -2941.2078   -277.30623    11418.004 
    6790    311.12604    111.88943   -3396.3144    -2933.538   -417.77032    11417.399 
    6800     316.4072    111.97367   -3399.1224   -2928.4906   -496.33753    11416.786 
    6810    318.20243    111.96052    -3398.684    -2925.382   -503.70116    11416.163 
    6820    318.12252    111.97536   -3399.1788   -2925.9956    -497.4755     11415.53 
    6830    317.05582    111.98171   -3399.3905    -2927.794   -470.43917    11414.888 
    6840    314.62091    111.89836   -3396.6119   -2928.6371   -390.87097    11414.236 
    6850    310.30033    111.85072   -3395.0239   -2933.4757   -307.50543    11413.577 
    6860    304.90471    111.81674   -3393.8915   -2940.3688   -221.15142    11412.911 
    6870    300.02128    111.70056   -3390.0188   -2943.7599   -111.84164    11412.241 
    6880    297.48866    111.65897   -3388.6323   -2946.1404   -54.820923    11411.568 
    6890    298.32064    111.66939   -3388.9798   -2945.2505   -49.991578    11410.894 
    6900    302.56547    111.69309   -3389.7698   -2939.7266   -80.175542    11410.218 
    6910    308.69898    111.77199   -3392.3996   -2933.2333   -145.07608    11409.541 
    6920    313.64045    111.83114   -3394.3715   -2927.8551   -190.60806     11408.86 
    6930    315.30156    111.85944   -3395.3146   -2926.3274   -195.83001    11408.176 
    6940    313.58225    111.83945   -3394.6484   -2928.2186   -153.29527    11407.487 
    6950    309.47627    111.79163   -3393.0542   -2932.7317    -82.07056    11406.796 
    6960    305.13244    111.70831   -3390.2769   -2936.4155    3.1917716    11406.102 
    6970    301.94189    111.64421   -3388.1403   -2939.0246    69.743776    11405.408 
    6980    299.91222    111.64672    -3388.224   -2942.1273     98.81739    11404.715 
    6990    298.87822    111.61448   -3387.1494   -2942.5907     129.8498    11404.024 
    7000    299.36836    111.63124    -3387.708   -2942.4203    128.86864    11403.334 
    7010    301.16006      111.721   -3390.6999   -2942.7471    90.111629    11402.647 
    7020    302.89773    111.73094   -3391.0313   -2940.4939    83.491142    11401.961 
    7030    303.28406    111.75398   -3391.7992   -2940.6872    85.563131    11401.276 
    7040    301.68437    111.75184    -3391.728   -2942.9954    113.97003    11400.592 
    7050    298.49021    111.66397   -3388.7991   -2944.8175    184.32172    11399.911 
    7060    295.12676    111.60883   -3386.9612   -2947.9825    235.61511    11399.232 
    7070    293.82409    111.56424   -3385.4745   -2948.4334    256.21291    11398.558 
    7080    296.12438    111.61889   -3387.2964   -2946.8339    199.43853    11397.887 
    7090    301.98034    111.74855   -3391.6184   -2942.4455    80.490139    11397.221 
    7100    309.39575    111.88848   -3396.2826   -2936.0798   -53.969342    11396.555 
    7110    315.65648    112.00936   -3400.3119   -2930.7968   -163.65684    11395.888 
    7120    318.78446    112.09801   -3403.2669   -2929.0992    -223.5058    11395.218 
    7130    318.34034    112.09559   -3403.1863   -2929.6792     -207.427    11394.543 
    7140    314.90101    111.99596   -3399.8655   -2931.4741   -121.94178    11393.864 
    7150    310.12154    111.88196   -3396.0653    -2934.783    -20.75413    11393.182 
    7160     307.2451    111.80762   -3393.5873   -2936.5835    42.400763    11392.499 
    7170    308.92331    111.86437   -3395.4789   -2935.9789    9.4887812    11391.817 
    7180    314.63397    111.98047   -3399.3489   -2931.3547   -83.877296    11391.134 
    7190    320.99056    112.11151   -3403.7168   -2926.2677   -187.64519     11390.45 
    7200    324.25215    112.15947   -3405.3158   -2923.0153   -227.25827    11389.761 
    7210    322.17171    112.08697    -3402.899    -2923.693   -168.16759    11389.068 
    7220    315.41633     111.9642   -3398.8068   -2929.6489   -42.688455    11388.372 
    7230    306.75728    111.82565   -3394.1884   -2937.9101    109.49747    11387.675 
    7240    299.75192    111.75024   -3391.6746   -2945.8163      225.107    11386.979 
    7250    296.94242    111.64984   -3388.3279   -2946.6486    314.75258    11386.287 
    7260    298.36756    111.69087   -3389.6956   -2945.8964    311.69208      11385.6 
    7270    301.89974    111.71967   -3390.6556   -2941.6026     288.8049    11384.919 
    7280     305.0806    111.78993   -3392.9975   -2939.2133    245.45556    11384.244 
    7290    306.38781     111.8568   -3395.2265   -2939.4979    212.81786    11383.572 
    7300    305.99737    111.80866   -3393.6219    -2938.474    235.46369    11382.905 
    7310    305.13516    111.80801   -3393.6004   -2939.7349    246.59969    11382.241 
    7320    303.99678    111.83823   -3394.6078   -2942.4356    252.74041    11381.582 
    7330    301.90176     111.8407     -3394.69   -2945.6341     278.5201    11380.927 
    7340    299.63001    111.77717   -3392.5724   -2946.8954    327.23788    11380.277 
    7350    299.43806    111.77587   -3392.5291   -2947.1377    327.73821    11379.633 
    7360    302.65843      111.859   -3395.3002   -2945.1187    260.82029    11378.995 
    7370    308.31051     111.9433     -3398.11   -2939.5215    168.59515    11378.361 
    7380    314.03248    112.02892   -3400.9642   -2933.8646    74.653662     11377.73 
    7390    317.48824    112.08096   -3402.6987    -2930.459    16.566072    11377.101 
    7400    317.73948    112.06396   -3402.1318   -2929.5184    21.699572    11376.471 
    7410    315.24994    112.01311    -3400.437   -2931.5266    76.853241    11375.842 
    7420    310.85429    111.93455   -3397.8184   -2935.4462     171.1985    11375.213 
    7430    305.61873    111.82631   -3394.2104   -2939.6257    290.14486    11374.588 
    7440    301.35723    111.76583   -3392.1944   -2943.9484    379.27336    11373.968 
    7450    300.47146    111.72207   -3390.7356    -2943.807    421.87304    11373.355 
    7460    304.47554     111.8031   -3393.4368   -2940.5525    361.85037    11372.749 
    7470     311.7176    111.93436   -3397.8119   -2934.1556    244.53058    11372.149 
    7480    317.95492    112.05706    -3401.902   -2928.9681    133.12663    11371.554 
    7490    319.59614    112.10332    -3403.444    -2928.069     90.19131    11370.961 
    7500    315.75908    112.02282   -3400.7608   -2931.0931    148.23486     11370.37 
    7510    307.84848    111.87461   -3395.8205   -2937.9192    273.50696    11369.781 
    7520    298.72376     111.7694   -3392.3132   -2947.9842    396.48778    11369.197 
    7530    291.69988    111.71886   -3390.6288   -2956.7473    481.33741     11368.62 
    7540     289.0237    111.69329   -3389.7764   -2959.8755    518.33236    11368.052 
    7550    290.59153    111.72647   -3390.8824   -2958.6495    493.82481    11367.494 
    7560    294.68547    111.80168   -3393.3893    -2955.067    428.51787    11366.944 
    7570    299.70592    111.86492   -3395.4973   -2949.7075    358.31761    11366.402 
    7580    304.67531    111.95905   -3398.6349   -2945.4534    276.31636    11365.867 
    7590    309.00426    112.02692   -3400.8973   -2941.2769    212.86255    11365.336 
    7600    311.46203    112.05986   -3401.9952   -2938.7191    182.85745     11364.81 
    7610    310.80941    112.07659    -3402.553   -2940.2476    187.69412    11364.287 
    7620    307.39673    112.03153   -3401.0511   -2943.8218    237.71094    11363.767 
    7630    304.20667     111.9863   -3399.5434    -2947.059    280.53065    11363.251 
    7640     305.5763    111.96982    -3398.994   -2944.4724    270.01404     11362.74 
    7650    312.61696     112.1191     -3403.97   -2938.9759    146.91524    11362.234 
    7660    321.47271    112.27538   -3409.1794   -2931.0131    7.8785623     11361.73 
    7670    327.09684    112.33475   -3411.1584   -2924.6267   -58.964402    11361.226 
    7680    326.60985    112.35542   -3411.8474     -2926.04   -47.096325    11360.722 
    7690      319.839    112.23966   -3407.9886   -2932.2524    81.078704    11360.216 
    7700     309.3606    112.09366   -3403.1221   -2942.9717    257.80591    11359.711 
    7710    299.65746    111.94887   -3398.2956   -2952.5778    427.70347    11359.211 
    7720    293.94107    111.81144   -3393.7146   -2956.4996    554.34189    11358.719 
    7730    292.23183    111.76832   -3392.2774   -2957.6047    599.53259    11358.237 
    7740    292.71097    111.77349   -3392.4495   -2957.0642    595.07786    11357.766 
    7750    294.20634    111.82718   -3394.2393   -2956.6297    553.20449    11357.306 
    7760    296.55543    111.83991   -3394.6636   -2953.5598    516.99198    11356.856 
    7770     298.9295    111.88482   -3396.1606   -2951.5256    470.59494    11356.415 
    7780    300.43407    111.89968   -3396.6561   -2949.7832     447.8261    11355.983 
    7790    301.07367    111.93184   -3397.7281   -2949.9038    431.71753     11355.56 
    7800    300.78232    111.92888   -3397.6295   -2950.2386    440.63834    11355.144 
    7810    299.97033    111.90545   -3396.8482   -2950.6651    462.26893    11354.737 
    7820    300.12659    111.93765   -3397.9216   -2951.5061    451.95121    11354.338 
    7830    302.32759    112.00404   -3400.1348   -2950.4454    407.00272    11353.947 
    7840    305.83685    112.06482   -3402.1607   -2947.2516    348.55388    11353.564 
    7850    308.73688    112.08807   -3402.9358   -2943.7131    303.75437    11353.187 
    7860    310.26315    112.10836   -3403.6121   -2942.1192    268.22854    11352.816 
    7870    310.63418    112.10157   -3403.3858    -2941.341    251.69536    11352.449 
    7880    310.41189    112.10082   -3403.3606   -2941.6464    241.51835    11352.088 
    7890    309.39052    112.09866   -3403.2885   -2943.0936    246.42901     11351.73 
    7900    306.59047    112.06698   -3402.2326   -2946.2025    287.86462    11351.377 
    7910    301.63054    111.94804    -3398.268   -2949.6155    389.05512     11351.03 
    7920    295.95642    111.84481   -3394.8271   -2954.6144    496.59032    11350.689 
    7930    291.22766    111.82041   -3394.0137   -2960.8346    568.74095    11350.358 
    7940    288.59834    111.81126   -3393.7088   -2964.4407     616.2564    11350.037 
    7950    288.72142    111.81623   -3393.8743   -2964.4231    630.30495    11349.728 
    7960    291.35083    111.91427   -3397.1423     -2963.78    580.24297     11349.43 
    7970    295.27853    111.95913   -3398.6375   -2959.4331     531.0658    11349.143 
    7980    299.70843    112.04406   -3401.4688   -2955.6752    453.09907    11348.866 
    7990    305.11528     112.1021   -3403.4034   -2949.5675    371.78987    11348.597 
    8000    311.28944     112.2009   -3406.6966   -2943.6772    268.88617    11348.336 
    8010    315.83904    112.30443   -3410.1478   -2940.3611    182.39209    11348.079 
    8020    316.16005    112.34148   -3411.3825   -2941.1184    163.23489    11347.826 
    8030    311.76679    112.29192   -3409.7308   -2946.0013    221.72591    11347.575 
    8040     304.7453    112.19447   -3406.4822   -2953.1967    323.23576    11347.329 
    8050    298.24403    112.11745    -3403.915   -2960.2996    410.31922    11347.089 
    8060    295.07606    112.06825   -3402.2749   -2963.3716    455.60842    11346.857 
    8070    295.79218    112.07203   -3402.4009   -2962.4325    444.55961    11346.633 
    8080    298.61892    112.13864   -3404.6212   -2960.4482    389.17131    11346.417 
    8090    300.76078    112.17027   -3405.6757   -2958.3169    353.46777    11346.209 
    8100    299.93421     112.1681   -3405.6032   -2959.4738    356.79664    11346.007 
    8110    295.99276    112.12178   -3404.0594   -2963.7926    404.20804    11345.812 
    8120    290.78013    112.07382   -3402.4607   -2969.9473    462.15621    11345.624 
    8130    286.96565    111.98196   -3399.3988   -2972.5591    520.62664    11345.446 
    8140    287.23986    111.98572   -3399.5241   -2972.2766    501.20178    11345.276 
    8150    292.93428    112.07983   -3402.6611   -2966.9435    396.85987    11345.116 
    8160    301.96698    112.24569   -3408.1897   -2959.0367    236.60381    11344.963 
    8170     309.5513    112.33249    -3411.083   -2950.6489    123.29773    11344.815 
    8180    311.98419    112.35703   -3411.9011   -2947.8482    86.075824    11344.669 
    8190    308.82749    112.28804   -3409.6013   -2950.2438     143.2382    11344.525 
    8200    302.26336    112.19754   -3406.5846   -2956.9908     246.8694    11344.383 
    8210    295.64787    112.11001   -3403.6671   -2963.9132    356.02362    11344.247 
    8220    291.25285    112.03966    -3401.322   -2968.1055    442.75149    11344.116 
    8230     289.1061    112.02243   -3400.7476   -2970.7241    486.54313    11343.994 
    8240    289.08462    112.03649   -3401.2164    -2971.225    494.06168    11343.881 
    8250    291.38044    112.07723   -3402.5743    -2969.168    467.05559    11343.778 
    8260    294.68044    112.15441    -3405.147   -2966.8322    415.06511    11343.683 
    8270    296.69258    112.17858   -3405.9527    -2964.645    393.15632    11343.596 
    8280    296.62536    112.13628   -3404.5425   -2963.3348    414.74564    11343.516 
    8290    295.44616    112.17397   -3405.7989   -2966.3451    416.02766    11343.444 
    8300    294.27353    112.18403   -3406.1343   -2968.4247    428.02411     11343.38 
    8310    293.47291    112.17651   -3405.8838   -2969.3651    442.09035    11343.324 
    8320    293.20923    112.16604   -3405.5345    -2969.408    451.29146    11343.276 
    8330    293.37895    112.16265   -3405.4216   -2969.0426    453.54056    11343.237 
    8340    293.17434    112.17654   -3405.8848   -2969.8102    452.17679    11343.207 
    8350    291.35219    112.13175   -3404.3917   -2971.0274    486.27357    11343.185 
    8360    286.87666    112.08591   -3402.8637   -2976.1564    541.51548    11343.172 
    8370    279.90361    111.98636   -3399.5454     -2983.21    635.85067     11343.17 
    8380    273.13983    111.93354   -3397.7848     -2991.51    706.92172    11343.179 
    8390    270.55407    111.86327   -3395.4422   -2993.0136    748.69151    11343.202 
    8400    273.01304    111.88873    -3396.291   -2990.2048     712.6039    11343.239 
    8410    277.46032    111.95111   -3398.3703   -2985.6691    644.90535     11343.29 
    8420    280.98629    112.02173   -3400.7242   -2982.7784    578.18296    11343.353 
    8430    283.42861    112.07813   -3402.6045   -2981.0259    521.42184    11343.426 
    8440    286.72442    112.12112   -3404.0373   -2977.5564    459.53741     11343.51 
    8450     291.7267     112.2044   -3406.8132   -2972.8919    365.59913    11343.603 
    8460     296.5633    112.29276   -3409.7587   -2968.6432    269.22624    11343.702 
    8470     298.9194     112.3279     -3410.93   -2966.3101    213.58812    11343.807 
    8480    298.71888    112.31627   -3410.5424   -2966.2207    201.91582    11343.916 
    8490    297.17189    112.26233   -3408.7442   -2966.7235    226.26406     11344.03 
    8500    294.90301    112.22383    -3407.461   -2968.8151    259.18716    11344.147 
    8510    292.39286    112.18913   -3406.3042    -2971.392    296.96289     11344.27 
    8520    291.14853    112.17538    -3405.846   -2972.7846    317.20394    11344.398 
    8530    291.91158    112.22667   -3407.5555   -2973.3592    296.58708    11344.533 
    8540    292.91813    112.20303   -3406.7678   -2971.0743    300.20133    11344.673 
    8550    292.41103    112.21716   -3407.2388   -2972.2995    296.55479    11344.819 
    8560    290.68114    112.17923   -3405.9744   -2973.6082    315.31139    11344.971 
    8570    289.55071    112.13935   -3404.6451   -2973.9604    319.78648    11345.129 
    8580     290.6424    112.19571   -3406.5237   -2974.2152    262.81263    11345.294 
    8590    293.21275    112.22539   -3407.5131   -2971.3814    202.44971    11345.463 
    8600    295.43347    112.30834   -3410.2779   -2970.8431    127.32619    11345.636 
    8610    296.92031    112.35132   -3411.7105   -2970.0641    79.917896    11345.813 
    8620    298.80424    112.35356   -3411.7855   -2967.3368    55.019334    11345.991 
    8630    301.09269    112.47699   -3415.8997   -2968.0471   -8.9530463     11346.17 
    8640     302.0151    112.47499   -3415.8331   -2966.6086   -7.2783877    11346.349 
    8650    300.48551    112.47536   -3415.8453   -2968.8959    14.896825    11346.529 
    8660    297.18394    112.39077   -3413.0258   -2970.9872    83.855865    11346.709 
    8670    293.06895    112.33588   -3411.1961   -2975.2782      143.368    11346.891 
    8680    289.20075    112.28907   -3409.6357   -2979.4715    190.45842    11347.076 
    8690    286.48191    112.27321    -3409.107   -2982.9869    208.66022    11347.265 
    8700     285.2568    112.22303   -3407.4342   -2983.1364    223.78377    11347.458 
    8710    284.66091    112.21085   -3407.0284   -2983.6169    221.89784    11347.655 
    8720    282.71291    112.18784   -3406.2612   -2985.7472    244.16641    11347.857 
    8730    277.88776    112.09313   -3403.1044   -2989.7675    327.27761    11348.064 
    8740    271.06737    111.98882   -3399.6275   -2996.4353     437.0719    11348.277 
    8750    265.18763    111.90797   -3396.9322   -3002.4857    531.24712    11348.499 
    8760    263.21239    111.84863   -3394.9545    -3003.446    579.13885    11348.731 
    8770    266.98443    111.86908   -3395.6361    -2998.517    540.52799    11348.974 
    8780    276.00421    112.05186   -3401.7288   -2991.1934    388.42612    11349.227 
    8790    287.04901     112.2291   -3407.6367   -2980.6731    215.77508    11349.489 
    8800    296.45048    112.39481   -3413.1605   -2972.2128    61.542232    11349.754 
    8810    303.84332     102.5009   -3416.6966   -2964.7527   -102.60393    11350.021 
    8820    308.35593    102.54287   -3418.0955   -2959.4395   -156.26397    11350.286 
    8830    309.34553    102.56267   -3418.7555   -2958.6275   -169.44279    11350.548 
    8840    307.92936    102.57728   -3419.2427   -2961.2211   -159.36337    11350.808 
    8850    306.49168    102.51666   -3417.2219   -2961.3388    -120.8613    11351.065 
    8860    307.02003    102.50577   -3416.8591     -2960.19    -118.8501     11351.32 
    8870    308.78244    102.51765    -3417.255   -2957.9645   -139.87882    11351.573 
    8880     309.4166    102.52413    -3417.471   -2957.2372   -156.54316    11351.824 
    8890    308.17218    102.52172   -3417.3905   -2959.0077   -161.32511    11352.072 
    8900    306.82798    102.52569   -3417.5232   -2961.1398   -170.00394    11352.317 
    8910    306.92686    102.52414   -3417.4712   -2960.9407   -186.21426     11352.56 
    8920     308.0801    102.54255   -3418.0851   -2959.8393   -215.35285    11352.799 
    8930    309.07511    102.53491   -3417.8303   -2958.1045   -229.29742    11353.034 
    8940    308.83435    102.54793   -3418.2644   -2958.8967   -236.83009    11353.266 
    8950    306.20013    102.50473   -3416.8242   -2961.3747   -198.18845    11353.493 
    8960    299.78229    102.45513   -3415.1708   -2969.2674   -124.11711    11353.717 
    8970    290.40609    102.32891   -3410.9636   -2979.0066    1.3665885    11353.939 
    8980     282.5525    102.23389   -3407.7963   -2987.5209    99.179915    11354.161 
    8990    281.20504    102.18256   -3406.0854   -2987.8142    125.84255    11354.385 
    9000     287.0527    102.25645   -3408.5483   -2981.5791    46.683648    11354.612 
    9010     295.6651    102.36854   -3412.2846   -2972.5052   -70.693581     11354.84 
    9020    302.05074    102.44673   -3414.8911   -2965.6136   -159.48967    11355.067 
    9030    304.50107    102.50445   -3416.8148   -2963.8926   -211.01569    11355.291 
    9040    304.28774    102.51765    -3417.255   -2964.6501   -223.85983    11355.511 
    9050    302.28659    102.46413    -3415.471   -2965.8426   -196.35161    11355.728 
    9060    298.64342    102.41317   -3413.7725    -2969.563   -159.56094    11355.942 
    9070    294.89692     102.3567   -3411.8898    -2973.253   -123.95652    11356.152 
    9080    292.89751    102.31892   -3410.6307   -2974.9679   -113.05552     11356.36 
    9090    293.44894    102.39098   -3413.0327   -2976.5497   -164.79219    11356.567 
    9100    296.30539    102.43897   -3414.6325   -2973.9007   -222.07876     11356.77 
    9110    300.45266     102.4672   -3415.5735   -2968.6729   -273.82557     11356.97 
    9120    303.24645    102.47481   -3415.8271    -2964.771   -295.97287    11357.165 
    9130     302.0034    102.50375   -3416.7918   -2967.5846   -285.82159    11357.354 
    9140    297.22892    102.43941   -3414.6469   -2972.5414   -207.07355    11357.538 
    9150    291.80756    102.39282   -3413.0939   -2979.0523   -128.58195    11357.719 
    9160    288.25245    102.34705   -3411.5685   -2982.8148    -67.13035    11357.898 
    9170    287.47436    102.34359   -3411.4531   -2983.8568   -50.741803    11358.076 
    9180    289.65745    102.36539   -3412.1798   -2981.3363   -76.008823    11358.253 
    9190    294.40993    102.43028   -3414.3425   -2976.4301   -145.63657    11358.428 
    9200    300.16761    102.47892   -3415.9641   -2969.4875   -218.94764    11358.601 
    9210    304.03105    102.53822   -3417.9405   -2965.7174   -279.64516    11358.771 
    9220    304.45288    102.53714   -3417.9046    -2965.054   -285.20667    11358.935 
    9230    302.34912    102.45421   -3415.1404    -2965.419   -234.46962    11359.094 
    9240     299.9859    102.40287    -3413.429   -2967.2227   -191.14447    11359.249 
    9250    299.26036    102.40403   -3413.4677   -2968.3406   -182.52388    11359.401 
    9260    300.61341    102.41715    -3413.905   -2966.7654   -201.16731    11359.549 
    9270    303.15524     102.4879   -3416.2632   -2965.3428   -259.88954    11359.693 
    9280     305.7968    102.55222   -3418.4075   -2963.5579   -324.73273    11359.833 
    9290    308.13692    102.54889   -3418.2962   -2959.9659   -365.60648    11359.967 
    9300    310.01596    102.56219   -3418.7396   -2957.6143   -409.04518    11360.094 
    9310    310.51245     102.5781     -3419.27   -2957.4063   -438.84588    11360.214 
    9320    308.74264    102.52394   -3417.4648   -2958.2335   -415.60354    11360.325 
    9330    304.79422     102.4761   -3415.8701   -2962.5118   -367.20347    11360.429 
    9340    299.98192    102.39538   -3413.1793   -2966.9789   -290.51501    11360.526 
    9350    296.40204    102.34525   -3411.5082   -2970.6326   -230.13543    11360.618 
    9360    295.69416    102.34673   -3411.5575   -2971.7349   -209.91046    11360.705 
    9370    297.70643    102.38972   -3412.9908   -2970.1751   -224.99069    11360.789 
    9380    299.82096    102.43428   -3414.4761   -2968.5151   -239.37907    11360.868 
    9390    298.72337    102.42593   -3414.1978   -2969.8694   -206.21757    11360.943 
    9400     293.6059    102.34454   -3411.4846    -2974.768   -112.34303    11361.015 
    9410    287.13801    102.25842    -3408.614   -2981.5179   -5.7729342    11361.084 
    9420     282.8911     102.1548   -3405.1599   -2984.3808    87.012111    11361.153 
    9430    283.42692    102.17512   -3405.8373   -2984.2613    87.107479    11361.224 
    9440    289.72806    102.25543   -3408.5142   -2977.5657      10.6752    11361.297 
    9450     299.9244    102.41878   -3413.9592   -2967.8444   -133.86835     11361.37 
    9460    309.66009      102.532   -3417.7333   -2957.1374   -259.63954    11361.441 
    9470    315.28802    102.61817   -3420.6055   -2951.6385   -343.43136    11361.507 
    9480    315.52197    102.64969   -3421.6563   -2952.3412   -362.61942    11361.567 
    9490    311.57319    102.59769    -3419.923   -2956.4815    -315.2172     11361.62 
    9500     306.2565     102.4815   -3416.0499   -2960.5165   -230.75414    11361.667 
    9510    301.77507    102.40965    -3413.655   -2964.7874   -168.80118    11361.711 
    9520    298.06371    102.36942   -3412.3141   -2968.9669   -127.60351     11361.75 
    9530    294.76822    102.34731   -3411.5771   -2973.1317   -102.52302    11361.788 
    9540    292.90584    102.28385   -3409.4618   -2973.7865   -77.156962    11361.824 
    9550    293.16449     102.2921   -3409.7367   -2973.6767   -95.839672    11361.858 
    9560    294.55295    102.32549   -3410.8498   -2972.7246   -130.00817     11361.89 
    9570     295.8006    102.34483   -3411.4945   -2971.5135   -152.72227    11361.921 
    9580    296.56754    102.34105   -3411.3684   -2970.2466   -158.45379    11361.948 
    9590    297.31038    102.32507   -3410.8355   -2968.6089    -157.7167    11361.972 
    9600    298.77172    102.30026   -3410.0086   -2965.6083    -160.9185    11361.994 
    9610    301.97013    102.34529   -3411.5097    -2962.352   -206.50568    11362.013 
    9620    306.75609    102.42638   -3414.2128   -2957.9364   -278.49373    11362.027 
    9630    310.90991    102.52954   -3417.6512   -2955.1963    -353.7554    11362.037 
    9640    312.31799    102.61062    -3420.354   -2955.8047   -397.46392     11362.04 
    9650    310.56146     102.5724   -3419.0801   -2957.1435   -366.33137    11362.036 
    9660    306.52496    102.52312   -3417.4373   -2961.5047   -309.52269    11362.025 
    9670     301.5321    102.45538   -3415.1793   -2966.6732    -237.6061    11362.008 
    9680    296.45601    102.39829   -3413.2764   -2972.3206   -171.66047    11361.986 
    9690    291.72252    102.30306   -3410.1021    -2976.187   -97.600507    11361.962 
    9700    287.60936    102.25271   -3408.4236   -2980.6264    -50.45167    11361.936 
    9710    284.48914    102.20566   -3406.8552   -2983.6992   -17.860652    11361.908 
    9720    283.50169    102.17913    -3405.971   -2984.2837   -14.443294    11361.881 
    9730     286.7196    102.21649   -3407.2163   -2980.7426    -68.48769    11361.852 
    9740    294.47386    102.35054   -3411.6845    -2973.677   -189.93928    11361.823 
    9750    303.04659    102.46162   -3415.3875   -2964.6286   -302.19943     11361.79 
    9760    307.57479    102.51124   -3417.0413   -2959.5471   -355.30344    11361.752 
    9770    306.33697    102.48869   -3416.2898   -2960.6367   -335.18312    11361.707 
    9780    301.59673     102.4207   -3414.0233    -2965.421   -271.49738    11361.655 
    9790    297.79054    102.41425   -3413.8083   -2970.8674   -241.91326    11361.599 
    9800    298.13818     102.4199   -3413.9967   -2970.5387   -252.57086    11361.537 
    9810    302.00013    102.47911   -3415.9702   -2966.7679   -313.68954    11361.471 
    9820    306.02146     102.5605   -3418.6833   -2963.4996   -383.20843    11361.399 
    9830    306.37399    102.56224   -3418.7413   -2963.0332   -388.56733     11361.32 
    9840    301.99104    102.49174   -3416.3914   -2967.2027   -323.29197    11361.234 
    9850    296.02715     102.3854   -3412.8467   -2972.5287   -226.75584    11361.141 
    9860    292.42188    102.30722   -3410.2407   -2975.2854   -155.99935    11361.044 
    9870     291.8673    102.30306   -3410.1021   -2975.9716   -137.71183    11360.944 
    9880    292.47183    102.29279   -3409.7597     -2974.73   -129.16333    11360.842 
    9890    292.67046    102.31184   -3410.3947   -2975.0696   -133.25336    11360.737 
    9900    292.93826    102.35955   -3411.9851   -2976.2616   -152.45548    11360.629 
    9910    292.98738    112.38031    -3412.677   -2976.8805   -98.388723    11360.519 
    9920    291.50325    112.33603   -3411.2009    -2977.612   -60.193026    11360.407 
    9930       289.16    112.27732   -3409.2439   -2979.1403   -8.3725785    11360.294 
    9940    287.58579    112.26303   -3408.7678   -2981.0057    18.664629     11360.18 
    9950    287.74855    112.25799   -3408.5998   -2980.5956    25.021437    11360.067 
    9960    289.38626    112.25385   -3408.4617   -2978.0215    15.413572    11359.954 
    9970    291.31111    112.27816   -3409.2721   -2975.9689   -9.6707803    11359.842 
    9980    291.60283    112.29087   -3409.6956   -2975.9585   -17.695205    11359.729 
    9990    289.34786     112.2374   -3407.9134   -2977.5304    19.599433    11359.616 
   10000    286.02579    112.17791   -3405.9303   -2980.4887    67.188883    11359.503 
Loop time of 2.50279 on 1 procs for 10000 steps with 500 atoms

Performance: 345.215 ns/day, 0.070 hours/ns, 3995.539 timesteps/s
100.0% CPU use with 1 MPI tasks x 1 OpenMP threads

MPI task timing breakdown:
Section |  min time  |  avg time  |  max time  |%varavg| %total
---------------------------------------------------------------
Pair    | 2.0544     | 2.0544     | 2.0544     |   0.0 | 82.08
Bond    | 0.00075364 | 0.00075364 | 0.00075364 |   0.0 |  0.03
Neigh   | 0.015478   | 0.015478   | 0.015478   |   0.0 |  0.62
Comm    | 0.07215    | 0.07215    | 0.07215    |   0.0 |  2.88
Output  | 0.0074148  | 0.0074148  | 0.0074148  |   0.0 |  0.30
Modify  | 0.23494    | 0.23494    | 0.23494    |   0.0 |  9.39
Other   |            | 0.1177     |            |       |  4.70

Nlocal:    500 ave 500 max 500 min
Histogram: 1 0 0 0 0 0 0 0 0 0
Nghost:    1636 ave 1636 max 1636 min
Histogram: 1 0 0 0 0 0 0 0 0 0
Neighs:    14936 ave 14936 max 14936 min
Histogram: 1 0 0 0 0 0 0 0 0 0

Total # of neighbors = 14936
Ave neighs/atom = 29.872
Ave special neighs/atom = 0
Neighbor list builds = 20
Dangerous builds = 0

#write_data      ${rep}/lj-out.data
Total wall time: 0:00:02
