LAMMPS (27 Nov 2018)
  using 1 OpenMP thread(s) per MPI task
# AIREBO polyethelene benchmark

units		    metal
atom_style	    atomic

read_data	    data.airebo
  orthogonal box = (-2.1 -2.1 0) to (2.1 2.1 25.579)
  1 by 1 by 1 MPI processor grid
  reading atoms ...
  60 atoms

replicate	    17 16 2
  orthogonal box = (-2.1 -2.1 0) to (69.3 65.1 51.158)
  1 by 1 by 1 MPI processor grid
  32640 atoms
  Time spent = 0.00144172 secs

neighbor	    0.5 bin
neigh_modify	    delay 5 every 1

pair_style	    airebo 3.0 1 1
pair_coeff	    * * ../../potentials/CH.airebo C H
Reading potential file ../../potentials/CH.airebo with DATE: 2011-10-25

velocity	    all create 300.0 761341

fix		    1 all nve
timestep	    0.0005

thermo		    10
run		    100
Neighbor list info ...
  update every 1 steps, delay 5 steps, check yes
  max neighbors/atom: 2000, page size: 100000
  master list distance cutoff = 10.7
  ghost atom cutoff = 10.7
  binsize = 5.35, bins = 14 13 10
  1 neighbor lists, perpetual/occasional/extra = 1 0 0
  (1) pair airebo, perpetual
      attributes: full, newton on, ghost
      pair build: full/bin/ghost
      stencil: full/ghost/bin/3d
      bin: standard
Per MPI rank memory allocation (min/avg/max) = 106.4 | 106.4 | 106.4 Mbytes
Step Temp E_pair E_mol TotEng Press 
       0          300   -139300.72            0   -138035.04    7988.6647 
      10    161.34683    -138712.9            0   -138032.19    33228.921 
      20    208.59504   -138912.79            0   -138032.74   -3211.8806 
      30     139.7513   -138618.85            0   -138029.25    10878.143 
      40    142.14562   -138629.02            0   -138029.32    14601.302 
      50    114.23401   -138510.95            0      -138029    24691.125 
      60    164.92002      -138726            0   -138030.21    35125.541 
      70    162.15256    -138715.9            0   -138031.79    5658.7946 
      80    157.16184   -138695.77            0   -138032.72    19824.698 
      90    196.15907   -138860.65            0   -138033.07   -7950.8462 
     100    178.31875   -138784.89            0   -138032.57    30997.671 
Loop time of 57.9914 on 1 procs for 100 steps with 32640 atoms

Performance: 0.074 ns/day, 322.174 hours/ns, 1.724 timesteps/s
99.9% CPU use with 1 MPI tasks x 1 OpenMP threads

MPI task timing breakdown:
Section |  min time  |  avg time  |  max time  |%varavg| %total
---------------------------------------------------------------
Pair    | 53.275     | 53.275     | 53.275     |   0.0 | 91.87
Neigh   | 4.6548     | 4.6548     | 4.6548     |   0.0 |  8.03
Comm    | 0.026622   | 0.026622   | 0.026622   |   0.0 |  0.05
Output  | 0.00097251 | 0.00097251 | 0.00097251 |   0.0 |  0.00
Modify  | 0.022773   | 0.022773   | 0.022773   |   0.0 |  0.04
Other   |            | 0.01089    |            |       |  0.02

Nlocal:    32640 ave 32640 max 32640 min
Histogram: 1 0 0 0 0 0 0 0 0 0
Nghost:    48190 ave 48190 max 48190 min
Histogram: 1 0 0 0 0 0 0 0 0 0
Neighs:    0 ave 0 max 0 min
Histogram: 1 0 0 0 0 0 0 0 0 0
FullNghs:  2.22178e+07 ave 2.22178e+07 max 2.22178e+07 min
Histogram: 1 0 0 0 0 0 0 0 0 0

Total # of neighbors = 22217840
Ave neighs/atom = 680.694
Neighbor list builds = 8
Dangerous builds = 0
Total wall time: 0:00:59
