LAMMPS (29 Jun 2018)
OMP_NUM_THREADS environment is not set. Defaulting to 1 thread. (src/comm.cpp:87)
  using 1 OpenMP thread(s) per MPI task
# AIREBO polyethelene benchmark

units		    metal
atom_style	    atomic

read_data	    data.airebo
  orthogonal box = (-2.1 -2.1 0) to (2.1 2.1 25.579)
  1 by 1 by 4 MPI processor grid
  reading atoms ...
  60 atoms

replicate	    17 16 2
  orthogonal box = (-2.1 -2.1 0) to (69.3 65.1 51.158)
  2 by 2 by 1 MPI processor grid
  32640 atoms
  Time spent = 0.000609159 secs

neighbor	    0.5 bin
neigh_modify	    delay 5 every 1

pair_style	    airebo 3.0 0 0
pair_coeff	    * * ../../potentials/CH.airebo C H
Reading potential file ../../potentials/CH.airebo with DATE: 2011-10-25

velocity	    all create 300.0 761341

fix		    1 all nve
timestep	    0.0005

thermo		    10
run		    100
Neighbor list info ...
  update every 1 steps, delay 5 steps, check yes
  max neighbors/atom: 2000, page size: 100000
  master list distance cutoff = 6.5
  ghost atom cutoff = 6.5
  binsize = 3.25, bins = 22 21 16
  1 neighbor lists, perpetual/occasional/extra = 1 0 0
  (1) pair airebo, perpetual
      attributes: full, newton on, ghost
      pair build: full/bin/ghost
      stencil: full/ghost/bin/3d
      bin: standard
Per MPI rank memory allocation (min/avg/max) = 11.75 | 11.94 | 12.13 Mbytes
Step Temp E_pair E_mol TotEng Press 
       0          300   -138442.83            0   -137177.16    2463.0756 
      10    179.38448   -137931.29            0   -137174.48    15656.689 
      20    206.89283   -138047.05            0   -137174.19   -24047.407 
      30    150.81289   -137807.48            0   -137171.21   -16524.191 
      40    173.24289   -137902.32            0   -137171.42   -5721.7187 
      50    151.80722   -137812.37            0   -137171.91    3489.8954 
      60    199.06038    -138013.7            0   -137173.88    17887.024 
      70    217.84848   -138093.82            0   -137174.73    -12266.16 
      80    202.34667   -138029.28            0   -137175.59   -7623.6635 
      90    194.92367   -137997.12            0   -137174.75   -32277.173 
     100     185.2078   -137954.64            0   -137173.26   -6888.5104 
Loop time of 1.50369 on 4 procs for 100 steps with 32640 atoms

Performance: 2.873 ns/day, 8.354 hours/ns, 66.503 timesteps/s
98.5% CPU use with 4 MPI tasks x 1 OpenMP threads

MPI task timing breakdown:
Section |  min time  |  avg time  |  max time  |%varavg| %total
---------------------------------------------------------------
Pair    | 0.92943    | 0.95749    | 0.97327    |   1.8 | 63.68
Neigh   | 0.456      | 0.46115    | 0.46657    |   0.7 | 30.67
Comm    | 0.048775   | 0.068415   | 0.10077    |   8.2 |  4.55
Output  | 0.00044918 | 0.00073665 | 0.0015814  |   0.0 |  0.05
Modify  | 0.0087936  | 0.0089477  | 0.0091038  |   0.1 |  0.60
Other   |            | 0.006951   |            |       |  0.46

Nlocal:    8160 ave 8163 max 8157 min
Histogram: 1 1 0 0 0 0 0 0 1 1
Nghost:    11605.8 ave 11615 max 11593 min
Histogram: 1 0 0 0 0 0 2 0 0 1
Neighs:    0 ave 0 max 0 min
Histogram: 4 0 0 0 0 0 0 0 0 0
FullNghs:  1.22553e+06 ave 1.22734e+06 max 1.22455e+06 min
Histogram: 2 0 0 1 0 0 0 0 0 1

Total # of neighbors = 4902134
Ave neighs/atom = 150.188
Neighbor list builds = 9
Dangerous builds = 0
Total wall time: 0:00:01
