LAMMPS data file via write_data, version 15 May 2015, timestep = 3000000

4001 atoms
2 atom types

-4.0000000000000000e+01 4.0000000000000000e+01 xlo xhi
-1.5000000000000000e+01 1.5000000000000000e+01 ylo yhi
-1.5000000000000000e+01 1.5000000000000000e+01 zlo zhi

Masses

1 1
2 1

Pair Coeffs # lj/cut

1 1 1
2 1 1

Atoms # atomic

394 1 -2.7558895904110496e+01 -1.0063170606913928e+01 1.4981060014911634e+01 0 0 -1
427 1 -2.4203392054419080e+01 -1.0500000000000000e+01 -1.4618139840952683e+01 0 0 1
1337 1 -2.3072399270082169e+01 -1.0500000000000000e+01 -1.4488571486876342e+01 0 0 0
749 1 -2.1927847925316826e+01 -1.0500000000000000e+01 -1.4416537741326877e+01 0 0 0
1058 1 -2.0810012223292741e+01 -1.0500000000000000e+01 -1.4309374082508784e+01 0 0 0
1707 1 -2.9000000000000000e+01 -4.9659360070499146e+00 -1.4390116992236788e+01 0 0 0
1427 1 -2.9000000000000000e+01 -3.7843975186700511e+00 -1.4369081000867610e+01 0 0 0
82 1 -2.9000000000000000e+01 -2.7010260578671614e+00 -1.4689336594017412e+01 0 0 0
1529 1 -2.9000000000000000e+01 -1.4176311800926544e+00 -1.4687674880796122e+01 0 0 0
881 1 -2.9000000000000000e+01 -1.3984895332278990e-01 -1.4630306580626902e+01 0 0 1
457 1 -2.9000000000000000e+01 9.7824100644229306e-01 -1.4633194705144120e+01 0 0 1
1860 1 -2.9000000000000000e+01 3.2362942881960999e+00 -1.4779724595310594e+01 0 0 1
920 1 -2.9000000000000000e+01 4.3636028247141221e+00 -1.4796369259710861e+01 0 0 0
898 1 -2.9000000000000000e+01 5.4855965759464320e+00 -1.4922146913666115e+01 0 0 0
1816 1 -2.8313664230419434e+01 9.4097009789953425e+00 -1.4377695664240697e+01 0 0 1
884 1 -2.7384303115305766e+01 1.0161523038591765e+01 -1.4462666331614455e+01 0 0 0
1862 1 -2.6078204819027267e+01 1.0498980495389862e+01 -1.4659498101247033e+01 0 0 1
656 1 -2.4946064691566370e+01 1.0500000000000000e+01 -1.4792877182520424e+01 0 0 1
1089 1 -2.3847326523011809e+01 1.0500000000000000e+01 1.4975422767164497e+01 0 0 -1
593 1 -2.2549203894673354e+01 1.0500000000000000e+01 -1.4951616170677070e+01 0 0 1
451 1 -2.7096442962074068e+01 -1.0292456415222670e+01 -1.3977500797459316e+01 0 0 0
153 1 -2.6016636726613289e+01 -1.0499953869533261e+01 -1.3816963489715597e+01 0 0 0
506 1 -2.4873753554422986e+01 -1.0500000000000000e+01 -1.3705946766555465e+01 0 0 1
1698 1 -2.3731324531333367e+01 -1.0500000000000000e+01 -1.3506053304835772e+01 0 0 1
1477 1 -2.8111423822388385e+01 -9.6311709087379214e+00 -1.4059495318513825e+01 0 0 0
1035 1 -2.8748762354948347e+01 -8.7017926262220584e+00 -1.3982826325256164e+01 0 0 1
843 1 -2.8999988250090087e+01 -7.5083963874036410e+00 -1.4095889976248904e+01 0 0 0
1892 1 -2.9000000000000000e+01 -6.3373566207323622e+00 -1.4195614800802137e+01 0 0 1
937 1 -2.9000000000000000e+01 1.4881734784572433e+00 -1.3627248427817115e+01 0 0 1
1397 1 -2.9000000000000000e+01 2.6728761441216520e+00 -1.3782060992651463e+01 0 0 0
1448 1 -2.9000000000000000e+01 3.8296149167318037e+00 -1.3820260339218281e+01 0 0 0
38 1 -2.9000000000000000e+01 4.9720934917792663e+00 -1.3873071998305715e+01 0 0 1
274 1 -2.9000000000000000e+01 6.1522826749086761e+00 -1.4037906402342150e+01 0 0 1
786 1 -2.9000000000000000e+01 7.2684240614649847e+00 -1.4148762719839246e+01 0 0 0
1442 1 -2.8862861146051952e+01 8.3966750015619382e+00 -1.4142692718061978e+01 0 0 1
1847 1 -2.5467691692021482e+01 1.0500000000000000e+01 -1.3685259925862161e+01 0 0 0
956 1 -2.4343356198026889e+01 1.0500000000000000e+01 -1.3868934104712467e+01 0 0 0
273 1 -2.3225947215870367e+01 1.0500000000000000e+01 -1.3790850083291144e+01 0 0 1
1052 1 -2.2065993993298108e+01 1.0500000000000000e+01 -1.3895769358795580e+01 0 0 1
838 1 -2.0940965477686181e+01 1.0500000000000000e+01 -1.4110775652152654e+01 0 0 0
1753 1 -2.2606263042585041e+01 -1.0500000000000000e+01 -1.3484892282034306e+01 0 0 0
1151 1 -2.1465013836021274e+01 -1.0500000000000000e+01 -1.3327847900334657e+01 0 0 1
999 1 -2.0338316763917447e+01 -1.0500000000000000e+01 -1.3183021769112523e+01 0 0 0
1630 1 -2.7871617932162756e+01 -9.8445780708248822e+00 -1.2851560097599354e+01 0 0 0
1722 1 -2.8967684125819087e+01 -7.9391479583937423e+00 -1.3011329186741571e+01 0 0 0
1091 1 -2.9000000000000000e+01 -6.8116136730716335e+00 -1.3146405359584458e+01 0 0 1
759 1 -2.9000000000000000e+01 -5.5509363943908827e+00 -1.3378154235193083e+01 0 0 1
1055 1 -2.9000000000000000e+01 -4.3227379232868630e+00 -1.3236134223041589e+01 0 0 0
630 1 -2.9000000000000000e+01 -3.2046636882009305e+00 -1.3352983019250448e+01 0 0 0
1632 1 -2.9000000000000000e+01 -2.0602961237825475e+00 -1.3490286266116726e+01 0 0 0
49 1 -2.9000000000000000e+01 -8.1613847883929924e-01 -1.3591887576710814e+01 0 0 0
358 1 -2.9000000000000000e+01 3.3289038979891356e-01 -1.3577342570993945e+01 0 0 1
1011 1 -2.9000000000000000e+01 5.6188158880652948e+00 -1.2923683671144158e+01 0 0 1
454 1 -2.9000000000000000e+01 6.7816894617048673e+00 -1.3060378666930749e+01 0 0 0
1577 1 -2.8951822174795261e+01 8.0354865538236773e+00 -1.3066277588853360e+01 0 0 1
1626 1 -2.8558196698245375e+01 9.0670448790913607e+00 -1.3310597370471671e+01 0 0 1
977 1 -2.7811587465836105e+01 9.8912655340752735e+00 -1.3407817817316465e+01 0 0 1
684 1 -2.6768425193784640e+01 1.0399917709685372e+01 -1.3551585734461392e+01 0 0 0
1837 1 -2.1336692399890431e+01 1.0500000000000000e+01 -1.3064796207959272e+01 0 0 1
265 1 -2.0192323616419465e+01 1.0500000000000000e+01 -1.3118397154904644e+01 0 0 1
1205 1 -2.6834665301886947e+01 -1.0381550595395813e+01 -1.2837980707335145e+01 0 0 1
623 1 -2.5634665363436923e+01 -1.0500000000000000e+01 -1.2720035844915200e+01 0 0 0
669 1 -2.4431666548535933e+01 -1.0500000000000000e+01 -1.2605373201074759e+01 0 0 0
535 1 -2.3256906047304504e+01 -1.0500000000000000e+01 -1.2463310160322388e+01 0 0 0
584 1 -2.2090452905963918e+01 -1.0500000000000000e+01 -1.2369133879400792e+01 0 0 0
1415 1 -2.0994204013324961e+01 -1.0500000000000000e+01 -1.2222204576395860e+01 0 0 0
272 1 -2.8593422526677628e+01 -9.0080316966566158e+00 -1.2926484230595916e+01 0 0 0
1076 1 -2.9000000000000000e+01 -6.0578486367460229e+00 -1.2305442813433665e+01 0 0 1
410 1 -2.9000000000000000e+01 -4.8782099463325732e+00 -1.2257344399263806e+01 0 0 1
1172 1 -2.9000000000000000e+01 -3.7532844418318874e+00 -1.2153596198076125e+01 0 0 1
816 1 -2.9000000000000000e+01 -2.5624997753693832e+00 -1.2346681045720501e+01 0 0 0
1266 1 -2.9000000000000000e+01 -1.4281804354038292e+00 -1.2518585355841546e+01 0 0 1
1827 1 -2.9000000000000000e+01 -2.4698908190719737e-01 -1.2594831359817372e+01 0 0 0
828 1 -2.9000000000000000e+01 9.9486346385319779e-01 -1.2594842580260931e+01 0 0 1
1112 1 -2.9000000000000000e+01 2.1270604221180585e+00 -1.2660366416896579e+01 0 0 1
365 1 -2.9000000000000000e+01 3.2300591259595270e+00 -1.2796266367158971e+01 0 0 0
1835 1 -2.9000000000000000e+01 4.5035290614883170e+00 -1.2747381343028689e+01 0 0 0
1299 1 -2.8189933729301213e+01 9.5504122191944809e+00 -1.2373761422482254e+01 0 0 0
1798 1 -2.7221121272393933e+01 1.0240230436295626e+01 -1.2449227530523572e+01 0 0 0
1362 1 -2.6083699131628091e+01 1.0498832181927609e+01 -1.2510342841080130e+01 0 0 0
815 1 -2.4916182293451058e+01 1.0500000000000000e+01 -1.2710051866449044e+01 0 0 0
1059 1 -2.3777290730100727e+01 1.0500000000000000e+01 -1.2788535806117682e+01 0 0 1
1983 1 -2.2646971817237773e+01 1.0500000000000000e+01 -1.2828835023593768e+01 0 0 0
1984 1 -2.7411094969591904e+01 -1.0147415907407149e+01 -1.1856576741027972e+01 0 0 0
517 1 -2.6349257625535998e+01 -1.0479600495237682e+01 -1.1675945963206091e+01 0 0 0
952 1 -2.5137699695349387e+01 -1.0500000000000000e+01 -1.1588583828128735e+01 0 0 0
1716 1 -2.3971202185722301e+01 -1.0500000000000000e+01 -1.1579726265173539e+01 0 0 0
806 1 -2.2820557566819339e+01 -1.0500000000000000e+01 -1.1368481991209139e+01 0 0 0
1544 1 -2.8332628016931888e+01 -9.3864905344983942e+00 -1.1826881401194097e+01 0 0 1
814 1 -2.8869131675789646e+01 -8.3764036953378440e+00 -1.1969893716384373e+01 0 0 0
1179 1 -2.9000000000000000e+01 -7.1495044417145923e+00 -1.2038958682804198e+01 0 0 1
1433 1 -2.9000000000000000e+01 -7.2650440555601303e-01 -1.1582325080463407e+01 0 0 0
152 1 -2.9000000000000000e+01 4.4648469415480924e-01 -1.1579839825175211e+01 0 0 1
1160 1 -2.9000000000000000e+01 1.6169633781959194e+00 -1.1665703276113794e+01 0 0 1
1608 1 -2.9000000000000000e+01 2.8119441742707121e+00 -1.1729357332662733e+01 0 0 1
1658 1 -2.9000000000000000e+01 3.9350605692466694e+00 -1.1690802223849191e+01 0 0 1
647 1 -2.9000000000000000e+01 5.0767769796401314e+00 -1.1791647375126724e+01 0 0 1
1617 1 -2.9000000000000000e+01 6.3437121365284117e+00 -1.1991310006015830e+01 0 0 1
500 1 -2.9000000000000000e+01 7.4674955850380522e+00 -1.2095198093337165e+01 0 0 1
1585 1 -2.8775750080599082e+01 8.6380735874351338e+00 -1.2110116744117795e+01 0 0 1
2 1 -2.6609237982884103e+01 1.0437486864687450e+01 -1.1520619585235524e+01 0 0 0
406 1 -2.5343754289025171e+01 1.0500000000000000e+01 -1.1680467490420900e+01 0 0 0
972 1 -2.4205614316741269e+01 1.0500000000000000e+01 -1.1756225742023529e+01 0 0 0
191 1 -2.3094490388131771e+01 1.0500000000000000e+01 -1.1812782935340701e+01 0 0 0
53 1 -2.1912081650605256e+01 1.0500000000000000e+01 -1.1906948313598232e+01 0 0 1
1709 1 -2.0767957975650717e+01 1.0500000000000000e+01 -1.2079858818825901e+01 0 0 1
1637 1 -2.6875650422070859e+01 -1.0369361660775535e+01 -1.0669814887118426e+01 0 0 0
206 1 -2.1650176376176280e+01 -1.0500000000000000e+01 -1.1230376522346992e+01 0 0 0
1022 1 -2.0503229261085487e+01 -1.0500000000000000e+01 -1.1150495683471419e+01 0 0 0
938 1 -2.7895151642334671e+01 -9.8255967530805357e+00 -1.0771592401190697e+01 0 0 0
80 1 -2.8672413473822299e+01 -8.8631603812218991e+00 -1.0897516588440498e+01 0 0 1
1805 1 -2.8992475065795610e+01 -7.7123510810564895e+00 -1.1012734308646001e+01 0 0 1
1099 1 -2.9000000000000000e+01 -6.5373517948292070e+00 -1.1072799879325805e+01 0 0 0
1599 1 -2.9000000000000000e+01 -5.4253406452586335e+00 -1.1209413480097062e+01 0 0 1
182 1 -2.9000000000000000e+01 -4.2639474244814233e+00 -1.1144099453535517e+01 0 0 0
1581 1 -2.9000000000000000e+01 -2.9468021212870972e+00 -1.1206912130578569e+01 0 0 0
1852 1 -2.9000000000000000e+01 -1.8423632996832884e+00 -1.1345272178095867e+01 0 0 0
1363 1 -2.9000000000000000e+01 5.8627987836688495e+00 -1.0782662699077861e+01 0 0 0
874 1 -2.9000000000000000e+01 6.9806708378850111e+00 -1.1067034354922191e+01 0 0 0
1782 1 -2.8941781514920773e+01 8.0881509317092313e+00 -1.1026213226472130e+01 0 0 0
1294 1 -2.8465185594629819e+01 9.2096373839561156e+00 -1.1151456380816287e+01 0 0 0
566 1 -2.7666314021803998e+01 9.9946738425795747e+00 -1.1373964327171404e+01 0 0 0
154 1 -2.2490901870942555e+01 1.0500000000000000e+01 -1.0842606696597436e+01 0 0 1
1338 1 -2.1259958983989723e+01 1.0500000000000000e+01 -1.0958796633646244e+01 0 0 0
62 1 -2.0161561046172999e+01 1.0500000000000000e+01 -1.1100571189655183e+01 0 0 0
64 1 -2.5679619743088303e+01 -1.0500000000000000e+01 -1.0575246046832497e+01 0 0 0
1631 1 -2.4562096931037907e+01 -1.0500000000000000e+01 -1.0497314601779072e+01 0 0 0
603 1 -2.3421986284314922e+01 -1.0500000000000000e+01 -1.0441433674982878e+01 0 0 0
1272 1 -2.2263876181286758e+01 -1.0500000000000000e+01 -1.0294981939909736e+01 0 0 0
1417 1 -2.1160529393407693e+01 -1.0500000000000000e+01 -1.0122577923942071e+01 0 0 0
772 1 -2.9000000000000000e+01 -5.9562942496372218e+00 -9.9669365952895692e+00 0 0 0
1876 1 -2.9000000000000000e+01 -4.8617344218080429e+00 -1.0217851542945326e+01 0 0 0
1826 1 -2.9000000000000000e+01 -3.5825066130724768e+00 -1.0244192364380053e+01 0 0 0
688 1 -2.9000000000000000e+01 -2.4196745829572581e+00 -1.0217766098929955e+01 0 0 0
1061 1 -2.9000000000000000e+01 -1.2832087232522016e+00 -1.0397773890373413e+01 0 0 0
1781 1 -2.9000000000000000e+01 -1.3240452307286016e-01 -1.0471130727737924e+01 0 0 0
499 1 -2.9000000000000000e+01 1.1542437921749293e+00 -1.0637413828750542e+01 0 0 0
1615 1 -2.9000000000000000e+01 2.3191036879205029e+00 -1.0736834344015028e+01 0 0 1
89 1 -2.9000000000000000e+01 3.5352929684860377e+00 -1.0652615222927174e+01 0 0 0
1950 1 -2.9000000000000000e+01 4.6774183389286481e+00 -1.0706180148261879e+01 0 0 0
1554 1 -2.8998500522474941e+01 7.5948399531711344e+00 -9.9897806910527489e+00 0 0 1
1374 1 -2.8712168153411312e+01 8.7822417508494546e+00 -1.0068570104530240e+01 0 0 1
1253 1 -2.8059172567792945e+01 9.6816984979710217e+00 -1.0242498612521315e+01 0 0 0
648 1 -2.6974925132474308e+01 1.0337167775655445e+01 -1.0455181532768217e+01 0 0 0
217 1 -2.5911505130139801e+01 1.0500000000000000e+01 -1.0660527376717123e+01 0 0 1
1355 1 -2.4714316565759567e+01 1.0500000000000000e+01 -1.0754190513724101e+01 0 0 0
556 1 -2.3579335447658817e+01 1.0500000000000000e+01 -1.0690617723695160e+01 0 0 0
1807 1 -2.0604200586874349e+01 1.0500000000000000e+01 -1.0043470967418560e+01 0 0 0
1127 1 -2.7509282489292136e+01 -1.0092694809632494e+01 -9.6995773764032904e+00 0 0 0
1183 1 -2.6397033647958779e+01 -1.0473611319992669e+01 -9.6655838245978636e+00 0 0 0
830 1 -2.5149853694682452e+01 -1.0500000000000000e+01 -9.5375332495454064e+00 0 0 0
495 1 -2.4002600244345800e+01 -1.0500000000000000e+01 -9.3897114265093560e+00 0 0 0
14 1 -2.2860249434470649e+01 -1.0500000000000000e+01 -9.3156439361411252e+00 0 0 1
1948 1 -2.8349468807261147e+01 -9.3654748259788576e+00 -9.7113979764412992e+00 0 0 1
501 1 -2.8886024184795048e+01 -8.3190631262473484e+00 -9.8978657614221337e+00 0 0 0
1564 1 -2.9000000000000000e+01 -7.0657518871511273e+00 -1.0079613696239035e+01 0 0 0
1880 1 -2.9000000000000000e+01 -4.1613724470262419e+00 -9.2958550541140497e+00 0 0 1
344 1 -2.9000000000000000e+01 -5.8511483966071964e-01 -9.4209343814264237e+00 0 0 0
1302 1 -2.9000000000000000e+01 6.2003308091515197e-01 -9.5477984437628027e+00 0 0 0
954 1 -2.9000000000000000e+01 1.8010319452702039e+00 -9.5693271417877703e+00 0 0 0
1255 1 -2.9000000000000000e+01 3.0424970501983135e+00 -9.6674440110976967e+00 0 0 0
1668 1 -2.9000000000000000e+01 4.1879304708119696e+00 -9.6932281338172359e+00 0 0 0
1274 1 -2.9000000000000000e+01 5.3478584135722178e+00 -9.8009304843449936e+00 0 0 1
307 1 -2.9000000000000000e+01 6.4755415142830284e+00 -9.8344829518802328e+00 0 0 0
1803 1 -2.7445709407514350e+01 1.0128673488477508e+01 -9.3931842469642728e+00 0 0 0
1316 1 -2.6377742905477156e+01 1.0476123367295394e+01 -9.5210167357948077e+00 0 0 1
1314 1 -2.5245797456623901e+01 1.0500000000000000e+01 -9.6716072173403145e+00 0 0 1
862 1 -2.2971026194993410e+01 1.0500000000000000e+01 -9.6641819964768132e+00 0 0 0
85 1 -2.1779834110313569e+01 1.0500000000000000e+01 -9.9550755359447436e+00 0 0 0
1308 1 -2.5958569034566825e+01 -1.0500000000000000e+01 -8.6448507758599256e+00 0 0 1
1152 1 -2.1755045021578379e+01 -1.0500000000000000e+01 -9.1727548599455222e+00 0 0 0
756 1 -2.0642233156321854e+01 -1.0500000000000000e+01 -9.1144539821031429e+00 0 0 0
46 1 -2.8031327957438233e+01 -9.7076473290595473e+00 -8.6181013382453138e+00 0 0 0
1772 1 -2.8711267255980523e+01 -8.7841455784481131e+00 -8.7589539763166790e+00 0 0 0
1794 1 -2.8993228076277980e+01 -7.7014588876027599e+00 -8.9543827968249836e+00 0 0 0
1423 1 -2.9000000000000000e+01 -6.5474103053832886e+00 -8.9867868789960585e+00 0 0 1
178 1 -2.9000000000000000e+01 -5.2600777002749552e+00 -9.0575133146720379e+00 0 0 1
1694 1 -2.9000000000000000e+01 -2.9160543235562124e+00 -9.1142560707041866e+00 0 0 0
883 1 -2.9000000000000000e+01 -1.7042068526975889e+00 -9.2363346764105341e+00 0 0 0
1047 1 -2.9000000000000000e+01 3.6722582101596184e+00 -8.6867655801479167e+00 0 0 0
105 1 -2.9000000000000000e+01 4.8756956023644937e+00 -8.7451883381548488e+00 0 0 0
1290 1 -2.9000000000000000e+01 6.0209600358324407e+00 -8.8078734635824674e+00 0 0 0
1931 1 -2.9000000000000000e+01 7.1648600156925513e+00 -8.9408248633520788e+00 0 0 0
1500 1 -2.8893914472780928e+01 8.2907332193856984e+00 -9.0392887465271645e+00 0 0 0
357 1 -2.8380611163566776e+01 9.3255657996755161e+00 -9.1554958590102178e+00 0 0 0
1100 1 -2.4577347410218611e+01 1.0500000000000000e+01 -8.6637766118668704e+00 0 0 0
1464 1 -2.3424329287687165e+01 1.0500000000000000e+01 -8.6676171965286102e+00 0 0 0
1822 1 -2.2200869135536383e+01 1.0500000000000000e+01 -8.7659219520842413e+00 0 0 1
754 1 -2.1119064303067901e+01 1.0500000000000000e+01 -9.0134411812897941e+00 0 0 0
918 1 -2.7067337472422896e+01 -1.0303710170463756e+01 -8.5986479631057673e+00 0 0 0
1910 1 -2.4760393688496073e+01 -1.0500000000000000e+01 -8.3986935217004728e+00 0 0 0
1144 1 -2.3596744387669279e+01 -1.0500000000000000e+01 -8.3073616287775529e+00 0 0 1
860 1 -2.2440037045920391e+01 -1.0500000000000000e+01 -8.2565417850187650e+00 0 0 0
149 1 -2.1271865221288095e+01 -1.0500000000000000e+01 -8.1474857501414313e+00 0 0 1
1010 1 -2.0113609855315559e+01 -1.0500000000000000e+01 -7.9587109308819439e+00 0 0 0
597 1 -2.9000000000000000e+01 -6.9621176535084484e+00 -7.8874532119817555e+00 0 0 0
826 1 -2.9000000000000000e+01 -5.7534692313530185e+00 -8.0641415158297036e+00 0 0 0
932 1 -2.9000000000000000e+01 -4.6157284345644705e+00 -8.0037681197835173e+00 0 0 0
1810 1 -2.9000000000000000e+01 -3.4431757104023317e+00 -8.0576837895733551e+00 0 0 1
878 1 -2.9000000000000000e+01 -2.2660706123713834e+00 -8.1636771435274458e+00 0 0 0
666 1 -2.9000000000000000e+01 -9.8343173266943806e-01 -8.3773184220097399e+00 0 0 0
1708 1 -2.9000000000000000e+01 2.3372373425159798e-01 -8.3719675043060136e+00 0 0 0
1234 1 -2.9000000000000000e+01 1.4443905932016747e+00 -8.4320677527879884e+00 0 0 0
387 1 -2.9000000000000000e+01 2.5232822848381953e+00 -8.6644446186696573e+00 0 0 1
774 1 -2.9000000000000000e+01 6.7188106632300411e+00 -7.9024854641443980e+00 0 0 0
835 1 -2.8981597958470310e+01 7.8317734378242125e+00 -8.0165003619815565e+00 0 0 1
1466 1 -2.8643974634081047e+01 8.9175324103300007e+00 -8.1555685617364624e+00 0 0 0
37 1 -2.7890342501642937e+01 9.8295075072818108e+00 -8.2535582821709017e+00 0 0 1
6 1 -2.6913483412964904e+01 1.0357542310139607e+01 -8.3987862898354138e+00 0 0 0
677 1 -2.5726389205284008e+01 1.0500000000000000e+01 -8.5721521112795500e+00 0 0 0
1677 1 -2.0265285161220739e+01 1.0500000000000000e+01 -7.9562738164051181e+00 0 0 0
1941 1 -2.6679508559883125e+01 -1.0422031506208089e+01 -7.5528754648863918e+00 0 0 1
1114 1 -2.5539550637521081e+01 -1.0500000000000000e+01 -7.4797371685471647e+00 0 0 0
1321 1 -2.4238658684656915e+01 -1.0500000000000000e+01 -7.3614918530388875e+00 0 0 0
1740 1 -2.3005990444783276e+01 -1.0500000000000000e+01 -7.2951536789398563e+00 0 0 0
1543 1 -2.1883063350273968e+01 -1.0500000000000000e+01 -7.1378033100379055e+00 0 0 0
1297 1 -2.7711438316253407e+01 -9.9639356504705425e+00 -7.5755630579714088e+00 0 0 1
1387 1 -2.8503532828500134e+01 -9.1529741004087519e+00 -7.6618009974338381e+00 0 0 0
1263 1 -2.8934810970220507e+01 -8.1220004574543072e+00 -7.8008304374202826e+00 0 0 1
133 1 -2.9000000000000000e+01 -1.5054436716880819e+00 -7.2906788793845401e+00 0 0 0
1735 1 -2.9000000000000000e+01 -2.3630195752885230e-01 -7.3279155561236724e+00 0 0 0
541 1 -2.9000000000000000e+01 9.1983625751563391e-01 -7.3867263014552398e+00 0 0 1
868 1 -2.9000000000000000e+01 2.0366503329018228e+00 -7.4423310777359992e+00 0 0 0
1051 1 -2.9000000000000000e+01 3.1806855594352852e+00 -7.6582513889248371e+00 0 0 0
1666 1 -2.9000000000000000e+01 4.3458822855385062e+00 -7.6648508064148277e+00 0 0 0
522 1 -2.9000000000000000e+01 5.5444723242234684e+00 -7.7877678934366843e+00 0 0 1
109 1 -2.8227821372836758e+01 9.5091819059438638e+00 -7.2284058400192643e+00 0 0 0
911 1 -2.7347941384311653e+01 1.0180122017662839e+01 -7.1900408362917956e+00 0 0 0
270 1 -2.6208577116993823e+01 1.0492740480941597e+01 -7.4324811327866369e+00 0 0 1
180 1 -2.5052093830633432e+01 1.0500000000000000e+01 -7.5468488372134228e+00 0 0 0
279 1 -2.3898892076485932e+01 1.0500000000000000e+01 -7.6247769923738495e+00 0 0 0
694 1 -2.2756551996373226e+01 1.0500000000000000e+01 -7.6771414815729013e+00 0 0 0
1710 1 -2.1370898968204923e+01 1.0500000000000000e+01 -7.8773007355992757e+00 0 0 1
1489 1 -2.7237641609144891e+01 -1.0232808673748172e+01 -6.5907153326465799e+00 0 0 0
1348 1 -2.0766558450888304e+01 -1.0500000000000000e+01 -6.9756462984408349e+00 0 0 0
1645 1 -2.8223888813144889e+01 -9.5135338454490928e+00 -6.6307781955508185e+00 0 0 0
1785 1 -2.8819438383166428e+01 -8.5250693653719587e+00 -6.6591685936976655e+00 0 0 0
1938 1 -2.9000000000000000e+01 -7.3822636393719474e+00 -6.7397457076103304e+00 0 0 0
308 1 -2.9000000000000000e+01 -6.2086886689168868e+00 -6.8737774880009974e+00 0 0 0
288 1 -2.9000000000000000e+01 -5.0755345728357675e+00 -6.9564322938935996e+00 0 0 0
651 1 -2.9000000000000000e+01 -3.9818679945582987e+00 -7.0809484492639436e+00 0 0 1
1992 1 -2.9000000000000000e+01 -2.6907317103974129e+00 -7.0736392259981855e+00 0 0 0
117 1 -2.9000000000000000e+01 2.7338227231657362e+00 -6.5740191758857662e+00 0 0 0
1667 1 -2.9000000000000000e+01 3.8955632611957349e+00 -6.6581321079291973e+00 0 0 0
363 1 -2.9000000000000000e+01 5.0600307477972120e+00 -6.7300603284168004e+00 0 0 0
922 1 -2.9000000000000000e+01 6.2709097571146399e+00 -6.8088538422141047e+00 0 0 0
924 1 -2.9000000000000000e+01 7.3880468475960006e+00 -7.0004968478918892e+00 0 0 0
1859 1 -2.8811665137300558e+01 8.5462022537658910e+00 -7.1179793782899923e+00 0 0 0
1360 1 -2.5494346267409071e+01 1.0500000000000000e+01 -6.5107832951278528e+00 0 0 0
1107 1 -2.4371178857949076e+01 1.0500000000000000e+01 -6.5662295537098441e+00 0 0 0
1695 1 -2.3199581118546519e+01 1.0500000000000000e+01 -6.6542013070610073e+00 0 0 0
1260 1 -2.1924449217352588e+01 1.0500000000000000e+01 -6.8440139106158977e+00 0 0 0
1595 1 -2.0799946479609627e+01 1.0500000000000000e+01 -6.8817867210523955e+00 0 0 0
604 1 -2.6113142340016527e+01 -1.0497865709283120e+01 -6.3748760876147985e+00 0 0 0
386 1 -2.4997123802218827e+01 -1.0500000000000000e+01 -6.3561410614460492e+00 0 0 0
951 1 -2.3820069135206278e+01 -1.0500000000000000e+01 -6.2965440710934466e+00 0 0 0
1774 1 -2.2699274514162767e+01 -1.0500000000000000e+01 -6.1889368829767673e+00 0 0 0
511 1 -2.1584794556459570e+01 -1.0500000000000000e+01 -5.9744314042099447e+00 0 0 0
476 1 -2.0359541157784552e+01 -1.0500000000000000e+01 -5.9225251869879143e+00 0 0 0
488 1 -2.8967481699873225e+01 -7.9405137465704225e+00 -5.7178584181291683e+00 0 0 0
649 1 -2.9000000000000000e+01 -6.7394435476438410e+00 -5.7671430711152878e+00 0 0 1
1394 1 -2.9000000000000000e+01 -5.5878653429905905e+00 -5.9665969403200538e+00 0 0 0
1497 1 -2.9000000000000000e+01 -4.3991599154412784e+00 -6.0576792634861478e+00 0 0 0
342 1 -2.9000000000000000e+01 -3.2576768269402012e+00 -6.0392452393860365e+00 0 0 1
305 1 -2.9000000000000000e+01 -2.0678632987873731e+00 -6.0919704749015988e+00 0 0 0
740 1 -2.9000000000000000e+01 -8.2338635386617143e-01 -6.3426401551365190e+00 0 0 0
689 1 -2.9000000000000000e+01 4.0179421030088686e-01 -6.4007375174353136e+00 0 0 0
141 1 -2.9000000000000000e+01 1.6137350589033548e+00 -6.3607732600299087e+00 0 0 0
1401 1 -2.9000000000000000e+01 5.7220569443489175e+00 -5.7975154367574131e+00 0 0 0
1817 1 -2.9000000000000000e+01 7.0058139219993487e+00 -5.9265971408072344e+00 0 0 0
1572 1 -2.8932728361951469e+01 8.1317470703386725e+00 -6.0625180090908293e+00 0 0 0
389 1 -2.8474822892761193e+01 9.1956567048160061e+00 -6.1435502309657970e+00 0 0 0
607 1 -2.7707103183087572e+01 9.9669411671728785e+00 -6.1612079648399893e+00 0 0 0
1154 1 -2.6587292775935985e+01 1.0441952956002764e+01 -6.2803647728639556e+00 0 0 0
800 1 -2.2434475435867160e+01 1.0500000000000000e+01 -5.8343403291369178e+00 0 0 0
731 1 -2.1314223840920857e+01 1.0500000000000000e+01 -5.8020195022781254e+00 0 0 0
1989 1 -2.0160217450377417e+01 1.0500000000000000e+01 -5.8888809331786662e+00 0 0 0
821 1 -2.6786997822590283e+01 -1.0394932542778527e+01 -5.3919076391064076e+00 0 0 0
1665 1 -2.5660280477844864e+01 -1.0500000000000000e+01 -5.2808924552057741e+00 0 0 0
805 1 -2.4536737522684515e+01 -1.0500000000000000e+01 -5.2817042357410822e+00 0 0 0
96 1 -2.3381978448940789e+01 -1.0500000000000000e+01 -5.2254460407608168e+00 0 0 0
1926 1 -2.2176666229487736e+01 -1.0500000000000000e+01 -5.0357386867816318e+00 0 0 0
1206 1 -2.7803170928618627e+01 -9.8976185278735986e+00 -5.6725712503790886e+00 0 0 1
1049 1 -2.8580473364856218e+01 -9.0300840556898372e+00 -5.6687485001492419e+00 0 0 0
504 1 -2.9000000000000000e+01 -4.8139685170396538e+00 -5.0060026937388056e+00 0 0 0
1422 1 -2.9000000000000000e+01 -2.4074851142257772e+00 -5.0351178864830652e+00 0 0 0
355 1 -2.9000000000000000e+01 -1.1926396531112384e+00 -5.2937393093464262e+00 0 0 0
1199 1 -2.9000000000000000e+01 -6.8902044221217026e-02 -5.3788672282775316e+00 0 0 0
616 1 -2.9000000000000000e+01 1.0704842272793909e+00 -5.3983156605659630e+00 0 0 1
1123 1 -2.9000000000000000e+01 2.3159164611063550e+00 -5.4465888374412152e+00 0 0 0
110 1 -2.9000000000000000e+01 3.4287226865312808e+00 -5.5714197690307774e+00 0 0 0
1693 1 -2.9000000000000000e+01 4.5804671717093486e+00 -5.7085566316530354e+00 0 0 0
269 1 -2.8728390953376422e+01 8.7473503138788633e+00 -5.0159000612034772e+00 0 0 0
1465 1 -2.8098109484856728e+01 9.6442799699562656e+00 -5.1677809306153479e+00 0 0 0
1227 1 -2.7068163561292980e+01 1.0303395549387545e+01 -5.2821608935721569e+00 0 0 0
1476 1 -2.5972898921074606e+01 1.0500000000000000e+01 -5.3464091535761318e+00 0 0 0
1369 1 -2.4870539629578204e+01 1.0500000000000000e+01 -5.5283816920836930e+00 0 0 1
717 1 -2.3754049829276607e+01 1.0500000000000000e+01 -5.5078007170080339e+00 0 0 0
899 1 -2.7448735569557556e+01 -1.0127006899400675e+01 -4.5086870269653412e+00 0 0 0
1591 1 -2.6282116727604592e+01 -1.0486705569326235e+01 -4.3274646984451950e+00 0 0 0
142 1 -2.5149913199464095e+01 -1.0500000000000000e+01 -4.2567989688665451e+00 0 0 0
743 1 -2.1027850068049368e+01 -1.0500000000000000e+01 -4.9404888178649102e+00 0 0 0
1531 1 -2.8305189903663099e+01 -9.4199217460798081e+00 -4.6400782858736083e+00 0 0 0
1349 1 -2.8872204870422511e+01 -8.3662789296433573e+00 -4.6035162672536725e+00 0 0 0
1528 1 -2.9000000000000000e+01 -7.2648835266861163e+00 -4.7460765780850886e+00 0 0 0
1101 1 -2.9000000000000000e+01 -6.0541089809765136e+00 -4.8938406719829972e+00 0 0 0
243 1 -2.9000000000000000e+01 -3.6422104056253533e+00 -4.9011302000995096e+00 0 0 0
1589 1 -2.9000000000000000e+01 -5.6135832431972810e-01 -4.3401969275179857e+00 0 0 0
1436 1 -2.9000000000000000e+01 1.8440192125883024e+00 -4.4025629857266511e+00 0 0 0
831 1 -2.9000000000000000e+01 3.0567817227561562e+00 -4.5364495099593123e+00 0 0 0
892 1 -2.9000000000000000e+01 4.1753032568022173e+00 -4.6105788555527267e+00 0 0 0
1704 1 -2.9000000000000000e+01 5.3031144146211817e+00 -4.5945160383430999e+00 0 0 0
448 1 -2.9000000000000000e+01 6.4364728737205015e+00 -4.9037368911237946e+00 0 0 0
997 1 -2.8995999270008959e+01 7.6548818073669000e+00 -4.9509967806756023e+00 0 0 0
975 1 -2.5270177957834282e+01 1.0500000000000000e+01 -4.4486145544647480e+00 0 0 0
1033 1 -2.4043289905504409e+01 1.0500000000000000e+01 -4.4109540962220182e+00 0 0 0
1147 1 -2.2880709583190068e+01 1.0500000000000000e+01 -4.7001309947812961e+00 0 0 0
1040 1 -2.1723183011309374e+01 1.0500000000000000e+01 -4.7028591648840674e+00 0 0 0
1899 1 -2.0493911527311159e+01 1.0500000000000000e+01 -4.8061582656147088e+00 0 0 0
686 1 -2.4023388136259825e+01 -1.0500000000000000e+01 -4.2952416025314424e+00 0 0 0
764 1 -2.2907963264911377e+01 -1.0500000000000000e+01 -4.1518454972724541e+00 0 0 0
1173 1 -2.1779947549146343e+01 -1.0500000000000000e+01 -3.9548285884231347e+00 0 0 0
646 1 -2.0464090717250997e+01 -1.0500000000000000e+01 -3.9532073093746276e+00 0 0 0
654 1 -2.8992694449244514e+01 -7.7092365716347260e+00 -3.5761435978520235e+00 0 0 0
1939 1 -2.9000000000000000e+01 -6.4866918247841721e+00 -3.8581155452571871e+00 0 0 0
1778 1 -2.9000000000000000e+01 -5.1325483880879172e+00 -3.9195129750700080e+00 0 0 0
1883 1 -2.9000000000000000e+01 -3.9824013555698481e+00 -3.8475311097733522e+00 0 0 0
678 1 -2.9000000000000000e+01 -2.8330797701622923e+00 -3.9972998137374951e+00 0 0 0
1731 1 -2.9000000000000000e+01 -1.6917697221870611e+00 -4.1080268673638738e+00 0 0 0
1594 1 -2.9000000000000000e+01 7.1871651881161158e-01 -4.2924496451560943e+00 0 0 0
327 1 -2.9000000000000000e+01 4.8256752843688382e+00 -3.5922620696369392e+00 0 0 0
1181 1 -2.9000000000000000e+01 7.0501103159442380e+00 -3.9138110994687034e+00 0 0 0
1851 1 -2.8888184894844887e+01 8.3114111248587168e+00 -3.9700797916723292e+00 0 0 0
976 1 -2.8400690529062803e+01 9.2990789282711415e+00 -4.0870882932912425e+00 0 0 0
844 1 -2.7562531956252261e+01 1.0060955658836148e+01 -4.2699661842116852e+00 0 0 0
583 1 -2.6388566715276465e+01 1.0474729552039859e+01 -4.2911275794096317e+00 0 0 0
503 1 -2.2297335052386675e+01 1.0500000000000000e+01 -3.6929824186234517e+00 0 0 0
1180 1 -2.1082594940439989e+01 1.0500000000000000e+01 -3.7438628259417248e+00 0 0 0
741 1 -2.7026985426616065e+01 -1.0318741019243353e+01 -3.4158896710996349e+00 0 0 0
536 1 -2.5896836869579431e+01 -1.0500000000000000e+01 -3.2800952246362716e+00 0 0 0
258 1 -2.4738117856220704e+01 -1.0500000000000000e+01 -3.1982218649438314e+00 0 0 0
505 1 -2.3627569248600309e+01 -1.0500000000000000e+01 -3.2167909640562709e+00 0 0 0
628 1 -2.2528469223247555e+01 -1.0500000000000000e+01 -2.9750497627183372e+00 0 0 0
1351 1 -2.1238507757407636e+01 -1.0500000000000000e+01 -2.8986002811055682e+00 0 0 0
1389 1 -2.8011935079934442e+01 -9.7253353082466472e+00 -3.5569048749285499e+00 0 0 0
1824 1 -2.8684987462037320e+01 -8.8382235730728471e+00 -3.6109050809429837e+00 0 0 0
936 1 -2.9000000000000000e+01 -4.5910334011203000e+00 -2.9282437668182562e+00 0 0 0
1473 1 -2.9000000000000000e+01 -3.2202839033449964e+00 -2.8851530329898414e+00 0 0 0
1574 1 -2.9000000000000000e+01 -2.1285939495403059e+00 -3.0411348062534742e+00 0 0 1
682 1 -2.9000000000000000e+01 -9.6113652856425869e-01 -3.0574254146094275e+00 0 0 0
1768 1 -2.9000000000000000e+01 1.7198859844803022e-01 -3.1703989659305276e+00 0 0 0
1555 1 -2.9000000000000000e+01 1.2956055467291652e+00 -3.3323235178833395e+00 0 0 1
712 1 -2.9000000000000000e+01 2.5415177807801896e+00 -3.4662760098638974e+00 0 0 0