LAMMPS data file via write_data, version 2 Jun 2022, timestep = 0

500 atoms
1 atom types

0 8.2207069144349 xlo xhi
0 8.2207069144349 ylo yhi
0 8.2207069144349 zlo zhi

Masses

1 1

Atoms # atomic

1 1 0 0 0 0 0 0
2 1 0.82207069144349 0.82207069144349 0 0 0 0
3 1 0.82207069144349 0 0.82207069144349 0 0 0
4 1 0 0.82207069144349 0.82207069144349 0 0 0
5 1 1.64414138288698 0 0 0 0 0
6 1 2.46621207433047 0.82207069144349 0 0 0 0
7 1 2.46621207433047 0 0.82207069144349 0 0 0
8 1 1.64414138288698 0.82207069144349 0.82207069144349 0 0 0
9 1 3.28828276577396 0 0 0 0 0
10 1 4.11035345721745 0.82207069144349 0 0 0 0
11 1 4.11035345721745 0 0.82207069144349 0 0 0
12 1 3.28828276577396 0.82207069144349 0.82207069144349 0 0 0
13 1 4.93242414866094 0 0 0 0 0
14 1 5.75449484010443 0.82207069144349 0 0 0 0
15 1 5.75449484010443 0 0.82207069144349 0 0 0
16 1 4.93242414866094 0.82207069144349 0.82207069144349 0 0 0
17 1 6.57656553154792 0 0 0 0 0
18 1 7.39863622299141 0.82207069144349 0 0 0 0
19 1 7.39863622299141 0 0.82207069144349 0 0 0
20 1 6.57656553154792 0.82207069144349 0.82207069144349 0 0 0
21 1 0 1.64414138288698 0 0 0 0
22 1 0.82207069144349 2.46621207433047 0 0 0 0
23 1 0.82207069144349 1.64414138288698 0.82207069144349 0 0 0
24 1 0 2.46621207433047 0.82207069144349 0 0 0
25 1 1.64414138288698 1.64414138288698 0 0 0 0
26 1 2.46621207433047 2.46621207433047 0 0 0 0
27 1 2.46621207433047 1.64414138288698 0.82207069144349 0 0 0
28 1 1.64414138288698 2.46621207433047 0.82207069144349 0 0 0
29 1 3.28828276577396 1.64414138288698 0 0 0 0
30 1 4.11035345721745 2.46621207433047 0 0 0 0
31 1 4.11035345721745 1.64414138288698 0.82207069144349 0 0 0
32 1 3.28828276577396 2.46621207433047 0.82207069144349 0 0 0
33 1 4.93242414866094 1.64414138288698 0 0 0 0
34 1 5.75449484010443 2.46621207433047 0 0 0 0
35 1 5.75449484010443 1.64414138288698 0.82207069144349 0 0 0
36 1 4.93242414866094 2.46621207433047 0.82207069144349 0 0 0
37 1 6.57656553154792 1.64414138288698 0 0 0 0
38 1 7.39863622299141 2.46621207433047 0 0 0 0
39 1 7.39863622299141 1.64414138288698 0.82207069144349 0 0 0
40 1 6.57656553154792 2.46621207433047 0.82207069144349 0 0 0
41 1 0 3.28828276577396 0 0 0 0
42 1 0.82207069144349 4.11035345721745 0 0 0 0
43 1 0.82207069144349 3.28828276577396 0.82207069144349 0 0 0
44 1 0 4.11035345721745 0.82207069144349 0 0 0
45 1 1.64414138288698 3.28828276577396 0 0 0 0
46 1 2.46621207433047 4.11035345721745 0 0 0 0
47 1 2.46621207433047 3.28828276577396 0.82207069144349 0 0 0
48 1 1.64414138288698 4.11035345721745 0.82207069144349 0 0 0
49 1 3.28828276577396 3.28828276577396 0 0 0 0
50 1 4.11035345721745 4.11035345721745 0 0 0 0
51 1 4.11035345721745 3.28828276577396 0.82207069144349 0 0 0
52 1 3.28828276577396 4.11035345721745 0.82207069144349 0 0 0
53 1 4.93242414866094 3.28828276577396 0 0 0 0
54 1 5.75449484010443 4.11035345721745 0 0 0 0
55 1 5.75449484010443 3.28828276577396 0.82207069144349 0 0 0
56 1 4.93242414866094 4.11035345721745 0.82207069144349 0 0 0
57 1 6.57656553154792 3.28828276577396 0 0 0 0
58 1 7.39863622299141 4.11035345721745 0 0 0 0
59 1 7.39863622299141 3.28828276577396 0.82207069144349 0 0 0
60 1 6.57656553154792 4.11035345721745 0.82207069144349 0 0 0
61 1 0 4.93242414866094 0 0 0 0
62 1 0.82207069144349 5.75449484010443 0 0 0 0
63 1 0.82207069144349 4.93242414866094 0.82207069144349 0 0 0
64 1 0 5.75449484010443 0.82207069144349 0 0 0
65 1 1.64414138288698 4.93242414866094 0 0 0 0
66 1 2.46621207433047 5.75449484010443 0 0 0 0
67 1 2.46621207433047 4.93242414866094 0.82207069144349 0 0 0
68 1 1.64414138288698 5.75449484010443 0.82207069144349 0 0 0
69 1 3.28828276577396 4.93242414866094 0 0 0 0
70 1 4.11035345721745 5.75449484010443 0 0 0 0
71 1 4.11035345721745 4.93242414866094 0.82207069144349 0 0 0
72 1 3.28828276577396 5.75449484010443 0.82207069144349 0 0 0
73 1 4.93242414866094 4.93242414866094 0 0 0 0
74 1 5.75449484010443 5.75449484010443 0 0 0 0
75 1 5.75449484010443 4.93242414866094 0.82207069144349 0 0 0
76 1 4.93242414866094 5.75449484010443 0.82207069144349 0 0 0
77 1 6.57656553154792 4.93242414866094 0 0 0 0
78 1 7.39863622299141 5.75449484010443 0 0 0 0
79 1 7.39863622299141 4.93242414866094 0.82207069144349 0 0 0
80 1 6.57656553154792 5.75449484010443 0.82207069144349 0 0 0
81 1 0 6.57656553154792 0 0 0 0
82 1 0.82207069144349 7.39863622299141 0 0 0 0
83 1 0.82207069144349 6.57656553154792 0.82207069144349 0 0 0
84 1 0 7.39863622299141 0.82207069144349 0 0 0
85 1 1.64414138288698 6.57656553154792 0 0 0 0
86 1 2.46621207433047 7.39863622299141 0 0 0 0
87 1 2.46621207433047 6.57656553154792 0.82207069144349 0 0 0
88 1 1.64414138288698 7.39863622299141 0.82207069144349 0 0 0
89 1 3.28828276577396 6.57656553154792 0 0 0 0
90 1 4.11035345721745 7.39863622299141 0 0 0 0
91 1 4.11035345721745 6.57656553154792 0.82207069144349 0 0 0
92 1 3.28828276577396 7.39863622299141 0.82207069144349 0 0 0
93 1 4.93242414866094 6.57656553154792 0 0 0 0
94 1 5.75449484010443 7.39863622299141 0 0 0 0
95 1 5.75449484010443 6.57656553154792 0.82207069144349 0 0 0
96 1 4.93242414866094 7.39863622299141 0.82207069144349 0 0 0
97 1 6.57656553154792 6.57656553154792 0 0 0 0
98 1 7.39863622299141 7.39863622299141 0 0 0 0
99 1 7.39863622299141 6.57656553154792 0.82207069144349 0 0 0
100 1 6.57656553154792 7.39863622299141 0.82207069144349 0 0 0
101 1 0 0 1.64414138288698 0 0 0
102 1 0.82207069144349 0.82207069144349 1.64414138288698 0 0 0
103 1 0.82207069144349 0 2.46621207433047 0 0 0
104 1 0 0.82207069144349 2.46621207433047 0 0 0
105 1 1.64414138288698 0 1.64414138288698 0 0 0
106 1 2.46621207433047 0.82207069144349 1.64414138288698 0 0 0
107 1 2.46621207433047 0 2.46621207433047 0 0 0
108 1 1.64414138288698 0.82207069144349 2.46621207433047 0 0 0
109 1 3.28828276577396 0 1.64414138288698 0 0 0
110 1 4.11035345721745 0.82207069144349 1.64414138288698 0 0 0
111 1 4.11035345721745 0 2.46621207433047 0 0 0
112 1 3.28828276577396 0.82207069144349 2.46621207433047 0 0 0
113 1 4.93242414866094 0 1.64414138288698 0 0 0
114 1 5.75449484010443 0.82207069144349 1.64414138288698 0 0 0
115 1 5.75449484010443 0 2.46621207433047 0 0 0
116 1 4.93242414866094 0.82207069144349 2.46621207433047 0 0 0
117 1 6.57656553154792 0 1.64414138288698 0 0 0
118 1 7.39863622299141 0.82207069144349 1.64414138288698 0 0 0
119 1 7.39863622299141 0 2.46621207433047 0 0 0
120 1 6.57656553154792 0.82207069144349 2.46621207433047 0 0 0
121 1 0 1.64414138288698 1.64414138288698 0 0 0
122 1 0.82207069144349 2.46621207433047 1.64414138288698 0 0 0
123 1 0.82207069144349 1.64414138288698 2.46621207433047 0 0 0
124 1 0 2.46621207433047 2.46621207433047 0 0 0
125 1 1.64414138288698 1.64414138288698 1.64414138288698 0 0 0
126 1 2.46621207433047 2.46621207433047 1.64414138288698 0 0 0
127 1 2.46621207433047 1.64414138288698 2.46621207433047 0 0 0
128 1 1.64414138288698 2.46621207433047 2.46621207433047 0 0 0
129 1 3.28828276577396 1.64414138288698 1.64414138288698 0 0 0
130 1 4.11035345721745 2.46621207433047 1.64414138288698 0 0 0
131 1 4.11035345721745 1.64414138288698 2.46621207433047 0 0 0
132 1 3.28828276577396 2.46621207433047 2.46621207433047 0 0 0
133 1 4.93242414866094 1.64414138288698 1.64414138288698 0 0 0
134 1 5.75449484010443 2.46621207433047 1.64414138288698 0 0 0
135 1 5.75449484010443 1.64414138288698 2.46621207433047 0 0 0
136 1 4.93242414866094 2.46621207433047 2.46621207433047 0 0 0
137 1 6.57656553154792 1.64414138288698 1.64414138288698 0 0 0
138 1 7.39863622299141 2.46621207433047 1.64414138288698 0 0 0
139 1 7.39863622299141 1.64414138288698 2.46621207433047 0 0 0
140 1 6.57656553154792 2.46621207433047 2.46621207433047 0 0 0
141 1 0 3.28828276577396 1.64414138288698 0 0 0
142 1 0.82207069144349 4.11035345721745 1.64414138288698 0 0 0
143 1 0.82207069144349 3.28828276577396 2.46621207433047 0 0 0
144 1 0 4.11035345721745 2.46621207433047 0 0 0
145 1 1.64414138288698 3.28828276577396 1.64414138288698 0 0 0
146 1 2.46621207433047 4.11035345721745 1.64414138288698 0 0 0
147 1 2.46621207433047 3.28828276577396 2.46621207433047 0 0 0
148 1 1.64414138288698 4.11035345721745 2.46621207433047 0 0 0
149 1 3.28828276577396 3.28828276577396 1.64414138288698 0 0 0
150 1 4.11035345721745 4.11035345721745 1.64414138288698 0 0 0
151 1 4.11035345721745 3.28828276577396 2.46621207433047 0 0 0
152 1 3.28828276577396 4.11035345721745 2.46621207433047 0 0 0
153 1 4.93242414866094 3.28828276577396 1.64414138288698 0 0 0
154 1 5.75449484010443 4.11035345721745 1.64414138288698 0 0 0
155 1 5.75449484010443 3.28828276577396 2.46621207433047 0 0 0
156 1 4.93242414866094 4.11035345721745 2.46621207433047 0 0 0
157 1 6.57656553154792 3.28828276577396 1.64414138288698 0 0 0
158 1 7.39863622299141 4.11035345721745 1.64414138288698 0 0 0
159 1 7.39863622299141 3.28828276577396 2.46621207433047 0 0 0
160 1 6.57656553154792 4.11035345721745 2.46621207433047 0 0 0
161 1 0 4.93242414866094 1.64414138288698 0 0 0
162 1 0.82207069144349 5.75449484010443 1.64414138288698 0 0 0
163 1 0.82207069144349 4.93242414866094 2.46621207433047 0 0 0
164 1 0 5.75449484010443 2.46621207433047 0 0 0
165 1 1.64414138288698 4.93242414866094 1.64414138288698 0 0 0
166 1 2.46621207433047 5.75449484010443 1.64414138288698 0 0 0
167 1 2.46621207433047 4.93242414866094 2.46621207433047 0 0 0
168 1 1.64414138288698 5.75449484010443 2.46621207433047 0 0 0
169 1 3.28828276577396 4.93242414866094 1.64414138288698 0 0 0
170 1 4.11035345721745 5.75449484010443 1.64414138288698 0 0 0
171 1 4.11035345721745 4.93242414866094 2.46621207433047 0 0 0
172 1 3.28828276577396 5.75449484010443 2.46621207433047 0 0 0
173 1 4.93242414866094 4.93242414866094 1.64414138288698 0 0 0
174 1 5.75449484010443 5.75449484010443 1.64414138288698 0 0 0
175 1 5.75449484010443 4.93242414866094 2.46621207433047 0 0 0
176 1 4.93242414866094 5.75449484010443 2.46621207433047 0 0 0
177 1 6.57656553154792 4.93242414866094 1.64414138288698 0 0 0
178 1 7.39863622299141 5.75449484010443 1.64414138288698 0 0 0
179 1 7.39863622299141 4.93242414866094 2.46621207433047 0 0 0
180 1 6.57656553154792 5.75449484010443 2.46621207433047 0 0 0
181 1 0 6.57656553154792 1.64414138288698 0 0 0
182 1 0.82207069144349 7.39863622299141 1.64414138288698 0 0 0
183 1 0.82207069144349 6.57656553154792 2.46621207433047 0 0 0
184 1 0 7.39863622299141 2.46621207433047 0 0 0
185 1 1.64414138288698 6.57656553154792 1.64414138288698 0 0 0
186 1 2.46621207433047 7.39863622299141 1.64414138288698 0 0 0
187 1 2.46621207433047 6.57656553154792 2.46621207433047 0 0 0
188 1 1.64414138288698 7.39863622299141 2.46621207433047 0 0 0
189 1 3.28828276577396 6.57656553154792 1.64414138288698 0 0 0
190 1 4.11035345721745 7.39863622299141 1.64414138288698 0 0 0
191 1 4.11035345721745 6.57656553154792 2.46621207433047 0 0 0
192 1 3.28828276577396 7.39863622299141 2.46621207433047 0 0 0
193 1 4.93242414866094 6.57656553154792 1.64414138288698 0 0 0
194 1 5.75449484010443 7.39863622299141 1.64414138288698 0 0 0
195 1 5.75449484010443 6.57656553154792 2.46621207433047 0 0 0
196 1 4.93242414866094 7.39863622299141 2.46621207433047 0 0 0
197 1 6.57656553154792 6.57656553154792 1.64414138288698 0 0 0
198 1 7.39863622299141 7.39863622299141 1.64414138288698 0 0 0
199 1 7.39863622299141 6.57656553154792 2.46621207433047 0 0 0
200 1 6.57656553154792 7.39863622299141 2.46621207433047 0 0 0
201 1 0 0 3.28828276577396 0 0 0
202 1 0.82207069144349 0.82207069144349 3.28828276577396 0 0 0
203 1 0.82207069144349 0 4.11035345721745 0 0 0
204 1 0 0.82207069144349 4.11035345721745 0 0 0
205 1 1.64414138288698 0 3.28828276577396 0 0 0
206 1 2.46621207433047 0.82207069144349 3.28828276577396 0 0 0
207 1 2.46621207433047 0 4.11035345721745 0 0 0
208 1 1.64414138288698 0.82207069144349 4.11035345721745 0 0 0
209 1 3.28828276577396 0 3.28828276577396 0 0 0
210 1 4.11035345721745 0.82207069144349 3.28828276577396 0 0 0
211 1 4.11035345721745 0 4.11035345721745 0 0 0
212 1 3.28828276577396 0.82207069144349 4.11035345721745 0 0 0
213 1 4.93242414866094 0 3.28828276577396 0 0 0
214 1 5.75449484010443 0.82207069144349 3.28828276577396 0 0 0
215 1 5.75449484010443 0 4.11035345721745 0 0 0
216 1 4.93242414866094 0.82207069144349 4.11035345721745 0 0 0
217 1 6.57656553154792 0 3.28828276577396 0 0 0
218 1 7.39863622299141 0.82207069144349 3.28828276577396 0 0 0
219 1 7.39863622299141 0 4.11035345721745 0 0 0
220 1 6.57656553154792 0.82207069144349 4.11035345721745 0 0 0
221 1 0 1.64414138288698 3.28828276577396 0 0 0
222 1 0.82207069144349 2.46621207433047 3.28828276577396 0 0 0
223 1 0.82207069144349 1.64414138288698 4.11035345721745 0 0 0
224 1 0 2.46621207433047 4.11035345721745 0 0 0
225 1 1.64414138288698 1.64414138288698 3.28828276577396 0 0 0
226 1 2.46621207433047 2.46621207433047 3.28828276577396 0 0 0
227 1 2.46621207433047 1.64414138288698 4.11035345721745 0 0 0
228 1 1.64414138288698 2.46621207433047 4.11035345721745 0 0 0
229 1 3.28828276577396 1.64414138288698 3.28828276577396 0 0 0
230 1 4.11035345721745 2.46621207433047 3.28828276577396 0 0 0
231 1 4.11035345721745 1.64414138288698 4.11035345721745 0 0 0
232 1 3.28828276577396 2.46621207433047 4.11035345721745 0 0 0
233 1 4.93242414866094 1.64414138288698 3.28828276577396 0 0 0
234 1 5.75449484010443 2.46621207433047 3.28828276577396 0 0 0
235 1 5.75449484010443 1.64414138288698 4.11035345721745 0 0 0
236 1 4.93242414866094 2.46621207433047 4.11035345721745 0 0 0
237 1 6.57656553154792 1.64414138288698 3.28828276577396 0 0 0
238 1 7.39863622299141 2.46621207433047 3.28828276577396 0 0 0
239 1 7.39863622299141 1.64414138288698 4.11035345721745 0 0 0
240 1 6.57656553154792 2.46621207433047 4.11035345721745 0 0 0
241 1 0 3.28828276577396 3.28828276577396 0 0 0
242 1 0.82207069144349 4.11035345721745 3.28828276577396 0 0 0
243 1 0.82207069144349 3.28828276577396 4.11035345721745 0 0 0
244 1 0 4.11035345721745 4.11035345721745 0 0 0
245 1 1.64414138288698 3.28828276577396 3.28828276577396 0 0 0
246 1 2.46621207433047 4.11035345721745 3.28828276577396 0 0 0
247 1 2.46621207433047 3.28828276577396 4.11035345721745 0 0 0
248 1 1.64414138288698 4.11035345721745 4.11035345721745 0 0 0
249 1 3.28828276577396 3.28828276577396 3.28828276577396 0 0 0
250 1 4.11035345721745 4.11035345721745 3.28828276577396 0 0 0
251 1 4.11035345721745 3.28828276577396 4.11035345721745 0 0 0
252 1 3.28828276577396 4.11035345721745 4.11035345721745 0 0 0
253 1 4.93242414866094 3.28828276577396 3.28828276577396 0 0 0
254 1 5.75449484010443 4.11035345721745 3.28828276577396 0 0 0
255 1 5.75449484010443 3.28828276577396 4.11035345721745 0 0 0
256 1 4.93242414866094 4.11035345721745 4.11035345721745 0 0 0
257 1 6.57656553154792 3.28828276577396 3.28828276577396 0 0 0
258 1 7.39863622299141 4.11035345721745 3.28828276577396 0 0 0
259 1 7.39863622299141 3.28828276577396 4.11035345721745 0 0 0
260 1 6.57656553154792 4.11035345721745 4.11035345721745 0 0 0
261 1 0 4.93242414866094 3.28828276577396 0 0 0
262 1 0.82207069144349 5.75449484010443 3.28828276577396 0 0 0
263 1 0.82207069144349 4.93242414866094 4.11035345721745 0 0 0
264 1 0 5.75449484010443 4.11035345721745 0 0 0
265 1 1.64414138288698 4.93242414866094 3.28828276577396 0 0 0
266 1 2.46621207433047 5.75449484010443 3.28828276577396 0 0 0
267 1 2.46621207433047 4.93242414866094 4.11035345721745 0 0 0
268 1 1.64414138288698 5.75449484010443 4.11035345721745 0 0 0
269 1 3.28828276577396 4.93242414866094 3.28828276577396 0 0 0
270 1 4.11035345721745 5.75449484010443 3.28828276577396 0 0 0
271 1 4.11035345721745 4.93242414866094 4.11035345721745 0 0 0
272 1 3.28828276577396 5.75449484010443 4.11035345721745 0 0 0
273 1 4.93242414866094 4.93242414866094 3.28828276577396 0 0 0
274 1 5.75449484010443 5.75449484010443 3.28828276577396 0 0 0
275 1 5.75449484010443 4.93242414866094 4.11035345721745 0 0 0
276 1 4.93242414866094 5.75449484010443 4.11035345721745 0 0 0
277 1 6.57656553154792 4.93242414866094 3.28828276577396 0 0 0
278 1 7.39863622299141 5.75449484010443 3.28828276577396 0 0 0
279 1 7.39863622299141 4.93242414866094 4.11035345721745 0 0 0
280 1 6.57656553154792 5.75449484010443 4.11035345721745 0 0 0
281 1 0 6.57656553154792 3.28828276577396 0 0 0
282 1 0.82207069144349 7.39863622299141 3.28828276577396 0 0 0
283 1 0.82207069144349 6.57656553154792 4.11035345721745 0 0 0
284 1 0 7.39863622299141 4.11035345721745 0 0 0
285 1 1.64414138288698 6.57656553154792 3.28828276577396 0 0 0
286 1 2.46621207433047 7.39863622299141 3.28828276577396 0 0 0
287 1 2.46621207433047 6.57656553154792 4.11035345721745 0 0 0
288 1 1.64414138288698 7.39863622299141 4.11035345721745 0 0 0
289 1 3.28828276577396 6.57656553154792 3.28828276577396 0 0 0
290 1 4.11035345721745 7.39863622299141 3.28828276577396 0 0 0
291 1 4.11035345721745 6.57656553154792 4.11035345721745 0 0 0
292 1 3.28828276577396 7.39863622299141 4.11035345721745 0 0 0
293 1 4.93242414866094 6.57656553154792 3.28828276577396 0 0 0
294 1 5.75449484010443 7.39863622299141 3.28828276577396 0 0 0
295 1 5.75449484010443 6.57656553154792 4.11035345721745 0 0 0
296 1 4.93242414866094 7.39863622299141 4.11035345721745 0 0 0
297 1 6.57656553154792 6.57656553154792 3.28828276577396 0 0 0
298 1 7.39863622299141 7.39863622299141 3.28828276577396 0 0 0
299 1 7.39863622299141 6.57656553154792 4.11035345721745 0 0 0
300 1 6.57656553154792 7.39863622299141 4.11035345721745 0 0 0
301 1 0 0 4.93242414866094 0 0 0
302 1 0.82207069144349 0.82207069144349 4.93242414866094 0 0 0
303 1 0.82207069144349 0 5.75449484010443 0 0 0
304 1 0 0.82207069144349 5.75449484010443 0 0 0
305 1 1.64414138288698 0 4.93242414866094 0 0 0
306 1 2.46621207433047 0.82207069144349 4.93242414866094 0 0 0
307 1 2.46621207433047 0 5.75449484010443 0 0 0
308 1 1.64414138288698 0.82207069144349 5.75449484010443 0 0 0
309 1 3.28828276577396 0 4.93242414866094 0 0 0
310 1 4.11035345721745 0.82207069144349 4.93242414866094 0 0 0
311 1 4.11035345721745 0 5.75449484010443 0 0 0
312 1 3.28828276577396 0.82207069144349 5.75449484010443 0 0 0
313 1 4.93242414866094 0 4.93242414866094 0 0 0
314 1 5.75449484010443 0.82207069144349 4.93242414866094 0 0 0
315 1 5.75449484010443 0 5.75449484010443 0 0 0
316 1 4.93242414866094 0.82207069144349 5.75449484010443 0 0 0
317 1 6.57656553154792 0 4.93242414866094 0 0 0
318 1 7.39863622299141 0.82207069144349 4.93242414866094 0 0 0
319 1 7.39863622299141 0 5.75449484010443 0 0 0
320 1 6.57656553154792 0.82207069144349 5.75449484010443 0 0 0
321 1 0 1.64414138288698 4.93242414866094 0 0 0
322 1 0.82207069144349 2.46621207433047 4.93242414866094 0 0 0
323 1 0.82207069144349 1.64414138288698 5.75449484010443 0 0 0
324 1 0 2.46621207433047 5.75449484010443 0 0 0
325 1 1.64414138288698 1.64414138288698 4.93242414866094 0 0 0
326 1 2.46621207433047 2.46621207433047 4.93242414866094 0 0 0
327 1 2.46621207433047 1.64414138288698 5.75449484010443 0 0 0
328 1 1.64414138288698 2.46621207433047 5.75449484010443 0 0 0
329 1 3.28828276577396 1.64414138288698 4.93242414866094 0 0 0
330 1 4.11035345721745 2.46621207433047 4.93242414866094 0 0 0
331 1 4.11035345721745 1.64414138288698 5.75449484010443 0 0 0
332 1 3.28828276577396 2.46621207433047 5.75449484010443 0 0 0
333 1 4.93242414866094 1.64414138288698 4.93242414866094 0 0 0
334 1 5.75449484010443 2.46621207433047 4.93242414866094 0 0 0
335 1 5.75449484010443 1.64414138288698 5.75449484010443 0 0 0
336 1 4.93242414866094 2.46621207433047 5.75449484010443 0 0 0
337 1 6.57656553154792 1.64414138288698 4.93242414866094 0 0 0
338 1 7.39863622299141 2.46621207433047 4.93242414866094 0 0 0
339 1 7.39863622299141 1.64414138288698 5.75449484010443 0 0 0
340 1 6.57656553154792 2.46621207433047 5.75449484010443 0 0 0
341 1 0 3.28828276577396 4.93242414866094 0 0 0
342 1 0.82207069144349 4.11035345721745 4.93242414866094 0 0 0
343 1 0.82207069144349 3.28828276577396 5.75449484010443 0 0 0
344 1 0 4.11035345721745 5.75449484010443 0 0 0
345 1 1.64414138288698 3.28828276577396 4.93242414866094 0 0 0
346 1 2.46621207433047 4.11035345721745 4.93242414866094 0 0 0
347 1 2.46621207433047 3.28828276577396 5.75449484010443 0 0 0
348 1 1.64414138288698 4.11035345721745 5.75449484010443 0 0 0
349 1 3.28828276577396 3.28828276577396 4.93242414866094 0 0 0
350 1 4.11035345721745 4.11035345721745 4.93242414866094 0 0 0
351 1 4.11035345721745 3.28828276577396 5.75449484010443 0 0 0
352 1 3.28828276577396 4.11035345721745 5.75449484010443 0 0 0
353 1 4.93242414866094 3.28828276577396 4.93242414866094 0 0 0
354 1 5.75449484010443 4.11035345721745 4.93242414866094 0 0 0
355 1 5.75449484010443 3.28828276577396 5.75449484010443 0 0 0
356 1 4.93242414866094 4.11035345721745 5.75449484010443 0 0 0
357 1 6.57656553154792 3.28828276577396 4.93242414866094 0 0 0
358 1 7.39863622299141 4.11035345721745 4.93242414866094 0 0 0
359 1 7.39863622299141 3.28828276577396 5.75449484010443 0 0 0
360 1 6.57656553154792 4.11035345721745 5.75449484010443 0 0 0
361 1 0 4.93242414866094 4.93242414866094 0 0 0
362 1 0.82207069144349 5.75449484010443 4.93242414866094 0 0 0
363 1 0.82207069144349 4.93242414866094 5.75449484010443 0 0 0
364 1 0 5.75449484010443 5.75449484010443 0 0 0
365 1 1.64414138288698 4.93242414866094 4.93242414866094 0 0 0
366 1 2.46621207433047 5.75449484010443 4.93242414866094 0 0 0
367 1 2.46621207433047 4.93242414866094 5.75449484010443 0 0 0
368 1 1.64414138288698 5.75449484010443 5.75449484010443 0 0 0
369 1 3.28828276577396 4.93242414866094 4.93242414866094 0 0 0
370 1 4.11035345721745 5.75449484010443 4.93242414866094 0 0 0
371 1 4.11035345721745 4.93242414866094 5.75449484010443 0 0 0
372 1 3.28828276577396 5.75449484010443 5.75449484010443 0 0 0
373 1 4.93242414866094 4.93242414866094 4.93242414866094 0 0 0
374 1 5.75449484010443 5.75449484010443 4.93242414866094 0 0 0
375 1 5.75449484010443 4.93242414866094 5.75449484010443 0 0 0
376 1 4.93242414866094 5.75449484010443 5.75449484010443 0 0 0
377 1 6.57656553154792 4.93242414866094 4.93242414866094 0 0 0
378 1 7.39863622299141 5.75449484010443 4.93242414866094 0 0 0
379 1 7.39863622299141 4.93242414866094 5.75449484010443 0 0 0
380 1 6.57656553154792 5.75449484010443 5.75449484010443 0 0 0
381 1 0 6.57656553154792 4.93242414866094 0 0 0
382 1 0.82207069144349 7.39863622299141 4.93242414866094 0 0 0
383 1 0.82207069144349 6.57656553154792 5.75449484010443 0 0 0
384 1 0 7.39863622299141 5.75449484010443 0 0 0
385 1 1.64414138288698 6.57656553154792 4.93242414866094 0 0 0
386 1 2.46621207433047 7.39863622299141 4.93242414866094 0 0 0
387 1 2.46621207433047 6.57656553154792 5.75449484010443 0 0 0
388 1 1.64414138288698 7.39863622299141 5.75449484010443 0 0 0
389 1 3.28828276577396 6.57656553154792 4.93242414866094 0 0 0
390 1 4.11035345721745 7.39863622299141 4.93242414866094 0 0 0
391 1 4.11035345721745 6.57656553154792 5.75449484010443 0 0 0
392 1 3.28828276577396 7.39863622299141 5.75449484010443 0 0 0
393 1 4.93242414866094 6.57656553154792 4.93242414866094 0 0 0
394 1 5.75449484010443 7.39863622299141 4.93242414866094 0 0 0
395 1 5.75449484010443 6.57656553154792 5.75449484010443 0 0 0
396 1 4.93242414866094 7.39863622299141 5.75449484010443 0 0 0
397 1 6.57656553154792 6.57656553154792 4.93242414866094 0 0 0
398 1 7.39863622299141 7.39863622299141 4.93242414866094 0 0 0
399 1 7.39863622299141 6.57656553154792 5.75449484010443 0 0 0
400 1 6.57656553154792 7.39863622299141 5.75449484010443 0 0 0
401 1 0 0 6.57656553154792 0 0 0
402 1 0.82207069144349 0.82207069144349 6.57656553154792 0 0 0
403 1 0.82207069144349 0 7.39863622299141 0 0 0
404 1 0 0.82207069144349 7.39863622299141 0 0 0
405 1 1.64414138288698 0 6.57656553154792 0 0 0
406 1 2.46621207433047 0.82207069144349 6.57656553154792 0 0 0
407 1 2.46621207433047 0 7.39863622299141 0 0 0
408 1 1.64414138288698 0.82207069144349 7.39863622299141 0 0 0
409 1 3.28828276577396 0 6.57656553154792 0 0 0
410 1 4.11035345721745 0.82207069144349 6.57656553154792 0 0 0
411 1 4.11035345721745 0 7.39863622299141 0 0 0
412 1 3.28828276577396 0.82207069144349 7.39863622299141 0 0 0
413 1 4.93242414866094 0 6.57656553154792 0 0 0
414 1 5.75449484010443 0.82207069144349 6.57656553154792 0 0 0
415 1 5.75449484010443 0 7.39863622299141 0 0 0
416 1 4.93242414866094 0.82207069144349 7.39863622299141 0 0 0
417 1 6.57656553154792 0 6.57656553154792 0 0 0
418 1 7.39863622299141 0.82207069144349 6.57656553154792 0 0 0
419 1 7.39863622299141 0 7.39863622299141 0 0 0
420 1 6.57656553154792 0.82207069144349 7.39863622299141 0 0 0
421 1 0 1.64414138288698 6.57656553154792 0 0 0
422 1 0.82207069144349 2.46621207433047 6.57656553154792 0 0 0
423 1 0.82207069144349 1.64414138288698 7.39863622299141 0 0 0
424 1 0 2.46621207433047 7.39863622299141 0 0 0
425 1 1.64414138288698 1.64414138288698 6.57656553154792 0 0 0
426 1 2.46621207433047 2.46621207433047 6.57656553154792 0 0 0
427 1 2.46621207433047 1.64414138288698 7.39863622299141 0 0 0
428 1 1.64414138288698 2.46621207433047 7.39863622299141 0 0 0
429 1 3.28828276577396 1.64414138288698 6.57656553154792 0 0 0
430 1 4.11035345721745 2.46621207433047 6.57656553154792 0 0 0
431 1 4.11035345721745 1.64414138288698 7.39863622299141 0 0 0
432 1 3.28828276577396 2.46621207433047 7.39863622299141 0 0 0
433 1 4.93242414866094 1.64414138288698 6.57656553154792 0 0 0
434 1 5.75449484010443 2.46621207433047 6.57656553154792 0 0 0
435 1 5.75449484010443 1.64414138288698 7.39863622299141 0 0 0
436 1 4.93242414866094 2.46621207433047 7.39863622299141 0 0 0
437 1 6.57656553154792 1.64414138288698 6.57656553154792 0 0 0
438 1 7.39863622299141 2.46621207433047 6.57656553154792 0 0 0
439 1 7.39863622299141 1.64414138288698 7.39863622299141 0 0 0
440 1 6.57656553154792 2.46621207433047 7.39863622299141 0 0 0
441 1 0 3.28828276577396 6.57656553154792 0 0 0
442 1 0.82207069144349 4.11035345721745 6.57656553154792 0 0 0
443 1 0.82207069144349 3.28828276577396 7.39863622299141 0 0 0
444 1 0 4.11035345721745 7.39863622299141 0 0 0
445 1 1.64414138288698 3.28828276577396 6.57656553154792 0 0 0
446 1 2.46621207433047 4.11035345721745 6.57656553154792 0 0 0
447 1 2.46621207433047 3.28828276577396 7.39863622299141 0 0 0
448 1 1.64414138288698 4.11035345721745 7.39863622299141 0 0 0
449 1 3.28828276577396 3.28828276577396 6.57656553154792 0 0 0
450 1 4.11035345721745 4.11035345721745 6.57656553154792 0 0 0
451 1 4.11035345721745 3.28828276577396 7.39863622299141 0 0 0
452 1 3.28828276577396 4.11035345721745 7.39863622299141 0 0 0
453 1 4.93242414866094 3.28828276577396 6.57656553154792 0 0 0
454 1 5.75449484010443 4.11035345721745 6.57656553154792 0 0 0
455 1 5.75449484010443 3.28828276577396 7.39863622299141 0 0 0
456 1 4.93242414866094 4.11035345721745 7.39863622299141 0 0 0
457 1 6.57656553154792 3.28828276577396 6.57656553154792 0 0 0
458 1 7.39863622299141 4.11035345721745 6.57656553154792 0 0 0
459 1 7.39863622299141 3.28828276577396 7.39863622299141 0 0 0
460 1 6.57656553154792 4.11035345721745 7.39863622299141 0 0 0
461 1 0 4.93242414866094 6.57656553154792 0 0 0
462 1 0.82207069144349 5.75449484010443 6.57656553154792 0 0 0
463 1 0.82207069144349 4.93242414866094 7.39863622299141 0 0 0
464 1 0 5.75449484010443 7.39863622299141 0 0 0
465 1 1.64414138288698 4.93242414866094 6.57656553154792 0 0 0
466 1 2.46621207433047 5.75449484010443 6.57656553154792 0 0 0
467 1 2.46621207433047 4.93242414866094 7.39863622299141 0 0 0
468 1 1.64414138288698 5.75449484010443 7.39863622299141 0 0 0
469 1 3.28828276577396 4.93242414866094 6.57656553154792 0 0 0
470 1 4.11035345721745 5.75449484010443 6.57656553154792 0 0 0
471 1 4.11035345721745 4.93242414866094 7.39863622299141 0 0 0
472 1 3.28828276577396 5.75449484010443 7.39863622299141 0 0 0
473 1 4.93242414866094 4.93242414866094 6.57656553154792 0 0 0
474 1 5.75449484010443 5.75449484010443 6.57656553154792 0 0 0
475 1 5.75449484010443 4.93242414866094 7.39863622299141 0 0 0
476 1 4.93242414866094 5.75449484010443 7.39863622299141 0 0 0
477 1 6.57656553154792 4.93242414866094 6.57656553154792 0 0 0
478 1 7.39863622299141 5.75449484010443 6.57656553154792 0 0 0
479 1 7.39863622299141 4.93242414866094 7.39863622299141 0 0 0
480 1 6.57656553154792 5.75449484010443 7.39863622299141 0 0 0
481 1 0 6.57656553154792 6.57656553154792 0 0 0
482 1 0.82207069144349 7.39863622299141 6.57656553154792 0 0 0
483 1 0.82207069144349 6.57656553154792 7.39863622299141 0 0 0
484 1 0 7.39863622299141 7.39863622299141 0 0 0
485 1 1.64414138288698 6.57656553154792 6.57656553154792 0 0 0
486 1 2.46621207433047 7.39863622299141 6.57656553154792 0 0 0
487 1 2.46621207433047 6.57656553154792 7.39863622299141 0 0 0
488 1 1.64414138288698 7.39863622299141 7.39863622299141 0 0 0
489 1 3.28828276577396 6.57656553154792 6.57656553154792 0 0 0
490 1 4.11035345721745 7.39863622299141 6.57656553154792 0 0 0
491 1 4.11035345721745 6.57656553154792 7.39863622299141 0 0 0
492 1 3.28828276577396 7.39863622299141 7.39863622299141 0 0 0
493 1 4.93242414866094 6.57656553154792 6.57656553154792 0 0 0
494 1 5.75449484010443 7.39863622299141 6.57656553154792 0 0 0
495 1 5.75449484010443 6.57656553154792 7.39863622299141 0 0 0
496 1 4.93242414866094 7.39863622299141 7.39863622299141 0 0 0
497 1 6.57656553154792 6.57656553154792 6.57656553154792 0 0 0
498 1 7.39863622299141 7.39863622299141 6.57656553154792 0 0 0
499 1 7.39863622299141 6.57656553154792 7.39863622299141 0 0 0
500 1 6.57656553154792 7.39863622299141 7.39863622299141 0 0 0

Velocities

1 0 0 0
2 0 0 0
3 0 0 0
4 0 0 0
5 0 0 0
6 0 0 0
7 0 0 0
8 0 0 0
9 0 0 0
10 0 0 0
11 0 0 0
12 0 0 0
13 0 0 0
14 0 0 0
15 0 0 0
16 0 0 0
17 0 0 0
18 0 0 0
19 0 0 0
20 0 0 0
21 0 0 0
22 0 0 0
23 0 0 0
24 0 0 0
25 0 0 0
26 0 0 0
27 0 0 0
28 0 0 0
29 0 0 0
30 0 0 0
31 0 0 0
32 0 0 0
33 0 0 0
34 0 0 0
35 0 0 0
36 0 0 0
37 0 0 0
38 0 0 0
39 0 0 0
40 0 0 0
41 0 0 0
42 0 0 0
43 0 0 0
44 0 0 0
45 0 0 0
46 0 0 0
47 0 0 0
48 0 0 0
49 0 0 0
50 0 0 0
51 0 0 0
52 0 0 0
53 0 0 0
54 0 0 0
55 0 0 0
56 0 0 0
57 0 0 0
58 0 0 0
59 0 0 0
60 0 0 0
61 0 0 0
62 0 0 0
63 0 0 0
64 0 0 0
65 0 0 0
66 0 0 0
67 0 0 0
68 0 0 0
69 0 0 0
70 0 0 0
71 0 0 0
72 0 0 0