ITEM: TIMESTEP
0
ITEM: NUMBER OF ATOMS
500
ITEM: BOX BOUNDS pp pp pp
0.0000000000000000e+00 8.9390353509656766e+00
0.0000000000000000e+00 8.9390353509656766e+00
0.0000000000000000e+00 8.9390353509656766e+00
ITEM: ATOMS id type x y z f_1[1] f_1[2] f_1[3]
1 1 0.0109462 8.91109 8.87705 -0.258023 0.625273 0.429284
2 1 0.983178 0.93542 8.91066 -2.88593 0.281032 -1.95154
3 1 0.886776 0.00353842 0.964105 -0.27179 0.383251 0.443719
4 1 0.0722273 0.817966 0.815708 -0.663834 1.25489 -0.35451
5 1 1.82919 8.8603 8.91164 0.346262 0.966337 0.327185
6 1 2.71374 0.850558 0.0977971 -1.53533 0.952301 -0.539148
7 1 2.75443 8.9152 0.943835 0.200679 -0.0265554 -0.862232
8 1 1.72161 0.971413 0.796705 7.79754 -6.0811 1.58835
9 1 3.47837 0.0294075 0.0515782 2.76325 -2.21894 -0.80311
10 1 4.43186 0.961325 8.89919 -0.387918 -0.444884 0.950878
11 1 4.37764 0.00631327 0.801109 0.844344 -0.87322 -0.116598
12 1 3.59567 0.80748 0.974874 -0.705778 1.85625 -1.80855
13 1 5.35026 8.89566 0.0208816 -0.442875 -0.272596 -0.473028
14 1 6.3022 0.978028 0.0782288 -3.05518 -2.94099 -0.889505
15 1 6.27707 0.0297536 0.962734 -0.0515917 0.772188 -1.05602
16 1 5.30223 0.918655 0.899444 1.33545 0.759601 -1.29769
17 1 7.0769 0.0948096 0.0649153 0.098645 -1.06535 0.292165
18 1 8.09537 0.913626 0.0774105 -0.154847 0.414543 -0.451754
19 1 8.08165 0.0818588 0.895196 -0.689773 -1.28143 0.929968
20 1 7.14638 0.885276 0.891299 0.487793 0.733541 0.918445
21 1 8.89456 1.84483 0.0434425 0.886905 -0.621358 -0.495646
22 1 0.935681 2.64324 0.0406455 -1.34335 0.213362 -1.25695
23 1 0.966071 1.69976 0.948945 -7.88058 11.3257 -7.25569
24 1 0.0121607 2.66637 0.881115 -0.232812 0.533689 1.18415
25 1 1.85044 1.81859 0.00192994 -1.7495 0.19048 0.1992
26 1 2.68148 2.7251 0.0685109 -1.25528 -0.916148 -1.01459
27 1 2.62716 1.70715 0.839166 0.688023 2.33788 1.05919
28 1 1.6905 2.59418 0.903739 1.58905 0.257971 0.508129
29 1 3.57454 1.77719 8.88663 0.186742 -0.0628404 0.80372
30 1 4.38099 2.63699 8.92556 0.253897 0.0578989 -0.178058
31 1 4.45919 1.78484 0.892793 0.372262 0.580252 -1.28381
32 1 3.55804 2.657 0.821946 0.208194 0.440929 1.42052
33 1 5.39579 1.85576 0.0513097 -2.11231 -0.770148 -0.833202
34 1 6.28486 2.68552 0.0861957 -0.390024 -0.099671 -1.25573
35 1 6.16167 1.79587 0.852166 3.13123 -0.282736 3.8241
36 1 5.43841 2.67896 0.926914 -0.906522 -0.132525 -0.585389
37 1 7.09214 1.72405 8.83985 3.26876 6.20695 4.03515
38 1 7.96694 2.76043 0.0935037 2.29966 -0.680397 -1.28039
39 1 8.06525 1.69772 0.940378 0.498274 0.445905 0.0355574
40 1 7.16698 2.58338 0.88179 -1.8895 -0.0707859 1.12114
41 1 0.0210451 3.48041 0.0428158 0.862491 -0.329006 -0.681709
42 1 0.874431 4.40275 0.0131769 0.218928 -0.148848 0.324321
43 1 0.851364 3.60752 0.914082 0.352487 -0.527665 -0.410754
44 1 0.0749717 4.51844 0.974577 -0.257295 -0.287753 -0.288054
45 1 1.76248 3.58626 0.0539576 0.480316 -2.29368 -1.63127
46 1 2.72367 4.4241 0.0474256 0.0272964 0.241712 -0.452415
47 1 2.73289 3.61199 0.901343 -0.0645249 -1.94992 -0.502421
48 1 1.8456 4.38069 0.843492 -0.349918 1.31176 2.27682
49 1 3.50387 3.55674 0.0315796 1.56114 -0.0224047 0.116984
50 1 4.49692 4.37908 0.0780585 -4.54206 0.213106 -5.58215
51 1 4.46671 3.57478 0.880458 -0.334204 -0.938728 0.874478
52 1 3.58815 4.43 0.950374 0.652985 -1.92511 -1.59862
53 1 5.3866 3.58372 8.92789 -1.19711 -2.22155 0.617325
54 1 6.17276 4.37217 8.86047 6.00842 1.34471 4.78274
55 1 6.27432 3.53871 0.907449 -0.148389 -0.137473 -0.523414
56 1 5.27909 4.47835 0.809401 8.23917 -3.14067 4.34956
57 1 7.09737 3.53698 8.87413 0.14026 -0.233191 0.941929
58 1 7.96586 4.56922 8.84208 6.8748 -6.48505 1.75868
59 1 8.1189 3.63425 0.96148 -3.00277 -1.46323 -4.15536
60 1 7.14279 4.43222 0.962078 -0.0459577 0.247999 0.321752
61 1 8.89637 5.43177 8.92691 0.327116 0.812268 0.0679643
62 1 0.854018 6.30348 0.0813318 1.06274 -7.24911 -7.87042
63 1 0.873415 5.41923 0.812761 -0.31071 -0.409433 0.423823
64 1 8.88236 6.35419 0.863575 -0.753758 -3.06962 -0.690381
65 1 1.76334 5.40934 8.88249 1.8326 1.29836 1.91996
66 1 2.68777 6.21767 8.90577 0.0461489 1.51967 -0.262666
67 1 2.66088 5.41906 0.821357 0.262109 -0.890774 -0.241847
68 1 1.86017 6.31332 0.804602 -1.38053 -1.13952 0.850174
69 1 3.64435 5.42051 8.90358 -2.6101 -2.17442 -0.370474
70 1 4.37466 6.25131 8.85278 3.71832 2.70453 0.946098
71 1 4.53047 5.2708 0.824393 -3.54051 3.8431 0.931364
72 1 3.61222 6.27635 0.96909 -4.05414 0.604922 -3.58471
73 1 5.40042 5.34751 8.8935 -0.719369 -0.36085 0.212296
74 1 6.18215 6.3156 0.0196993 0.267387 0.110688 0.223648
75 1 6.27516 5.37868 0.90209 -1.0642 -0.241069 0.481931
76 1 5.31268 6.25584 0.875522 0.133781 0.115172 0.026661
77 1 7.20113 5.30633 8.84474 -4.87308 6.78349 0.0391413
78 1 7.95512 6.30497 0.092705 6.00614 -6.0265 -0.649957
79 1 8.08767 5.35538 0.811364 -1.15126 0.392579 0.741715
80 1 7.08607 6.1919 0.926051 0.630581 3.46407 -2.46157
81 1 8.92405 7.0566 8.88782 -1.53371 0.564813 -0.0213323
82 1 0.905011 8.13513 0.0600006 -0.504969 -0.194195 -0.00181653
83 1 0.816253 7.07033 0.801556 1.36958 7.74762 7.34595
84 1 8.83925 8.07727 0.907684 2.46931 1.67506 1.17354
85 1 1.86043 7.09328 8.91972 -0.773441 0.857837 1.39948
86 1 2.76541 7.99166 0.0440794 -0.77809 1.05822 0.425741
87 1 2.67654 7.18636 0.91183 2.62219 -2.00002 -0.219028
88 1 1.8788 7.9677 0.915621 -0.894934 2.07357 -1.21117
89 1 3.59357 7.13026 0.0332195 -0.388167 0.00237965 -0.544686
90 1 4.38663 8.07233 8.88382 0.174711 -0.440379 0.0897133
91 1 4.5359 7.22854 0.936578 -2.37627 -1.04519 -2.35662
92 1 3.63538 7.97981 0.824881 -1.61206 1.29888 2.0997
93 1 5.3271 7.23059 8.92328 -0.111431 -0.20975 0.289951
94 1 6.30867 8.05581 8.84577 0.0946421 0.0525728 2.57365
95 1 6.32003 7.15576 0.891457 -0.2569 -0.483959 0.0547371
96 1 5.40661 7.9868 0.968462 0.415884 0.0845497 -0.268424
97 1 7.22798 7.08713 0.0563741 -5.45853 5.72078 -0.51002
98 1 8.05735 8.06186 0.0753342 -0.611004 1.73052 -2.95918
99 1 8.10922 7.21906 0.806609 -0.400473 -2.4357 2.42821
100 1 7.16998 8.08498 0.846622 0.253892 0.388538 0.000271703
101 1 8.88419 0.00785958 1.88382 0.148531 -0.55276 -3.06718
102 1 0.806706 0.963107 1.6981 0.146821 -6.1479 7.24676
103 1 0.81371 8.93107 2.59291 1.58623 0.25767 2.66866
104 1 0.0914118 0.851308 2.7806 -2.96193 1.34432 -3.85013
105 1 1.70908 0.055279 1.86232 -0.26684 0.0875329 -0.306957
106 1 2.72497 0.940903 1.70203 -0.757536 -0.918748 1.71384
107 1 2.71129 0.0639965 2.67102 -0.311468 0.261861 0.646041
108 1 1.73889 0.96912 2.64369 0.123913 0.173982 0.666446
109 1 3.52533 0.0194588 1.83263 1.01391 -0.00454228 -0.284845
110 1 4.50633 0.992013 1.70842 -3.51938 -2.99082 2.23564
111 1 4.49463 8.9275 2.60712 -6.23135 -0.421499 6.59704
112 1 3.51061 0.932206 2.63613 0.265327 0.172351 0.555119
113 1 5.26459 0.0845656 1.88118 6.41483 1.44516 -5.35427
114 1 6.26822 0.943133 1.78953 -0.172034 -0.0988047 -0.238973
115 1 6.20352 0.0931252 2.63772 -0.251863 0.451194 0.97073
116 1 5.33497 0.961022 2.74861 1.85573 -2.10168 -0.655218
117 1 7.15143 8.91799 1.69931 0.631991 0.791476 -0.168042
118 1 8.1075 0.884637 1.85069 -0.145764 0.238097 -0.736312
119 1 8.10277 0.00424992 2.71008 -1.61591 0.00687295 -1.36275
120 1 7.06485 0.985537 2.76239 8.19773 -7.92397 -1.18231
121 1 8.91698 1.83538 1.78872 0.656642 -0.0731624 0.0431027
122 1 0.901335 2.58954 1.84197 -0.375827 -0.324571 -2.7055
123 1 0.839546 1.79651 2.68072 1.09251 -0.901613 -0.242728
124 1 0.0205195 2.75315 2.62687 -0.478759 -0.0106512 -0.67727
125 1 1.78258 1.70562 1.69835 1.31189 0.545066 2.20675
126 1 2.77409 2.6552 1.77928 -3.71202 0.456863 -3.25075
127 1 2.62583 1.79361 2.77487 3.4762 0.328618 -3.48584
128 1 1.71155 2.69761 2.62919 0.862289 -1.38539 2.38335
129 1 3.5477 1.79572 1.86096 1.43061 -0.605958 -0.978191
130 1 4.46749 2.5924 1.76238 -0.0494618 -0.0821277 -0.176353
131 1 4.52929 1.74324 2.59829 -2.00749 0.662049 0.061349
132 1 3.48188 2.69682 2.61959 1.88694 -0.141301 3.78311
133 1 5.34711 1.71486 1.76809 1.96327 2.17405 -0.830705
134 1 6.24637 2.73306 1.80484 3.10489 -2.12999 -0.788559
135 1 6.31443 1.71423 2.71392 -8.21546 8.18972 -0.602972
136 1 5.26572 2.69815 2.75971 0.0267628 0.10355 -0.216257
137 1 7.18953 1.75159 1.71849 -0.576203 -0.36263 1.38792
138 1 8.05027 2.77408 1.76451 0.439173 -0.587966 -0.341117
139 1 8.01591 1.69661 2.74434 0.366947 0.0491547 0.134545
140 1 7.14772 2.69371 2.58907 0.0738449 -1.92773 2.13155
141 1 8.86781 3.66165 1.74517 3.90719 -1.47472 3.87657
142 1 0.936621 4.42773 1.79512 -0.401045 -0.147867 0.321366
143 1 0.948846 3.59531 2.72105 -0.571635 -0.0105131 -1.06193
144 1 0.0834486 4.38982 2.63588 -0.524533 1.06652 0.75481
145 1 1.83432 3.4799 1.75691 0.359017 0.665628 -0.818381
146 1 2.69175 4.37077 1.75144 0.14004 0.214725 0.925417
147 1 2.74153 3.6404 2.67912 -0.708299 -3.83642 -3.24565
148 1 1.87968 4.54846 2.67269 -0.684796 -0.993828 -0.138535
149 1 3.5441 3.51573 1.77434 0.186245 0.881611 -0.696526
150 1 4.55171 4.52396 1.79145 -2.75839 -2.91024 -1.57263
151 1 4.49896 3.65335 2.59498 -1.96388 -1.7196 0.869652
152 1 3.49741 4.47737 2.77344 8.37692 1.8085 -7.7175
153 1 5.44145 3.48872 1.74764 -3.05421 3.82286 1.14399
154 1 6.1743 4.53053 1.74574 0.463366 -1.70291 0.122224
155 1 6.30198 3.67131 2.70975 -1.07292 -0.185523 -2.51985
156 1 5.34196 4.38653 2.7007 1.29125 2.52938 -0.102964
157 1 7.1691 3.54339 1.87445 -0.749456 2.7751 -2.56091
158 1 7.97266 4.40051 1.79603 0.56071 1.27489 1.72891
159 1 7.99234 3.49992 2.67525 0.940044 2.40885 0.128516
160 1 7.18063 4.50303 2.68825 -0.923025 -2.40154 0.0954191
161 1 8.91159 5.33038 1.82507 -0.0203349 -0.241672 0.333237
162 1 0.8958 6.32359 1.78851 0.38501 -0.14702 -0.347965
163 1 0.943571 5.31749 2.71754 -0.318578 -0.34148 0.397124
164 1 0.0864418 6.28418 2.68726 -1.86154 0.137969 -3.27119
165 1 1.71465 5.37463 1.6949 -0.232891 -0.268012 0.301526
166 1 2.72852 6.31988 1.88644 -2.78715 -2.37305 -5.95735
167 1 2.64735 5.41101 2.73193 1.7471 0.192556 0.973026
168 1 1.84919 6.27948 2.72157 -0.39498 0.808971 -0.0974847
169 1 3.48336 5.2657 1.71665 0.625214 2.24561 1.33995
170 1 4.39296 6.19435 1.72952 3.81534 -0.586193 2.86006
171 1 4.52517 5.37564 2.62027 -1.99502 -0.45422 2.59567
172 1 3.56333 6.24537 2.5877 2.83084 0.938216 3.4987
173 1 5.32581 5.29562 1.86847 5.13697 3.80601 -2.04537
174 1 6.24758 6.22298 1.79203 0.477004 0.378689 0.56244
175 1 6.25283 5.44934 2.73731 1.14422 -0.830366 -0.337224
176 1 5.45416 6.25624 2.6996 -2.42774 -1.74418 -0.22606
177 1 7.22676 5.41803 1.71412 0.223451 -2.28899 2.0191
178 1 8.0979 6.3518 1.78861 -0.44204 -0.435572 -0.338725
179 1 8.01325 5.26918 2.64973 1.18264 0.878361 -0.124926
180 1 7.11991 6.34415 2.69936 -1.3293 -2.66755 2.78128
181 1 0.0635545 7.11209 1.72165 -0.371894 2.049 0.790012
182 1 0.857409 8.07873 1.82753 -0.608672 -0.60495 -0.46291
183 1 0.930573 7.24697 2.65225 -4.55248 -4.69883 0.513873
184 1 8.8491 7.95414 2.58819 0.570786 1.09764 -0.00497061
185 1 1.71811 7.19809 1.77835 0.893245 -0.692356 0.118249
186 1 2.78024 8.04523 1.70672 -2.88976 2.48107 0.040135
187 1 2.67012 7.13476 2.61708 -1.16009 2.6938 3.43626
188 1 1.72659 7.99584 2.64342 2.19305 3.0992 -0.0129086
189 1 3.48631 7.23394 1.84989 5.35093 -4.92393 -2.00054
190 1 4.4261 8.04744 1.77118 -0.338387 -0.0128497 0.448007
191 1 4.41287 7.13619 2.73708 2.81119 1.17101 -3.79683
192 1 3.52255 7.96143 2.73527 1.04353 0.896155 0.0445218
193 1 5.31509 7.09458 1.73703 1.75862 -0.357986 2.37379
194 1 6.31592 8.04277 1.87992 0.07968 -0.344084 0.021952
195 1 6.19476 7.08883 2.7194 5.13464 2.37882 -2.53303
196 1 5.31616 7.97076 2.64032 0.139732 0.0575338 -0.0995313
197 1 7.13779 7.0901 1.87785 -0.856279 1.84142 -1.45962
198 1 8.00182 8.12007 1.73344 0.812689 0.333431 -0.248462
199 1 8.01591 7.08327 2.73264 -0.0756439 0.769292 0.331432
200 1 7.15074 8.00152 2.76416 1.82643 0.942676 -3.56152
201 1 8.89655 8.9304 3.48678 1.65951 -0.447815 3.8493
202 1 0.950495 0.819015 3.5162 -1.29532 1.69106 1.16913
203 1 0.81801 0.0539921 4.51501 3.2278 -0.258036 -5.15445
204 1 8.85177 0.90744 4.37372 14 -2.90794 10.8129
205 1 1.78019 0.0426842 3.56938 1.84169 -0.836001 -0.350651
206 1 2.63146 0.926366 3.57031 0.012479 0.082004 0.331715
207 1 2.70742 0.0633514 4.41591 -1.37547 -1.33331 0.456319
208 1 1.7142 0.801654 4.43761 0.662356 1.10176 0.272549
209 1 3.65397 8.84382 3.54877 -3.56671 5.39916 0.463391
210 1 4.3911 0.894602 3.52171 0.595814 -0.346452 0.321605
211 1 4.50401 0.046887 4.49909 -1.14502 -0.949582 -0.274225
212 1 3.51809 0.843433 4.41351 1.90854 2.37085 -0.229306
213 1 5.34066 0.0102546 3.52427 -0.108558 0.828678 0.2339
214 1 6.2908 0.991162 3.59141 -5.23018 -9.53106 -1.9323
215 1 6.23033 0.0280237 4.46344 1.30838 0.516693 -1.50043
216 1 5.29132 0.919899 4.38256 0.973507 -2.91573 1.14051
217 1 7.06389 8.92307 3.63529 1.41369 0.894395 -0.0234904
218 1 8.13244 0.926287 3.63848 -11.0259 -0.689673 -11.6462
219 1 8.07431 0.0396355 4.42295 -0.0998371 -0.343464 -0.2111
220 1 7.15426 0.902415 4.51611 0.37609 -0.87238 -0.174942
221 1 0.0547819 1.70767 3.52402 -0.0990054 0.634623 1.9504
222 1 0.990251 2.59589 3.64321 -1.70133 -1.15531 -1.34459
223 1 0.876254 1.75025 4.46545 0.108846 -0.46015 0.445192
224 1 8.851 2.6248 4.52232 3.89545 -0.330965 -5.02573
225 1 1.83233 1.81735 3.53725 -2.40083 -0.602726 2.24699
226 1 2.73685 2.66072 3.63237 -1.34367 -0.0545412 -0.555358
227 1 2.76889 1.75912 4.53924 -5.46261 0.887424 -6.31803
228 1 1.79935 2.60963 4.48075 0.43952 -0.293553 0.768966
229 1 3.51296 1.81737 3.56522 0.159577 -1.35984 0.863711
230 1 4.48313 2.73941 3.65804 -0.990489 -8.98093 -5.87222
231 1 4.37894 1.70897 4.40451 -1.1595 -0.0369555 -0.272198
232 1 3.5578 2.69572 4.44594 -0.0317478 -0.740538 0.514717
233 1 5.41644 1.73157 3.63972 -0.214907 2.94643 -2.78853
234 1 6.22995 2.60145 3.56616 -0.0106554 -0.60109 0.383738
235 1 6.30303 1.6885 4.42264 -3.32083 3.037 6.44969
236 1 5.43404 2.73282 4.52181 -0.69148 0.715375 -0.475461
237 1 7.08666 1.7162 3.65955 7.29974 4.17951 -2.48105
238 1 8.0318 2.68816 3.49666 -0.181832 0.425298 0.461358
239 1 8.08432 1.70749 4.5149 -2.31295 1.75558 0.820722
240 1 7.18431 2.71452 4.51289 0.136997 -0.067144 0.521486
241 1 8.84691 3.61245 3.64188 4.42683 -0.879675 -3.24184
242 1 0.916797 4.43325 3.62545 -0.842258 -0.010797 0.0107287
243 1 0.871748 3.60004 4.51194 -0.301498 0.107107 -0.324598
244 1 8.92426 4.51452 4.44006 -0.00859866 -1.77564 -0.547037
245 1 1.68965 3.48331 3.5995 1.50205 1.26015 1.14935
246 1 2.74619 4.38356 3.49878 -7.16717 1.90489 10.07
247 1 2.74519 3.65012 4.52097 -2.02388 -3.55766 -1.13857
248 1 1.75432 4.38414 4.53252 -0.421779 0.409337 0.409015
249 1 3.58997 3.49254 3.52387 -0.821723 1.10659 0.0739307
250 1 4.40569 4.52296 3.53187 0.545495 -0.966363 -0.0502063
251 1 4.38156 3.4874 4.39271 -0.289264 8.2647 7.79533
252 1 3.54333 4.42257 4.55563 2.80723 11.1106 -9.83606
253 1 5.27331 3.5295 3.65482 2.61308 2.66186 -0.969787
254 1 6.16108 4.46828 3.59956 0.599894 -1.41883 -0.240371
255 1 6.22639 3.63251 4.44985 -0.305031 -0.480252 0.0742084
256 1 5.31568 4.40222 4.46767 -0.344747 -0.443719 0.00587924
257 1 7.10015 3.56367 3.49443 2.55034 0.169304 1.35525
258 1 8.02171 4.37546 3.5697 -1.76106 3.37709 -2.28074
259 1 8.069 3.64942 4.40708 -2.31714 -3.33053 6.18677
260 1 7.18438 4.37135 4.52245 -1.79563 0.274401 -0.392524
261 1 0.0758128 5.3487 3.5652 0.184463 -0.360483 0.192319
262 1 0.795174 6.30898 3.53894 9.14413 -6.75396 2.48214
263 1 0.867482 5.30202 4.453 0.791187 0.0370161 0.388706
264 1 0.00225224 6.31064 4.52093 0.402626 -0.0990512 0.0415993
265 1 1.75224 5.26394 3.64332 0.696547 0.221295 -0.114908
266 1 2.74065 6.24856 3.64631 -0.500385 1.40459 -1.64071
267 1 2.73855 5.4528 4.44688 -5.40773 -5.67129 2.9343
268 1 1.74472 6.17623 4.53641 0.82995 0.717951 -0.0718944
269 1 3.48421 5.34442 3.61728 1.66736 -1.06074 -1.09811
270 1 4.41383 6.35055 3.60638 9.51906 -9.2799 1.43724
271 1 4.38632 5.26464 4.48258 -0.919101 0.504742 0.900072
272 1 3.55793 6.1617 4.49469 4.34711 2.82736 -0.340092
273 1 5.36863 5.28325 3.49178 -0.734818 0.617922 -0.744768
274 1 6.26503 6.19943 3.66319 0.429882 1.55809 -2.03015
275 1 6.35487 5.3413 4.44757 0.561767 -0.978785 -0.133344
276 1 5.27408 6.24166 4.56754 6.98603 1.54355 -5.42942
277 1 7.19701 5.44828 3.47564 -5.73363 -4.54905 0.0826653
278 1 7.95668 6.19688 3.55501 6.31824 5.03885 -1.22951
279 1 8.09251 5.32103 4.3972 -0.525971 0.388914 -0.470954
280 1 7.21521 6.34275 4.38759 -5.30552 -2.8442 0.851377
281 1 0.0775826 7.08234 3.53581 -5.46769 7.72822 0.0708503
282 1 0.933572 7.95134 3.59844 -0.0755868 -0.81045 -0.0294233
283 1 0.967321 7.07254 4.42487 -1.68738 -0.0136546 1.81969
284 1 8.87247 7.95576 4.3937 0.743652 0.272325 -0.92866
285 1 1.76917 7.11669 3.64005 0.930468 -0.723585 -1.50003
286 1 2.76456 8.10499 3.62233 -0.317456 0.121935 0.766743
287 1 2.61456 7.10311 4.56718 0.759736 -0.536182 -1.28605
288 1 1.85332 7.96709 4.49102 -0.903085 0.0612931 0.171005
289 1 3.6668 7.06536 3.52857 -12.7314 9.15268 1.72289
290 1 4.37522 8.04334 3.61636 3.8155 -4.43194 -0.0509001
291 1 4.53661 7.19684 4.42303 -0.089737 0.0836956 0.326132
292 1 3.62847 8.06443 4.56174 -6.53673 1.14979 -7.53287
293 1 5.44626 7.09379 3.53396 -2.70855 0.0837127 2.61511
294 1 6.30058 8.08668 3.48692 -3.50797 -0.210369 1.40313
295 1 6.24642 7.05504 4.56658 1.23504 0.486666 -1.51311
296 1 5.40389 8.14153 4.41484 -1.1149 -1.90428 -2.07503
297 1 7.0793 7.23572 3.56625 0.390898 -5.13728 0.366365
298 1 8.02564 8.11993 3.55841 -0.989908 -0.0289504 0.0817166
299 1 7.96341 7.11444 4.5691 3.18586 3.20848 -0.902141
300 1 7.14662 7.9965 4.39373 -0.0363915 0.663241 1.28885
301 1 0.0665117 0.0620058 5.29566 -4.76408 0.0634028 3.8487
302 1 0.920378 0.847838 5.33345 0.704711 1.73157 1.07432
303 1 0.90733 0.0507073 6.29492 -0.256865 0.383558 -0.568888
304 1 0.0695806 0.935871 6.21245 0.520609 -0.18085 0.460935
305 1 1.7158 8.90069 5.2688 0.480844 0.845699 -0.0820744
306 1 2.72956 0.862321 5.35582 -0.666933 0.680843 -0.243728
307 1 2.75788 8.89573 6.26927 0.729554 0.867268 -0.717865
308 1 1.87787 0.918127 6.17945 -0.463015 -0.230718 0.375845
309 1 3.57292 0.0827463 5.28099 -0.282881 -3.17985 0.660183
310 1 4.39889 0.831174 5.46088 -0.653335 9.17872 -7.1909
311 1 4.53367 0.077487 6.1821 0.157227 -8.03625 7.38236
312 1 3.56635 0.935389 6.31146 0.221361 0.0036999 -1.2625
313 1 5.44773 8.84526 5.27719 -1.51548 1.46139 3.00719
314 1 6.272 0.802404 5.33609 -0.667532 1.91594 -0.251293
315 1 6.22537 8.89219 6.16591 -0.245349 -0.895062 1.43446
316 1 5.33827 0.94153 6.32303 -1.13614 0.583964 -0.338203
317 1 7.11863 0.0577427 5.44516 0.0248025 -1.55594 -0.512164
318 1 7.97781 0.796351 5.39903 0.844611 2.54625 -2.84321
319 1 8.06017 8.92765 6.18069 -0.104306 -2.31947 1.77241
320 1 7.18164 0.989783 6.31023 -0.163547 -0.192109 -0.79717
321 1 0.0916103 1.88258 5.39516 -1.00186 -1.43206 -0.661702
322 1 0.982314 2.60245 5.42151 0.964023 2.57135 -1.73713
323 1 0.897632 1.84422 6.25233 0.598171 -0.657266 0.69786
324 1 0.0925235 2.7239 6.16577 -1.60764 0.211114 1.61705
325 1 1.82959 1.77578 5.39133 -0.293694 0.755656 -0.589776
326 1 2.69272 2.74727 5.44011 1.7292 -2.84836 -1.30998
327 1 2.6889 1.83234 6.17525 0.647659 -0.90616 0.231454
328 1 1.77521 2.70825 6.28078 0.536701 -0.406727 0.0293567
329 1 3.51954 1.69427 5.29216 6.69261 0.0739574 6.33581
330 1 4.4097 2.73314 5.34432 0.344675 0.135757 -0.187596
331 1 4.40444 1.82369 6.16689 4.836 -4.97823 0.364517
332 1 3.67178 2.60038 6.25743 -5.49724 5.54416 -0.00203516
333 1 5.35146 1.77827 5.39473 -0.235283 0.213892 0.835574
334 1 6.28399 2.77802 5.42862 -0.340126 -0.250486 -0.411738
335 1 6.23134 1.81375 6.22687 0.0223138 0.244736 0.523936
336 1 5.32351 2.70513 6.28288 3.08354 -1.69468 -3.77436
337 1 7.14617 1.80036 5.35567 0.0919136 -0.311209 -0.475968
338 1 8.0974 2.70612 5.29285 -7.26474 -2.41437 5.10983
339 1 8.1011 1.88391 6.31294 0.0553936 -2.83177 -2.84321
340 1 7.18351 2.67214 6.17899 0.615225 -0.197791 1.28477
341 1 8.87232 3.47935 5.28683 2.9021 4.26792 0.541835
342 1 0.935261 4.37233 5.44726 0.629241 0.918492 -0.917538
343 1 0.919878 3.52494 6.23281 0.869805 0.127506 1.01894
344 1 0.00431382 4.37186 6.33532 0.0302966 1.00444 -0.578346
345 1 1.87251 3.50381 5.42034 -2.4415 2.77086 0.0779929
346 1 2.70362 4.48406 5.3041 -1.90814 0.882252 2.42793
347 1 2.75055 3.50273 6.30756 -1.47013 1.25632 -0.795276
348 1 1.84448 4.4497 6.22456 -0.665656 -0.501499 -0.145372
349 1 3.61741 3.6732 5.27884 1.4909 -8.59965 8.97662
350 1 4.55362 4.53069 5.43699 -1.55164 -1.28771 -1.47171
351 1 4.52256 3.52483 6.1944 -1.86903 1.10409 1.578
352 1 3.65361 4.51782 6.21866 -3.39722 -3.70857 0.481797
353 1 5.32088 3.65892 5.41856 2.55855 -1.45769 -1.45685
354 1 6.25422 4.4123 5.33119 0.406295 0.346858 0.292537
355 1 6.15978 3.47786 6.34128 0.227911 3.77427 -2.75081
356 1 5.33342 4.43001 6.30433 -0.582231 -0.0994195 -0.382533
357 1 7.19473 3.56016 5.44441 -0.898652 0.294925 -2.64663
358 1 7.98682 4.41046 5.33513 1.4916 0.0945815 1.20731
359 1 7.97947 3.58929 6.2697 1.92008 -1.0462 0.640867
360 1 7.19164 4.45465 6.22659 0.298273 0.832684 -0.26134
361 1 8.91866 5.33922 5.43231 0.972904 -0.678404 -1.89043
362 1 0.863832 6.24178 5.44793 2.40494 -1.34388 -3.01765
363 1 0.840212 5.37684 6.26703 1.52144 -3.32025 -2.26664
364 1 0.0375152 6.17563 6.19921 -3.52547 2.50803 1.96141
365 1 1.71406 5.31325 5.33193 0.359992 -0.20317 1.05182
366 1 2.70446 6.22369 5.28953 -1.67496 -0.128385 2.17513
367 1 2.62094 5.31478 6.20919 0.620292 0.0770975 0.0647467
368 1 1.78318 6.16446 6.20286 -0.707464 0.30734 -0.850222
369 1 3.5001 5.34304 5.42111 1.18155 0.33408 -1.88423
370 1 4.48409 6.21311 5.27474 -6.47906 -0.498054 6.10955
371 1 4.40434 5.30746 6.24861 3.30032 4.47126 1.95885
372 1 3.65651 6.23636 6.35732 0.258101 -0.821502 -0.539452
373 1 5.37686 5.39062 5.45706 -0.495794 0.303868 0.87367
374 1 6.27665 6.3275 5.44876 0.578726 -4.19567 -0.915026
375 1 6.28987 5.34918 6.28481 -0.689441 0.646514 -0.025026
376 1 5.38856 6.30438 6.29204 -0.62461 -0.174266 -0.144794
377 1 7.10303 5.36134 5.39788 0.303084 -0.453051 0.575398
378 1 7.97278 6.2689 5.34555 1.29349 -0.0892034 0.239307
379 1 8.1123 5.2681 6.25774 -0.648694 -0.661016 0.761589
380 1 7.23419 6.34793 6.22344 -1.98134 -0.75315 1.10815
381 1 0.0530217 7.08624 5.43675 -2.76329 0.356415 -1.34254
382 1 0.891502 8.07734 5.33574 -0.449954 -0.433341 -0.0145848
383 1 0.859902 7.08778 6.21702 1.22817 0.316603 2.39974
384 1 8.86723 7.96664 6.28254 0.557062 3.16551 -3.15026
385 1 1.77928 7.05564 5.34292 -1.2854 -0.797113 0.726349
386 1 2.74792 8.05162 5.34603 0.580474 -0.247926 -0.00393627
387 1 2.61984 7.13654 6.2076 0.1179 0.00397349 -0.327299
388 1 1.73531 7.99204 6.32624 -0.619957 1.84241 -1.57732
389 1 3.59984 7.17613 5.43634 -0.452415 0.706682 -0.14784
390 1 4.39821 8.05962 5.28157 7.32724 0.749963 7.12774
391 1 4.53389 7.20586 6.21186 -1.71384 -1.49003 0.809357
392 1 3.66572 8.09269 6.23368 0.381787 -1.59697 -1.53597
393 1 5.43811 7.11751 5.40192 -5.5589 -0.00418968 -4.06356
394 1 6.35445 7.96959 5.31467 -2.59984 2.44569 0.360222
395 1 6.17375 7.13942 6.18142 5.31103 3.8936 7.8957
396 1 5.29125 8.02549 6.29493 1.99742 1.43167 0.441829
397 1 7.11664 7.15874 5.38774 1.63444 -2.12611 -0.430051
398 1 8.12983 8.0005 5.26693 -0.350623 0.791023 2.07438
399 1 8.11089 7.10521 6.29529 -1.02761 -0.414645 -0.639575
400 1 7.1542 8.04467 6.33119 -0.716395 -2.97685 -2.97233
401 1 0.0455321 0.0581059 7.13785 -2.59331 -3.08955 0.589456
402 1 0.853998 0.797568 7.23372 2.25232 12.9399 -9.25923
403 1 0.893883 0.0531987 7.95582 -0.265032 -9.78891 10.4341
404 1 0.0979374 0.927475 8.08374 -1.27945 -0.625441 0.909779
405 1 1.70883 0.0184568 7.15475 0.947479 -0.211015 -0.0644084
406 1 2.65212 0.910749 7.07723 -0.301347 -0.213339 -0.337826
407 1 2.6305 8.90469 8.0727 2.55272 1.71066 0.384582
408 1 1.75018 0.91387 8.02574 -0.526684 -0.686186 -0.483147
409 1 3.61403 8.84934 7.06612 1.02988 1.44024 1.76178
410 1 4.42034 0.91943 7.17223 0.522178 -1.61468 -2.10925
411 1 4.37056 0.0516865 8.14003 0.0263315 0.189467 -0.466418
412 1 3.59 0.934896 8.00045 0.0371044 1.00787 1.05016
413 1 5.2816 0.0108877 7.14004 0.0410715 -0.366939 -0.311788
414 1 6.23624 0.898837 7.05965 1.021 0.941131 0.654753
415 1 6.246 8.87468 8.06175 -0.280098 0.535663 -1.1759
416 1 5.31648 0.815501 8.12607 -0.78801 0.243527 -0.599256
417 1 7.10707 8.84874 7.08197 -0.468775 2.08644 1.86713
418 1 8.05013 0.946529 7.22788 -1.5208 -0.582053 0.186559
419 1 8.1301 8.84043 8.01457 0.052244 0.715074 -0.282442
420 1 7.06838 0.987221 8.03414 10.0415 -13.6791 -1.19755
421 1 8.86835 1.70934 7.22731 2.54892 2.22649 -0.22541
422 1 0.866325 2.76414 7.15029 -0.0137847 -2.49225 -3.8584
423 1 0.826708 1.83336 8.03111 1.70357 -1.53255 0.309164
424 1 0.0511912 2.65175 8.02861 -1.53037 1.53618 -0.152554
425 1 1.7237 1.71044 7.1133 -0.3904 -0.435435 -0.731182
426 1 2.66636 2.72018 7.14295 0.547793 -0.274295 0.648117
427 1 2.70105 1.80209 8.13576 -0.0852062 -0.133841 -0.000493208
428 1 1.77492 2.76081 8.10399 0.564357 -0.308093 0.985398
429 1 3.66205 1.87543 7.16799 0.15905 -2.5091 -2.55207
430 1 4.55348 2.70177 7.05301 -5.50098 -2.53366 3.01389
431 1 4.46818 1.71608 7.96441 0.32513 1.80226 3.00161
432 1 3.56091 2.58808 8.02945 0.396266 1.95642 2.12785
433 1 5.36149 1.84637 7.16969 0.516803 -0.0610583 -0.802699
434 1 6.28291 2.77184 7.1854 -0.512674 -3.17359 2.22694
435 1 6.3427 1.71551 7.9726 -15.2061 11.4078 1.6664
436 1 5.45463 2.61593 8.09933 0.73198 1.12429 -0.810915
437 1 7.14617 1.80598 7.24022 4.03182 0.503759 -4.81039
438 1 8.07521 2.6756 7.07092 -0.336894 3.22322 3.478
439 1 8.11875 1.8373 8.10797 -1.57974 -0.493075 -0.537868
440 1 7.09714 2.63714 8.02739 -0.0173147 0.820696 1.90431
441 1 8.85027 3.56499 7.15253 3.00565 -1.27064 -0.682205
442 1 0.885235 4.38222 7.18774 -1.842 1.22146 -0.226395
443 1 0.884771 3.48141 7.97536 -0.530218 4.3971 3.23625
444 1 0.0419078 4.41462 8.04436 -0.806344 -0.262731 -0.956831
445 1 1.73746 3.66699 7.09267 1.85773 -3.96877 -1.41987
446 1 2.66489 4.55163 7.19564 0.399017 -1.47837 -0.325749
447 1 2.68401 3.61278 8.06372 0.262338 -0.0680464 0.329915
448 1 1.80878 4.38262 7.9551 -1.46544 1.49945 2.09645
449 1 3.55441 3.63471 7.17184 -0.0924634 0.45212 0.606799
450 1 4.40759 4.53436 7.23701 0.160045 0.252781 -1.03281
451 1 4.47938 3.49218 8.04219 0.177099 0.0940276 0.00712601
452 1 3.55379 4.48752 8.06012 -0.927856 0.341505 -0.0833457
453 1 5.30335 3.52949 7.1279 2.00125 1.71282 0.0663191
454 1 6.19233 4.44015 7.09395 -0.123778 -0.82645 0.684973
455 1 6.31698 3.55227 8.05766 -1.80584 -0.932697 -1.1518
456 1 5.41804 4.43351 8.09204 -4.30063 -0.218755 -3.96516
457 1 7.232 3.50321 7.24512 -0.569054 0.129485 -1.05452
458 1 8.04777 4.39134 7.10023 -0.415559 1.27013 1.1937
459 1 8.09921 3.54644 7.99275 -0.904288 0.185761 1.62031
460 1 7.15284 4.38151 8.0646 -0.281528 0.0795406 -1.17401
461 1 8.85944 5.36104 7.19522 1.71386 -0.372777 -2.67299
462 1 0.808445 6.15874 7.05432 0.343929 1.70028 2.25424
463 1 0.99266 5.36055 8.05319 -1.96195 -0.361049 -1.35199
464 1 8.9228 6.22111 8.03716 -0.328906 0.253391 -0.16959
465 1 1.7511 5.27554 7.16317 -0.501838 -0.493478 -1.59379
466 1 2.7323 6.31099 7.08452 0.463177 0.0720173 0.389338
467 1 2.75106 5.38162 8.09911 0.530948 -0.923774 -0.761524
468 1 1.80446 6.33727 8.00982 0.567564 -0.353842 0.999402
469 1 3.53218 5.32026 7.15711 1.3552 1.44822 0.141569
470 1 4.49512 6.19462 7.20137 -2.95094 2.57244 -4.09211
471 1 4.4829 5.43783 8.04952 -1.75843 -3.70774 -0.194014
472 1 3.65767 6.24252 7.97233 -2.18137 -0.334806 -0.189717
473 1 5.35752 5.46295 7.14871 1.05371 -2.23541 -1.50951
474 1 6.22804 6.29485 7.12141 -0.370188 0.264704 -0.149428
475 1 6.34127 5.4593 8.01496 -0.759119 0.239406 -0.0100712
476 1 5.27101 6.21963 7.98358 4.21356 3.70888 3.53999
477 1 7.2413 5.39744 7.15422 0.63332 0.408861 0.0765336
478 1 8.01209 6.33115 7.20214 1.04149 -1.50251 -0.643312
479 1 8.11155 5.33363 8.02803 -2.08279 1.51127 0.153008
480 1 7.20203 6.31049 8.06426 -0.105023 -0.935886 0.140492
481 1 8.92362 7.24394 7.10015 0.0792153 -3.18157 4.09933
482 1 0.865164 8.02092 7.22606 2.85769 1.65383 -2.61434
483 1 0.86745 7.15339 8.01815 -0.578541 -0.380635 0.364655
484 1 0.0284189 8.08161 7.95725 -0.890268 -0.349283 1.10066
485 1 1.85656 7.22057 7.11535 0.397315 -1.70504 3.16253
486 1 2.77375 7.96501 7.15423 0.0953595 0.0574297 -0.272157
487 1 2.64437 7.22314 8.11966 1.48696 -0.179689 -2.12782
488 1 1.85941 8.11413 7.96635 -2.35368 -2.50728 -0.754549
489 1 3.67468 7.10829 7.12824 0.65987 0.70298 0.656082
490 1 4.46621 7.99739 7.2078 2.25404 -0.456947 -2.59682
491 1 4.48001 7.09955 8.01357 0.0334801 0.324585 -0.290932
492 1 3.6378 8.02597 7.95299 -1.96867 -0.619231 2.20677
493 1 5.31589 7.17259 7.15585 0.23145 -0.930936 -0.437425
494 1 6.20936 8.03122 7.09513 -0.13604 -0.296447 0.152582
495 1 6.17543 7.22187 8.09898 5.44884 -7.61495 -1.62058
496 1 5.43883 7.98222 8.0181 -6.37262 6.00913 -1.00537
497 1 7.14576 7.09705 7.14015 0.407174 1.49093 0.0363952
498 1 8.02588 8.07609 7.1284 1.43118 -1.40285 -0.689018
499 1 7.99317 7.15919 8.00286 1.19218 0.601266 0.682892
500 1 7.2435 8.04597 7.97482 -1.89044 -0.246287 0.1524
ITEM: TIMESTEP
0
ITEM: NUMBER OF ATOMS
500
ITEM: BOX BOUNDS pp pp pp
0.0000000000000000e+00 8.5498797333834844e+00
0.0000000000000000e+00 8.5498797333834844e+00
0.0000000000000000e+00 8.5498797333834844e+00
ITEM: ATOMS id type x y z f_1[1] f_1[2] f_1[3]
1 1 0.0109462 8.52194 8.48789 1.60777 3.16074 4.93288
2 1 0.770239 0.886587 0.0775241 5.1148 0.619933 -4.35337
3 1 0.914855 8.54009 0.795212 -2.54709 2.40671 3.27622
4 1 8.53949 0.79582 0.824294 -1.87361 -0.316163 2.22706
5 1 1.68126 8.45058 8.49491 -0.796772 17.9401 13.8601
6 1 2.49257 0.906431 0.000759221 8.8197 -0.476032 2.96817
7 1 2.62932 0.0354753 0.888378 -4.43263 -0.45206 -5.76212
8 1 1.71329 0.913566 0.778252 -3.74188 -4.37189 3.26227
9 1 3.42175 0.0965993 8.49503 -4.75784 -8.08943 10.1901
10 1 4.21271 0.889278 8.46971 8.07159 3.26979 7.09905
11 1 4.30903 0.0721078 0.771319 -2.20196 2.16322 3.01896
12 1 3.42332 0.912751 0.876126 -1.2014 -0.27869 -2.68959
13 1 5.04057 8.48132 8.46735 12.114 4.06773 4.60111
14 1 5.95626 0.830289 0.0884189 2.64036 5.56585 -7.9642
15 1 5.95178 0.0392781 0.802073 0.496214 -5.11156 5.55524