ITEM: TIMESTEP
0
ITEM: NUMBER OF ATOMS
500
ITEM: BOX BOUNDS pp pp pp
0.0000000000000000e+00 8.3979809569125372e+00
0.0000000000000000e+00 8.3979809569125372e+00
0.0000000000000000e+00 8.3979809569125372e+00
ITEM: ATOMS id type x y z f_2[1] f_2[2] f_2[3]
1 1 0 0 0 -1.06581e-14 -1.13243e-14 -1.09635e-14
2 1 0.839798 0.839798 0 2.88658e-15 3.34455e-15 -9.76996e-15
3 1 0.839798 0 0.839798 2.66454e-15 -9.65894e-15 4.45477e-15
4 1 0 0.839798 0.839798 -1.15463e-14 2.88658e-15 3.44169e-15
5 1 1.6796 0 0 -3.95517e-16 -1.06581e-14 -1.11022e-14
6 1 2.51939 0.839798 0 -3.1225e-16 2.66454e-15 -9.76996e-15
7 1 2.51939 0 0.839798 -7.97973e-16 -1.06581e-14 2.88658e-15
8 1 1.6796 0.839798 0.839798 -4.3715e-16 3.10862e-15 3.1225e-15
9 1 3.35919 0 0 1.30798e-14 -1.06581e-14 -1.06581e-14
10 1 4.19899 0.839798 0 -2.24404e-14 2.66454e-15 -8.88178e-15
11 1 4.19899 0 0.839798 -2.33424e-14 -8.88178e-15 2.55351e-15
12 1 3.35919 0.839798 0.839798 1.37182e-14 3.10862e-15 4.23273e-15
13 1 5.03879 0 0 3.19189e-16 -7.99361e-15 -7.10543e-15
14 1 5.87859 0.839798 0 2.27665e-14 2.88658e-15 -7.99361e-15
15 1 5.87859 0 0.839798 2.17673e-14 -7.99361e-15 2.77556e-15
16 1 5.03879 0.839798 0.839798 -4.09395e-16 2.88658e-15 2.90046e-15
17 1 6.71838 0 0 -3.21965e-15 -9.63118e-15 -1.01863e-14
18 1 7.55818 0.839798 0 4.44089e-16 2.58127e-15 -9.10383e-15
19 1 7.55818 0 0.839798 -4.44089e-16 -9.99201e-15 3.21965e-15
20 1 6.71838 0.839798 0.839798 -2.94209e-15 2.90046e-15 4.02456e-15
21 1 0 1.6796 0 -1.15463e-14 0 -1.04361e-14
22 1 0.839798 2.51939 0 3.10862e-15 -9.71445e-17 -1.00198e-14
23 1 0.839798 1.6796 0.839798 2.33147e-15 2.22045e-16 3.34455e-15
24 1 0 2.51939 0.839798 -1.06581e-14 -7.21645e-16 2.9976e-15
25 1 1.6796 1.6796 0 -4.23273e-16 6.93889e-18 -8.88178e-15
26 1 2.51939 2.51939 0 -2.19963e-15 -1.77636e-15 -1.09079e-14
27 1 2.51939 1.6796 0.839798 -1.2837e-15 9.08995e-16 2.88658e-15
28 1 1.6796 2.51939 0.839798 3.53884e-16 -2.0331e-15 2.8727e-15
29 1 3.35919 1.6796 0 1.351e-14 1.45717e-16 -7.99361e-15
30 1 4.19899 2.51939 0 -2.32314e-14 -1.88738e-15 -9.99201e-15
31 1 4.19899 1.6796 0.839798 -2.24404e-14 -2.08167e-16 3.33067e-15
32 1 3.35919 2.51939 0.839798 1.45925e-14 -1.36002e-15 3.31679e-15
33 1 5.03879 1.6796 0 2.28983e-16 1.94289e-16 -7.99361e-15
34 1 5.87859 2.51939 0 2.13649e-14 -1.66533e-15 -8.21565e-15
35 1 5.87859 1.6796 0.839798 1.98383e-14 1.17961e-15 3.10862e-15
36 1 5.03879 2.51939 0.839798 3.40006e-16 -2.80331e-15 2.8727e-15
37 1 6.71838 1.6796 0 -2.88658e-15 -2.63678e-16 -8.99281e-15
38 1 7.55818 2.51939 0 1.33227e-15 -1.33227e-15 -9.99201e-15
39 1 7.55818 1.6796 0.839798 -8.04912e-16 1.94289e-16 3.33067e-15
40 1 6.71838 2.51939 0.839798 -3.10862e-15 -1.66533e-15 3.55271e-15
41 1 0 3.35919 0 -1.06581e-14 1.31006e-14 -1.02141e-14
42 1 0.839798 4.19899 0 2.66454e-15 -2.27873e-14 -9.34669e-15
43 1 0.839798 3.35919 0.839798 2.33147e-15 1.43774e-14 4.01068e-15
44 1 0 4.19899 0.839798 -9.76996e-15 -2.33147e-14 2.60902e-15
45 1 1.6796 3.35919 0 -8.11851e-16 1.5099e-14 -1.02141e-14
46 1 2.51939 4.19899 0 -1.89432e-15 -2.39808e-14 -7.54952e-15
47 1 2.51939 3.35919 0.839798 -5.06539e-16 1.51268e-14 3.44169e-15
48 1 1.6796 4.19899 0.839798 -4.16334e-16 -2.30926e-14 3.10862e-15
49 1 3.35919 3.35919 0 1.26774e-14 1.46549e-14 -9.32587e-15
50 1 4.19899 4.19899 0 -2.30302e-14 -2.4869e-14 -7.10543e-15
51 1 4.19899 3.35919 0.839798 -2.21004e-14 1.13798e-14 2.77556e-15
52 1 3.35919 4.19899 0.839798 1.18308e-14 -2.22045e-14 2.66454e-15
53 1 5.03879 3.35919 0 6.93889e-17 1.13243e-14 -7.54952e-15
54 1 5.87859 4.19899 0 2.21975e-14 -2.22045e-14 -6.43929e-15
55 1 5.87859 3.35919 0.839798 2.14412e-14 1.27398e-14 2.77556e-15
56 1 5.03879 4.19899 0.839798 -2.22045e-16 -2.13163e-14 2.72005e-15
57 1 6.71838 3.35919 0 -3.38618e-15 1.34892e-14 -9.15934e-15
58 1 7.55818 4.19899 0 0 -2.35367e-14 -7.32747e-15
59 1 7.55818 3.35919 0.839798 1.11022e-16 1.39888e-14 3.10862e-15
60 1 6.71838 4.19899 0.839798 -2.9976e-15 -2.31204e-14 2.34535e-15
61 1 0 5.03879 0 -6.21725e-15 -2.22045e-16 -7.32747e-15
62 1 0.839798 5.87859 0 2.44249e-15 2.22322e-14 -7.10543e-15
63 1 0.839798 5.03879 0.839798 2.55351e-15 -1.66533e-16 2.61596e-15
64 1 0 5.87859 0.839798 -7.10543e-15 2.15938e-14 3.10862e-15
65 1 1.6796 5.03879 0 1.249e-16 4.44089e-16 -7.99361e-15
66 1 2.51939 5.87859 0 -1.73472e-15 2.16008e-14 -7.99361e-15
67 1 2.51939 5.03879 0.839798 -1.7833e-15 6.66134e-16 3.04617e-15
68 1 1.6796 5.87859 0.839798 4.16334e-17 2.04697e-14 3.33067e-15
69 1 3.35919 5.03879 0 1.08802e-14 0 -8.02136e-15
70 1 4.19899 5.87859 0 -2.37727e-14 2.2253e-14 -6.21725e-15
71 1 4.19899 5.03879 0.839798 -1.93734e-14 2.22045e-16 3.26822e-15
72 1 3.35919 5.87859 0.839798 1.27537e-14 2.2593e-14 3.33067e-15
73 1 5.03879 5.03879 0 1.94289e-16 6.66134e-16 -5.32907e-15
74 1 5.87859 5.87859 0 2.20449e-14 2.1233e-14 -6.21725e-15
75 1 5.87859 5.03879 0.839798 1.92277e-14 4.44089e-16 2.82413e-15
76 1 5.03879 5.87859 0.839798 -6.93889e-18 2.00326e-14 3.33067e-15
77 1 6.71838 5.03879 0 -2.27596e-15 -4.16334e-17 -8.24341e-15
78 1 7.55818 5.87859 0 -8.88178e-16 2.33147e-14 -7.54952e-15
79 1 7.55818 5.03879 0.839798 8.32667e-16 1.88738e-15 2.55351e-15
80 1 6.71838 5.87859 0.839798 -3.16414e-15 2.25098e-14 3.1225e-15
81 1 0 6.71838 0 -9.76996e-15 -3.77476e-15 -9.38138e-15
82 1 0.839798 7.55818 0 2.22045e-15 1.67921e-15 -9.20097e-15
83 1 0.839798 6.71838 0.839798 2.33147e-15 -2.83107e-15 3.58047e-15
84 1 0 7.55818 0.839798 -7.99361e-15 -1.11022e-15 3.05311e-15
85 1 1.6796 6.71838 0 1.38778e-16 -2.72005e-15 -8.99281e-15
86 1 2.51939 7.55818 0 -2.69229e-15 1.55431e-15 -8.43769e-15
87 1 2.51939 6.71838 0.839798 -7.91034e-16 -2.83801e-15 3.56659e-15
88 1 1.6796 7.55818 0.839798 4.64906e-16 -5.55112e-17 3.10862e-15
89 1 3.35919 6.71838 0 1.27398e-14 -2.10942e-15 -8.04912e-15
90 1 4.19899 7.55818 0 -2.46053e-14 -2.22045e-16 -6.21725e-15
91 1 4.19899 6.71838 0.839798 -2.40225e-14 -4.89886e-15 2.67841e-15
92 1 3.35919 7.55818 0.839798 1.36349e-14 -5.55112e-17 2.66454e-15
93 1 5.03879 6.71838 0 3.19189e-16 -3.71925e-15 -7.32747e-15
94 1 5.87859 7.55818 0 2.2593e-14 0 -7.10543e-15
95 1 5.87859 6.71838 0.839798 2.19269e-14 -2.62984e-15 2.45637e-15
96 1 5.03879 7.55818 0.839798 -4.16334e-16 -8.32667e-17 2.05391e-15
97 1 6.71838 6.71838 0 -2.60902e-15 -2.42861e-15 -7.99361e-15
98 1 7.55818 7.55818 0 -4.44089e-16 -8.88178e-16 -8.88178e-15
99 1 7.55818 6.71838 0.839798 -1.66533e-16 -2.22045e-15 2.55351e-15
100 1 6.71838 7.55818 0.839798 -3.16414e-15 2.77556e-17 2.78944e-15
101 1 0 0 1.6796 -1.15463e-14 -1.04361e-14 -8.88178e-16
102 1 0.839798 0.839798 1.6796 2.44249e-15 2.56739e-15 6.66134e-16
103 1 0.839798 0 2.51939 2.66454e-15 -9.65894e-15 -1.52656e-16
104 1 0 0.839798 2.51939 -1.15463e-14 2.9976e-15 3.88578e-16
105 1 1.6796 0 1.6796 2.15106e-16 -9.76996e-15 0
106 1 2.51939 0.839798 1.6796 -1.71391e-15 2.66454e-15 3.88578e-16
107 1 2.51939 0 2.51939 -1.74166e-15 -1.06581e-14 -1.60982e-15
108 1 1.6796 0.839798 2.51939 2.63678e-16 3.10862e-15 -1.67227e-15
109 1 3.35919 0 1.6796 1.42039e-14 -8.88178e-15 8.88178e-16
110 1 4.19899 0.839798 1.6796 -2.18159e-14 2.44249e-15 -6.10623e-16
111 1 4.19899 0 2.51939 -2.31759e-14 -9.76996e-15 -1.66533e-15
112 1 3.35919 0.839798 2.51939 1.4419e-14 2.88658e-15 -1.90126e-15
113 1 5.03879 0 1.6796 9.08995e-16 -9.76996e-15 8.88178e-16
114 1 5.87859 0.839798 1.6796 2.02685e-14 2.44249e-15 1.02696e-15
115 1 5.87859 0 2.51939 2.0213e-14 -8.88178e-15 -1.27676e-15
116 1 5.03879 0.839798 2.51939 2.91434e-16 3.10862e-15 -1.45023e-15
117 1 6.71838 0 1.6796 -2.30371e-15 -9.65894e-15 -9.02056e-17
118 1 7.55818 0.839798 1.6796 3.747e-16 2.16493e-15 1.04083e-16
119 1 7.55818 0 2.51939 1.33227e-15 -9.76996e-15 -1.9984e-15
120 1 6.71838 0.839798 2.51939 -3.10862e-15 2.90046e-15 -2.10942e-15
121 1 0 1.6796 1.6796 -1.28786e-14 8.88178e-16 6.66134e-16
122 1 0.839798 2.51939 1.6796 2.33147e-15 -1.43635e-15 1.11022e-16
123 1 0.839798 1.6796 2.51939 2.66454e-15 7.35523e-16 -1.30451e-15
124 1 0 2.51939 2.51939 -9.76996e-15 -1.249e-15 -1.4988e-15
125 1 1.6796 1.6796 1.6796 2.22045e-16 -1.67921e-15 5.96745e-16
126 1 2.51939 2.51939 1.6796 -8.95117e-16 -2.39392e-15 -1.3739e-15
127 1 2.51939 1.6796 2.51939 -9.22873e-16 1.38778e-17 -1.17267e-15
128 1 1.6796 2.51939 2.51939 1.38778e-16 -1.4988e-15 -2.498e-15
129 1 3.35919 1.6796 1.6796 1.44329e-14 -1.58207e-15 5.27356e-16
130 1 4.19899 2.51939 1.6796 -2.17534e-14 -1.89432e-15 -4.85723e-16
131 1 4.19899 1.6796 2.51939 -2.2024e-14 4.64906e-16 -2.11636e-15
132 1 3.35919 2.51939 2.51939 1.47937e-14 -1.55431e-15 -2.52576e-15
133 1 5.03879 1.6796 1.6796 6.38378e-16 -4.78784e-16 8.46545e-16
134 1 5.87859 2.51939 1.6796 2.05322e-14 -1.4086e-15 2.28983e-16
135 1 5.87859 1.6796 2.51939 2.02546e-14 -2.56739e-16 -2.07473e-15
136 1 5.03879 2.51939 2.51939 5.82867e-16 -2.16493e-15 -2.498e-15
137 1 6.71838 1.6796 1.6796 -2.16493e-15 -9.4369e-16 5.55112e-17
138 1 7.55818 2.51939 1.6796 -4.44089e-16 -1.11022e-15 -2.77556e-17
139 1 7.55818 1.6796 2.51939 4.44089e-16 -6.93889e-18 -2.22045e-15
140 1 6.71838 2.51939 2.51939 -3.27516e-15 -1.76248e-15 -2.55351e-15
141 1 0 3.35919 1.6796 -1.11022e-14 1.39888e-14 -2.22045e-16
142 1 0.839798 4.19899 1.6796 2.55351e-15 -2.46053e-14 -7.77156e-16
143 1 0.839798 3.35919 2.51939 2.88658e-15 1.46688e-14 -1.47105e-15
144 1 0 4.19899 2.51939 -7.99361e-15 -2.26485e-14 -1.33227e-15
145 1 1.6796 3.35919 1.6796 2.08167e-16 1.37251e-14 5.41234e-16
146 1 2.51939 4.19899 1.6796 -1.9082e-15 -2.30926e-14 -1.55431e-15
147 1 2.51939 3.35919 2.51939 -1.04777e-15 1.5099e-14 -1.77636e-15
148 1 1.6796 4.19899 2.51939 -2.01228e-16 -2.22045e-14 -2.27596e-15
149 1 3.35919 3.35919 1.6796 1.39194e-14 1.31006e-14 3.46945e-16
150 1 4.19899 4.19899 1.6796 -2.1802e-14 -2.22045e-14 -4.44089e-16
151 1 4.19899 3.35919 2.51939 -2.31759e-14 1.11022e-14 -2.44249e-15
152 1 3.35919 4.19899 2.51939 1.19696e-14 -2.30926e-14 -1.38778e-15
153 1 5.03879 3.35919 1.6796 -6.93889e-18 1.12688e-14 1.38778e-16
154 1 5.87859 4.19899 1.6796 2.09208e-14 -2.22045e-14 -4.44089e-16
155 1 5.87859 3.35919 2.51939 2.10595e-14 1.06581e-14 -1.9984e-15
156 1 5.03879 4.19899 2.51939 -2.22045e-16 -2.13163e-14 -2.05391e-15
157 1 6.71838 3.35919 1.6796 -2.96291e-15 1.29619e-14 -1.11716e-15
158 1 7.55818 4.19899 1.6796 1.11022e-15 -2.30926e-14 -1.52656e-15
159 1 7.55818 3.35919 2.51939 4.44089e-16 1.40998e-14 -8.88178e-16
160 1 6.71838 4.19899 2.51939 -2.83107e-15 -2.29539e-14 -1.73472e-15
161 1 0 5.03879 1.6796 -7.99361e-15 1.11022e-15 -4.44089e-16
162 1 0.839798 5.87859 1.6796 2.44249e-15 1.9991e-14 2.77556e-16
163 1 0.839798 5.03879 2.51939 2.88658e-15 6.80012e-16 -1.66533e-16
164 1 0 5.87859 2.51939 -7.99361e-15 2.1011e-14 -1.77636e-15
165 1 1.6796 5.03879 1.6796 4.71845e-16 -3.33067e-16 -1.11022e-16
166 1 2.51939 5.87859 1.6796 -8.88178e-16 2.06501e-14 8.04912e-16
167 1 2.51939 5.03879 2.51939 -2.06085e-15 -2.22045e-16 -1.08941e-15
168 1 1.6796 5.87859 2.51939 2.63678e-16 2.05669e-14 -2.28983e-15
169 1 3.35919 5.03879 1.6796 1.12202e-14 -1.11022e-15 6.93889e-16
170 1 4.19899 5.87859 1.6796 -2.19824e-14 2.13163e-14 6.52256e-16
171 1 4.19899 5.03879 2.51939 -1.94983e-14 -2.22045e-16 -1.7486e-15
172 1 3.35919 5.87859 2.51939 1.26982e-14 2.15383e-14 -1.8735e-15
173 1 5.03879 5.03879 1.6796 6.245e-17 -9.99201e-16 6.38378e-16
174 1 5.87859 5.87859 1.6796 2.06501e-14 2.06501e-14 3.33067e-16
175 1 5.87859 5.03879 2.51939 1.84575e-14 1.11022e-15 -8.04912e-16
176 1 5.03879 5.87859 2.51939 -2.22045e-16 1.88322e-14 -2.51188e-15
177 1 6.71838 5.03879 1.6796 -3.22659e-15 -1.26288e-15 -2.22045e-16
178 1 7.55818 5.87859 1.6796 2.22045e-16 2.19824e-14 8.60423e-16
179 1 7.55818 5.03879 2.51939 -8.88178e-16 1.11022e-16 -1.77636e-15
180 1 6.71838 5.87859 2.51939 -2.9976e-15 2.17326e-14 -2.78944e-15
181 1 0 6.71838 1.6796 -9.76996e-15 -2.88658e-15 0
182 1 0.839798 7.55818 1.6796 2.10942e-15 1.17961e-15 9.15934e-16
183 1 0.839798 6.71838 2.51939 2.66454e-15 -3.10862e-15 -1.19349e-15
184 1 0 7.55818 2.51939 -1.06581e-14 8.88178e-16 -2.77556e-15
185 1 1.6796 6.71838 1.6796 1.38778e-16 -2.31759e-15 -3.19189e-16
186 1 2.51939 7.55818 1.6796 -1.1241e-15 8.8124e-16 -1.249e-16
187 1 2.51939 6.71838 2.51939 -1.19349e-15 -3.10862e-15 -2.96985e-15
188 1 1.6796 7.55818 2.51939 2.77556e-17 2.22045e-16 -1.9984e-15
189 1 3.35919 6.71838 1.6796 1.29757e-14 -2.02616e-15 -5.06539e-16
190 1 4.19899 7.55818 1.6796 -2.29122e-14 1.06859e-15 -2.91434e-16
191 1 4.19899 6.71838 2.51939 -2.36616e-14 -4.60743e-15 -2.9976e-15
192 1 3.35919 7.55818 2.51939 1.28508e-14 2.22045e-16 -2.22045e-15
193 1 5.03879 6.71838 1.6796 1.31839e-16 -2.53964e-15 -6.52256e-16
194 1 5.87859 7.55818 1.6796 2.15661e-14 7.63278e-16 -9.71445e-16
195 1 5.87859 6.71838 2.51939 2.18089e-14 -3.88578e-15 -2.63678e-15
196 1 5.03879 7.55818 2.51939 0 -6.66134e-16 -1.9984e-15
197 1 6.71838 6.71838 1.6796 -2.24126e-15 -2.59515e-15 -1.0339e-15
198 1 7.55818 7.55818 1.6796 4.44089e-16 0 -8.32667e-17
199 1 7.55818 6.71838 2.51939 -8.88178e-16 -2.27596e-15 -1.77636e-15
200 1 6.71838 7.55818 2.51939 -3.21965e-15 -9.71445e-17 -2.35922e-15
201 1 0 0 3.35919 -1.06581e-14 -1.04361e-14 1.35447e-14
202 1 0.839798 0.839798 3.35919 2.66454e-15 2.67841e-15 1.50435e-14
203 1 0.839798 0 4.19899 2.88658e-15 -9.65894e-15 -2.24473e-14
204 1 0 0.839798 4.19899 -7.99361e-15 2.88658e-15 -2.26485e-14
205 1 1.6796 0 3.35919 2.15106e-16 -8.88178e-15 1.42109e-14
206 1 2.51939 0.839798 3.35919 -1.83881e-15 2.77556e-15 1.55431e-14
207 1 2.51939 0 4.19899 -1.76942e-15 -8.88178e-15 -2.35367e-14
208 1 1.6796 0.839798 4.19899 -3.53884e-16 2.66454e-15 -2.19824e-14
209 1 3.35919 0 3.35919 1.37598e-14 -7.99361e-15 1.46549e-14
210 1 4.19899 0.839798 3.35919 -2.30232e-14 2.66454e-15 1.19071e-14
211 1 4.19899 0 4.19899 -2.28637e-14 -7.10543e-15 -2.35367e-14
212 1 3.35919 0.839798 4.19899 1.17892e-14 2.66454e-15 -2.28706e-14
213 1 5.03879 0 3.35919 2.08167e-17 -7.99361e-15 1.08802e-14
214 1 5.87859 0.839798 3.35919 2.2489e-14 2.55351e-15 1.36002e-14
215 1 5.87859 0 4.19899 2.18922e-14 -5.32907e-15 -2.28706e-14
216 1 5.03879 0.839798 4.19899 -1.25594e-15 2.66454e-15 -2.2024e-14
217 1 6.71838 0 3.35919 -2.47025e-15 -8.77076e-15 1.29619e-14
218 1 7.55818 0.839798 3.35919 -1.11022e-15 2.60902e-15 1.4766e-14
219 1 7.55818 0 4.19899 -4.44089e-16 -6.66134e-15 -2.39808e-14
220 1 6.71838 0.839798 4.19899 -2.60902e-15 2.90046e-15 -2.30371e-14
221 1 0 1.6796 3.35919 -1.11022e-14 -2.22045e-16 1.44329e-14
222 1 0.839798 2.51939 3.35919 2.77556e-15 -5.68989e-16 1.53766e-14
223 1 0.839798 1.6796 4.19899 2.66454e-15 1.52656e-16 -2.39253e-14
224 1 0 2.51939 4.19899 -8.88178e-15 -1.63758e-15 -2.37588e-14
225 1 1.6796 1.6796 3.35919 2.22045e-16 -7.91034e-16 1.5779e-14
226 1 2.51939 2.51939 3.35919 -1.4086e-15 -9.15934e-16 1.38917e-14
227 1 2.51939 1.6796 4.19899 -1.72778e-15 2.84495e-16 -2.30926e-14
228 1 1.6796 2.51939 4.19899 -7.28584e-16 -8.88178e-16 -2.2482e-14
229 1 3.35919 1.6796 3.35919 1.39888e-14 -2.77556e-17 1.57235e-14
230 1 4.19899 2.51939 3.35919 -2.32939e-14 -1.98452e-15 1.25663e-14
231 1 4.19899 1.6796 4.19899 -2.16285e-14 -2.22045e-16 -2.22045e-14
232 1 3.35919 2.51939 4.19899 1.21222e-14 -1.60982e-15 -2.33147e-14
233 1 5.03879 1.6796 3.35919 -2.498e-16 -9.22873e-16 1.29757e-14
234 1 5.87859 2.51939 3.35919 2.13649e-14 -9.71445e-17 1.28855e-14
235 1 5.87859 1.6796 4.19899 2.10457e-14 -1.0339e-15 -2.22045e-14
236 1 5.03879 2.51939 4.19899 -5.13478e-16 -2.05391e-15 -2.16771e-14
237 1 6.71838 1.6796 3.35919 -3.19883e-15 -4.996e-16 1.39264e-14
238 1 7.55818 2.51939 3.35919 -4.44089e-16 -2.22045e-15 1.29896e-14
239 1 7.55818 1.6796 4.19899 6.66134e-16 -5.06539e-16 -2.4869e-14
240 1 6.71838 2.51939 4.19899 -2.498e-15 -1.90126e-15 -2.40918e-14
241 1 0 3.35919 3.35919 -1.11022e-14 1.35447e-14 1.33227e-14
242 1 0.839798 4.19899 3.35919 2.77556e-15 -2.37171e-14 1.12133e-14
243 1 0.839798 3.35919 4.19899 2.66454e-15 1.23929e-14 -2.45498e-14
244 1 0 4.19899 4.19899 -7.10543e-15 -2.35367e-14 -2.29816e-14
245 1 1.6796 3.35919 3.35919 2.08167e-16 1.33782e-14 1.51545e-14
246 1 2.51939 4.19899 3.35919 -1.46411e-15 -2.13163e-14 1.06581e-14
247 1 2.51939 3.35919 4.19899 -2.2829e-15 1.26565e-14 -2.33147e-14
248 1 1.6796 4.19899 4.19899 -2.84495e-16 -2.30926e-14 -2.17604e-14
249 1 3.35919 3.35919 3.35919 1.27814e-14 1.27121e-14 1.41553e-14
250 1 4.19899 4.19899 3.35919 -2.30857e-14 -2.22045e-14 8.88178e-15
251 1 4.19899 3.35919 4.19899 -2.29677e-14 9.32587e-15 -2.44249e-14
252 1 3.35919 4.19899 4.19899 9.80466e-15 -2.30926e-14 -2.24265e-14
253 1 5.03879 3.35919 3.35919 -2.28983e-16 1.00475e-14 1.12133e-14
254 1 5.87859 4.19899 3.35919 2.19824e-14 -2.30926e-14 9.32587e-15
255 1 5.87859 3.35919 4.19899 2.17881e-14 1.06581e-14 -2.53131e-14
256 1 5.03879 4.19899 4.19899 -3.53884e-16 -2.04281e-14 -2.10942e-14
257 1 6.71838 3.35919 3.35919 -3.1225e-15 1.29619e-14 1.27814e-14
258 1 7.55818 4.19899 3.35919 6.66134e-16 -2.4647e-14 9.76996e-15
259 1 7.55818 3.35919 4.19899 4.44089e-16 1.05749e-14 -2.53131e-14
260 1 6.71838 4.19899 4.19899 -3.16414e-15 -2.29816e-14 -2.33424e-14
261 1 0 5.03879 3.35919 -7.99361e-15 4.44089e-16 1.15463e-14
262 1 0.839798 5.87859 3.35919 2.44249e-15 2.17673e-14 1.32672e-14
263 1 0.839798 5.03879 4.19899 2.88658e-15 1.94289e-16 -2.1233e-14
264 1 0 5.87859 4.19899 -6.21725e-15 2.16216e-14 -2.37588e-14
265 1 1.6796 5.03879 3.35919 2.498e-16 -5.55112e-16 1.17684e-14
266 1 2.51939 5.87859 3.35919 -1.11022e-15 2.13163e-14 1.34337e-14
267 1 2.51939 5.03879 4.19899 -2.14412e-15 8.88178e-16 -2.12053e-14
268 1 1.6796 5.87859 4.19899 2.498e-16 2.09971e-14 -2.13163e-14
269 1 3.35919 5.03879 3.35919 1.09981e-14 -4.44089e-16 1.1241e-14
270 1 4.19899 5.87859 3.35919 -2.33147e-14 2.19824e-14 1.00406e-14
271 1 4.19899 5.03879 4.19899 -2.07542e-14 -4.44089e-16 -2.11775e-14
272 1 3.35919 5.87859 4.19899 1.04916e-14 2.26069e-14 -2.22045e-14
273 1 5.03879 5.03879 3.35919 6.245e-17 -3.33067e-16 8.27116e-15
274 1 5.87859 5.87859 3.35919 2.19824e-14 2.10942e-14 9.47159e-15
275 1 5.87859 5.03879 4.19899 1.91305e-14 4.44089e-16 -2.11775e-14
276 1 5.03879 5.87859 4.19899 3.05311e-16 1.99285e-14 -2.13163e-14
277 1 6.71838 5.03879 3.35919 -2.26208e-15 2.91434e-16 1.09773e-14
278 1 7.55818 5.87859 3.35919 2.22045e-16 2.33147e-14 9.88098e-15
279 1 7.55818 5.03879 4.19899 -4.44089e-16 5.55112e-16 -2.28706e-14
280 1 6.71838 5.87859 4.19899 -3.10862e-15 2.27873e-14 -2.21212e-14
281 1 0 6.71838 3.35919 -9.76996e-15 -3.77476e-15 1.31006e-14
282 1 0.839798 7.55818 3.35919 2.22045e-15 3.46945e-16 1.46827e-14
283 1 0.839798 6.71838 4.19899 2.66454e-15 -2.498e-15 -2.40086e-14
284 1 0 7.55818 4.19899 -8.88178e-15 -2.22045e-16 -2.48135e-14
285 1 1.6796 6.71838 3.35919 1.38778e-16 -2.25514e-15 1.30868e-14
286 1 2.51939 7.55818 3.35919 -2.23432e-15 7.21645e-16 1.35447e-14
287 1 2.51939 6.71838 4.19899 -1.64452e-15 -2.66454e-15 -2.40918e-14
288 1 1.6796 7.55818 4.19899 -3.05311e-16 2.22045e-16 -2.39808e-14
289 1 3.35919 6.71838 3.35919 1.25316e-14 -2.85189e-15 1.33574e-14
290 1 4.19899 7.55818 3.35919 -2.53617e-14 -5.55112e-17 1.02141e-14
291 1 4.19899 6.71838 4.19899 -2.41057e-14 -2.94209e-15 -2.32314e-14
292 1 3.35919 7.55818 4.19899 1.14075e-14 2.22045e-16 -2.37588e-14
293 1 5.03879 6.71838 3.35919 -3.1225e-16 -3.36536e-15 9.20097e-15
294 1 5.87859 7.55818 3.35919 2.31273e-14 1.11022e-16 1.01585e-14
295 1 5.87859 6.71838 4.19899 2.2711e-14 -3.4972e-15 -2.40918e-14
296 1 5.03879 7.55818 4.19899 -8.32667e-17 6.66134e-16 -2.24265e-14
297 1 6.71838 6.71838 3.35919 -3.13638e-15 -2.97679e-15 1.16573e-14
298 1 7.55818 7.55818 3.35919 -4.44089e-16 -4.44089e-16 1.2268e-14
299 1 7.55818 6.71838 4.19899 -4.44089e-16 -3.16414e-15 -2.62013e-14
300 1 6.71838 7.55818 4.19899 -1.9984e-15 -1.52656e-16 -2.6118e-14
301 1 0 0 5.03879 -7.99361e-15 -6.66134e-15 2.22045e-16
302 1 0.839798 0.839798 5.03879 2.33147e-15 2.45637e-15 1.11022e-16
303 1 0.839798 0 5.87859 2.44249e-15 -6.10623e-15 2.20934e-14
304 1 0 0.839798 5.87859 -7.99361e-15 2.35922e-15 2.17604e-14
305 1 1.6796 0 5.03879 -3.33067e-16 -8.88178e-15 0
306 1 2.51939 0.839798 5.03879 -1.30451e-15 2.44249e-15 1.16573e-15
307 1 2.51939 0 5.87859 -1.73472e-15 -7.10543e-15 2.13163e-14
308 1 1.6796 0.839798 5.87859 2.77556e-17 3.33067e-15 2.08791e-14
309 1 3.35919 0 5.03879 1.10051e-14 -7.99361e-15 6.66134e-16
310 1 4.19899 0.839798 5.03879 -2.01922e-14 2.55351e-15 3.33067e-16
311 1 4.19899 0 5.87859 -2.36061e-14 -4.44089e-15 2.226e-14
312 1 3.35919 0.839798 5.87859 1.25663e-14 2.88658e-15 2.29261e-14
313 1 5.03879 0 5.03879 -2.63678e-16 -6.21725e-15 1.11022e-15
314 1 5.87859 0.839798 5.03879 1.90889e-14 2.66454e-15 1.22125e-15
315 1 5.87859 0 5.87859 2.1913e-14 -4.44089e-15 2.19269e-14
316 1 5.03879 0.839798 5.87859 -2.28983e-16 3.10862e-15 2.01297e-14
317 1 6.71838 0 5.03879 -3.21965e-15 -4.38538e-15 7.49401e-16
318 1 7.55818 0.839798 5.03879 -4.44089e-16 2.19269e-15 2.44249e-15
319 1 7.55818 0 5.87859 -4.44089e-16 -7.32747e-15 2.37588e-14
320 1 6.71838 0.839798 5.87859 -2.55351e-15 2.67841e-15 2.34257e-14
321 1 0 1.6796 5.03879 -7.10543e-15 -6.66134e-16 8.88178e-16
322 1 0.839798 2.51939 5.03879 2.44249e-15 -1.19349e-15 -2.77556e-17
323 1 0.839798 1.6796 5.87859 2.66454e-15 -7.07767e-16 2.14273e-14
324 1 0 2.51939 5.87859 -7.99361e-15 -1.66533e-15 2.14828e-14
325 1 1.6796 1.6796 5.03879 1.94289e-16 -5.48173e-16 4.44089e-16
326 1 2.51939 2.51939 5.03879 -1.02696e-15 -1.26288e-15 -7.56339e-16
327 1 2.51939 1.6796 5.87859 -8.88178e-16 9.71445e-17 2.10942e-14
328 1 1.6796 2.51939 5.87859 1.38778e-17 -6.10623e-16 2.04003e-14
329 1 3.35919 1.6796 5.03879 1.18031e-14 2.42861e-16 -2.22045e-16
330 1 4.19899 2.51939 5.03879 -2.02546e-14 -2.13024e-15 3.53884e-16
331 1 4.19899 1.6796 5.87859 -2.17604e-14 -1.80411e-16 2.13163e-14
332 1 3.35919 2.51939 5.87859 1.22541e-14 -7.21645e-16 2.11497e-14
333 1 5.03879 1.6796 5.03879 8.95117e-16 -5.75928e-16 8.88178e-16
334 1 5.87859 2.51939 5.03879 1.87558e-14 -8.04912e-16 1.24206e-15
335 1 5.87859 1.6796 5.87859 2.08722e-14 -3.46945e-16 2.10942e-14
336 1 5.03879 2.51939 5.87859 1.20737e-15 -3.88578e-16 1.87628e-14
337 1 6.71838 1.6796 5.03879 -3.00454e-15 -8.95117e-16 -4.16334e-17
338 1 7.55818 2.51939 5.03879 -8.88178e-16 -1.77636e-15 9.4369e-16
339 1 7.55818 1.6796 5.87859 2.22045e-16 9.4369e-16 2.22045e-14
340 1 6.71838 2.51939 5.87859 -2.94209e-15 -1.17961e-15 2.15106e-14
341 1 0 3.35919 5.03879 -7.99361e-15 1.06581e-14 0
342 1 0.839798 4.19899 5.03879 2.66454e-15 -2.28359e-14 -1.38778e-16
343 1 0.839798 3.35919 5.87859 2.44249e-15 1.19904e-14 2.33008e-14
344 1 0 4.19899 5.87859 -6.21725e-15 -2.33147e-14 2.226e-14
345 1 1.6796 3.35919 5.03879 2.08167e-16 1.11577e-14 4.996e-16
346 1 2.51939 4.19899 5.03879 -1.74166e-15 -2.13163e-14 -4.44089e-16
347 1 2.51939 3.35919 5.87859 -1.19349e-15 1.15463e-14 2.17604e-14
348 1 1.6796 4.19899 5.87859 -5.55112e-17 -2.04281e-14 2.13718e-14
349 1 3.35919 3.35919 5.03879 1.08177e-14 1.04916e-14 -2.77556e-16
350 1 4.19899 4.19899 5.03879 -2.10457e-14 -2.13163e-14 -1.9984e-15
351 1 4.19899 3.35919 5.87859 -2.33286e-14 9.76996e-15 2.15383e-14
352 1 3.35919 4.19899 5.87859 1.03251e-14 -2.13163e-14 2.30926e-14
353 1 5.03879 3.35919 5.03879 6.38378e-16 6.71685e-15 -1.66533e-16
354 1 5.87859 4.19899 5.03879 1.88877e-14 -2.13163e-14 -4.44089e-16
355 1 5.87859 3.35919 5.87859 2.20379e-14 9.99201e-15 2.24265e-14
356 1 5.03879 4.19899 5.87859 9.71445e-17 -1.95399e-14 2.00395e-14
357 1 6.71838 3.35919 5.03879 -2.92821e-15 9.64506e-15 -1.42941e-15
358 1 7.55818 4.19899 5.03879 -2.22045e-16 -2.26485e-14 8.88178e-16
359 1 7.55818 3.35919 5.87859 0 1.21014e-14 2.33147e-14
360 1 6.71838 4.19899 5.87859 -3.4972e-15 -2.11775e-14 2.40086e-14
361 1 0 5.03879 5.03879 -4.44089e-15 1.11022e-15 4.44089e-16
362 1 0.839798 5.87859 5.03879 2.10942e-15 1.80897e-14 3.33067e-16
363 1 0.839798 5.03879 5.87859 2.88658e-15 1.38778e-17 1.93734e-14
364 1 0 5.87859 5.87859 -5.32907e-15 2.22322e-14 2.29261e-14
365 1 1.6796 5.03879 5.03879 -2.08167e-16 -3.33067e-16 -4.996e-16
366 1 2.51939 5.87859 5.03879 -1.56819e-15 1.85754e-14 2.44249e-15
367 1 2.51939 5.03879 5.87859 -1.56819e-15 2.22045e-16 2.07334e-14
368 1 1.6796 5.87859 5.87859 3.46945e-16 2.06085e-14 2.06155e-14
369 1 3.35919 5.03879 5.03879 8.10463e-15 -2.22045e-16 6.66134e-16
370 1 4.19899 5.87859 5.03879 -2.05252e-14 1.93803e-14 8.88178e-16
371 1 4.19899 5.03879 5.87859 -2.11428e-14 1.11022e-15 1.98105e-14
372 1 3.35919 5.87859 5.87859 1.05194e-14 2.16355e-14 2.19477e-14
373 1 5.03879 5.03879 5.03879 -1.38778e-17 0 2.77556e-17
374 1 5.87859 5.87859 5.03879 1.91513e-14 1.84922e-14 1.77636e-15
375 1 5.87859 5.03879 5.87859 1.93248e-14 8.88178e-16 1.91375e-14
376 1 5.03879 5.87859 5.87859 3.46945e-16 1.88322e-14 1.95607e-14
377 1 6.71838 5.03879 5.03879 -3.06699e-15 6.93889e-17 -4.57967e-16
378 1 7.55818 5.87859 5.03879 0 2.04281e-14 -4.44089e-16
379 1 7.55818 5.03879 5.87859 4.44089e-16 5.82867e-16 2.19824e-14
380 1 6.71838 5.87859 5.87859 -3.55271e-15 2.33841e-14 2.40086e-14
381 1 0 6.71838 5.03879 -7.54952e-15 -4.44089e-15 8.88178e-16
382 1 0.839798 7.55818 5.03879 2.33147e-15 -4.85723e-16 2.41474e-15
383 1 0.839798 6.71838 5.87859 3.10862e-15 -1.33227e-15 2.21906e-14
384 1 0 7.55818 5.87859 -6.21725e-15 0 2.35922e-14
385 1 1.6796 6.71838 5.03879 6.45317e-16 -3.44863e-15 -2.63678e-16
386 1 2.51939 7.55818 5.03879 -1.96371e-15 -5.55112e-17 5.55112e-16
387 1 2.51939 6.71838 5.87859 -1.55431e-15 -1.66533e-15 2.21767e-14
388 1 1.6796 7.55818 5.87859 3.46945e-16 6.66134e-16 2.19824e-14
389 1 3.35919 6.71838 5.03879 1.04777e-14 -3.17107e-15 8.46545e-16
390 1 4.19899 7.55818 5.03879 -2.16979e-14 1.66533e-16 2.10942e-15
391 1 4.19899 6.71838 5.87859 -2.39531e-14 -2.88658e-15 2.22045e-14
392 1 3.35919 7.55818 5.87859 1.07414e-14 2.22045e-16 2.33147e-14
393 1 5.03879 6.71838 5.03879 3.67761e-16 -3.74006e-15 4.02456e-16
394 1 5.87859 7.55818 5.03879 2.08999e-14 2.77556e-16 2.22045e-16
395 1 5.87859 6.71838 5.87859 2.30649e-14 -1.94289e-15 2.37588e-14
396 1 5.03879 7.55818 5.87859 1.38778e-16 2.22045e-16 2.13163e-14
397 1 6.71838 6.71838 5.03879 -3.53884e-15 -3.51802e-15 -8.32667e-17
398 1 7.55818 7.55818 5.03879 0 0 3.33067e-16
399 1 7.55818 6.71838 5.87859 0 -3.55271e-15 2.44249e-14
400 1 6.71838 7.55818 5.87859 -3.44169e-15 9.99201e-16 2.4647e-14
401 1 0 0 6.71838 -9.76996e-15 -9.54792e-15 -3.77476e-15
402 1 0.839798 0.839798 6.71838 2.66454e-15 2.67841e-15 -2.72005e-15
403 1 0.839798 0 7.55818 2.55351e-15 -7.92422e-15 -7.21645e-16
404 1 0 0.839798 7.55818 -7.99361e-15 2.56739e-15 -4.44089e-16
405 1 1.6796 0 6.71838 2.498e-16 -8.88178e-15 -3.55271e-15
406 1 2.51939 0.839798 6.71838 -1.8735e-15 2.77556e-15 -3.60822e-15
407 1 2.51939 0 7.55818 -2.30371e-15 -7.10543e-15 6.66134e-16
408 1 1.6796 0.839798 7.55818 1.16573e-15 2.55351e-15 3.33067e-16
409 1 3.35919 0 6.71838 1.26704e-14 -7.10543e-15 -3.10862e-15
410 1 4.19899 0.839798 6.71838 -2.40641e-14 2.44249e-15 -4.69069e-15
411 1 4.19899 0 7.55818 -2.46123e-14 -7.10543e-15 -6.66134e-16
412 1 3.35919 0.839798 7.55818 1.24484e-14 2.55351e-15 1.33227e-15
413 1 5.03879 0 6.71838 2.63678e-16 -6.21725e-15 -3.9968e-15
414 1 5.87859 0.839798 6.71838 2.22253e-14 2.55351e-15 -2.38698e-15
415 1 5.87859 0 7.55818 2.26069e-14 -6.21725e-15 -6.66134e-16
416 1 5.03879 0.839798 7.55818 -1.66533e-16 2.77556e-15 1.66533e-16
417 1 6.71838 0 6.71838 -2.498e-15 -6.99441e-15 -4.16334e-15
418 1 7.55818 0.839798 6.71838 -1.16573e-15 2.60902e-15 -3.10862e-15
419 1 7.55818 0 7.55818 -4.44089e-16 -8.65974e-15 -8.88178e-16
420 1 6.71838 0.839798 7.55818 -3.16414e-15 2.45637e-15 6.66134e-16
421 1 0 1.6796 6.71838 -9.32587e-15 -4.44089e-16 -3.33067e-15
422 1 0.839798 2.51939 6.71838 2.9976e-15 -1.49186e-15 -3.69149e-15
423 1 0.839798 1.6796 7.55818 2.55351e-15 7.49401e-16 8.88178e-16
424 1 0 2.51939 7.55818 -8.88178e-15 -2.28983e-15 8.88178e-16
425 1 1.6796 1.6796 6.71838 2.08167e-16 -7.63278e-16 -3.20577e-15
426 1 2.51939 2.51939 6.71838 -1.38778e-15 -1.06165e-15 -4.37844e-15
427 1 2.51939 1.6796 7.55818 -1.4988e-15 3.33067e-16 -3.26128e-16
428 1 1.6796 2.51939 7.55818 1.38778e-16 -1.4988e-15 3.05311e-16
429 1 3.35919 1.6796 6.71838 1.30312e-14 -8.95117e-16 -3.41394e-15
430 1 4.19899 2.51939 6.71838 -2.33355e-14 -1.58901e-15 -5.10703e-15
431 1 4.19899 1.6796 7.55818 -2.35506e-14 -4.23273e-16 3.46945e-17
432 1 3.35919 2.51939 7.55818 1.32186e-14 -1.16573e-15 8.04912e-16
433 1 5.03879 1.6796 6.71838 0 -5.68989e-16 -2.42861e-15
434 1 5.87859 2.51939 6.71838 2.25098e-14 -1.25594e-15 -3.50414e-15
435 1 5.87859 1.6796 7.55818 2.22322e-14 -6.93889e-17 2.28983e-16
436 1 5.03879 2.51939 7.55818 3.60822e-16 -1.60982e-15 1.11022e-15
437 1 6.71838 1.6796 6.71838 -3.21271e-15 -5.06539e-16 -3.48332e-15
438 1 7.55818 2.51939 6.71838 -2.22045e-16 -1.77636e-15 -3.44169e-15
439 1 7.55818 1.6796 7.55818 8.88178e-16 2.08167e-16 4.44089e-16
440 1 6.71838 2.51939 7.55818 -2.60902e-15 -9.85323e-16 -2.498e-16
441 1 0 3.35919 6.71838 -1.02141e-14 1.33227e-14 -3.33067e-15
442 1 0.839798 4.19899 6.71838 2.77556e-15 -2.37171e-14 -3.94129e-15
443 1 0.839798 3.35919 7.55818 2.55351e-15 1.37113e-14 1.94289e-15
444 1 0 4.19899 7.55818 -7.99361e-15 -2.4647e-14 -6.66134e-16
445 1 1.6796 3.35919 6.71838 2.22045e-16 1.2601e-14 -1.94289e-15
446 1 2.51939 4.19899 6.71838 -1.70697e-15 -2.30926e-14 -4.66294e-15
447 1 2.51939 3.35919 7.55818 -1.94289e-15 1.33227e-14 1.77636e-15
448 1 1.6796 4.19899 7.55818 -6.38378e-16 -2.30926e-14 1.9984e-15
449 1 3.35919 3.35919 6.71838 1.28439e-14 1.19904e-14 -2.05391e-15
450 1 4.19899 4.19899 6.71838 -2.41265e-14 -2.22045e-14 -3.55271e-15
451 1 4.19899 3.35919 7.55818 -2.48274e-14 1.02141e-14 8.88178e-16
452 1 3.35919 4.19899 7.55818 1.20182e-14 -2.30926e-14 2.22045e-16
453 1 5.03879 3.35919 6.71838 -2.35922e-16 9.49241e-15 -1.9984e-15
454 1 5.87859 4.19899 6.71838 2.29608e-14 -2.39808e-14 -4.66294e-15
455 1 5.87859 3.35919 7.55818 2.30649e-14 1.15463e-14 1.33227e-15
456 1 5.03879 4.19899 7.55818 2.77556e-17 -2.30926e-14 1.55431e-15
457 1 6.71838 3.35919 6.71838 -3.13638e-15 1.16851e-14 -2.09555e-15
458 1 7.55818 4.19899 6.71838 -2.22045e-16 -2.5091e-14 -2.10942e-15
459 1 7.55818 3.35919 7.55818 -8.88178e-16 1.28231e-14 4.44089e-16