LAMMPS data file via write_data, version 24 Dec 2020, timestep = 0

1 atoms
1 atom types

-5 5 xlo xhi
-5 5 ylo yhi
-5 5 zlo zhi

Masses

1 1

Pair Coeffs # zero

1

Atoms # atomic

1 1 0 0 0 0 0 0

Velocities

1 0 0 0
